/*--------------------------------*- C++ -*----------------------------------*\
  =========                 |
  \\      /  F ield         | OpenFOAM: The Open Source CFD Toolbox
   \\    /   O peration     | Website:  https://openfoam.org
    \\  /    A nd           | Version:  7
     \\/     M anipulation  |
\*---------------------------------------------------------------------------*/
FoamFile
{
    version     2.0;
    format      ascii;
    class       volScalarField;
    location    "1739.99947342622772";
    object      p;
}
// * * * * * * * * * * * * * * * * * * * * * * * * * * * * * * * * * * * * * //

dimensions      [0 2 -2 0 0 0 0];

internalField   nonuniform List<scalar> 
4096
(
0.000585
0.0004141
0.0003299
0.0002877
0.0002644
0.0002504
0.0002415
0.0002354
0.0002311
0.0002278
0.0002252
0.0002232
0.0002216
0.0002202
0.000219
0.000218
0.0002171
0.0002163
0.0002156
0.000215
0.0002143
0.0002138
0.0002132
0.0002127
0.0002122
0.0002117
0.0002112
0.0002108
0.0002103
0.0002098
0.0002093
0.0002088
0.0002083
0.0002078
0.0002072
0.0002066
0.000206
0.0002053
0.0002046
0.0002038
0.0002029
0.0002019
0.0002008
0.0001995
0.0001981
0.0001965
0.0001947
0.0001927
0.0001904
0.0001878
0.000185
0.0001818
0.0001783
0.0001744
0.0001702
0.0001656
0.0001606
0.0001553
0.0001496
0.0001436
0.0001374
0.000131
0.0001244
0.0001177
0.000111
0.0001044
9.779e-05
9.135e-05
8.511e-05
7.911e-05
7.337e-05
6.793e-05
6.281e-05
5.802e-05
5.356e-05
4.944e-05
4.566e-05
4.219e-05
3.904e-05
3.618e-05
3.36e-05
3.128e-05
2.92e-05
2.734e-05
2.567e-05
2.418e-05
2.285e-05
2.166e-05
2.059e-05
1.963e-05
1.875e-05
1.796e-05
1.723e-05
1.655e-05
1.593e-05
1.534e-05
1.478e-05
1.425e-05
1.373e-05
1.324e-05
1.275e-05
1.227e-05
1.181e-05
1.134e-05
1.088e-05
1.042e-05
9.964e-06
9.505e-06
9.045e-06
8.584e-06
8.121e-06
7.656e-06
7.188e-06
6.718e-06
6.245e-06
5.769e-06
5.29e-06
4.807e-06
4.322e-06
3.834e-06
3.343e-06
2.85e-06
2.355e-06
1.862e-06
1.373e-06
8.932e-07
4.376e-07
8.248e-08
0.0004406
0.0003768
0.000327
0.000295
0.000274
0.0002598
0.0002497
0.0002424
0.0002369
0.0002327
0.0002293
0.0002267
0.0002245
0.0002227
0.0002211
0.0002198
0.0002186
0.0002176
0.0002167
0.0002158
0.0002151
0.0002143
0.0002137
0.000213
0.0002124
0.0002118
0.0002112
0.0002106
0.00021
0.0002094
0.0002089
0.0002083
0.0002076
0.000207
0.0002063
0.0002056
0.0002049
0.0002041
0.0002032
0.0002023
0.0002012
0.0002001
0.0001988
0.0001975
0.0001959
0.0001942
0.0001923
0.0001902
0.0001879
0.0001852
0.0001824
0.0001792
0.0001757
0.0001719
0.0001677
0.0001632
0.0001584
0.0001532
0.0001478
0.0001421
0.0001362
0.0001301
0.0001238
0.0001175
0.0001111
0.0001048
9.85e-05
9.237e-05
8.641e-05
8.066e-05
7.516e-05
6.992e-05
6.497e-05
6.032e-05
5.597e-05
5.193e-05
4.819e-05
4.474e-05
4.159e-05
3.87e-05
3.608e-05
3.37e-05
3.154e-05
2.959e-05
2.783e-05
2.624e-05
2.48e-05
2.35e-05
2.232e-05
2.125e-05
2.026e-05
1.936e-05
1.853e-05
1.776e-05
1.703e-05
1.636e-05
1.571e-05
1.51e-05
1.451e-05
1.395e-05
1.34e-05
1.286e-05
1.234e-05
1.182e-05
1.131e-05
1.081e-05
1.031e-05
9.819e-06
9.327e-06
8.837e-06
8.347e-06
7.858e-06
7.369e-06
6.879e-06
6.389e-06
5.898e-06
5.405e-06
4.912e-06
4.417e-06
3.92e-06
3.423e-06
2.926e-06
2.429e-06
1.933e-06
1.442e-06
9.598e-07
4.929e-07
1.054e-07
0.0003571
0.0003354
0.00031
0.0002892
0.0002737
0.000262
0.000253
0.0002459
0.0002404
0.0002359
0.0002323
0.0002293
0.0002268
0.0002247
0.0002229
0.0002213
0.00022
0.0002187
0.0002176
0.0002166
0.0002157
0.0002149
0.0002141
0.0002133
0.0002126
0.0002119
0.0002112
0.0002105
0.0002098
0.0002091
0.0002084
0.0002077
0.000207
0.0002062
0.0002054
0.0002046
0.0002038
0.0002028
0.0002019
0.0002008
0.0001997
0.0001984
0.0001971
0.0001956
0.0001939
0.0001921
0.0001901
0.0001879
0.0001855
0.0001829
0.00018
0.0001768
0.0001733
0.0001696
0.0001655
0.0001611
0.0001565
0.0001515
0.0001463
0.0001408
0.0001351
0.0001292
0.0001233
0.0001172
0.0001111
0.0001051
9.909e-05
9.323e-05
8.752e-05
8.201e-05
7.671e-05
7.166e-05
6.687e-05
6.235e-05
5.811e-05
5.414e-05
5.046e-05
4.704e-05
4.389e-05
4.1e-05
3.834e-05
3.592e-05
3.37e-05
3.168e-05
2.984e-05
2.817e-05
2.664e-05
2.524e-05
2.396e-05
2.279e-05
2.171e-05
2.071e-05
1.979e-05
1.892e-05
1.811e-05
1.735e-05
1.663e-05
1.594e-05
1.528e-05
1.465e-05
1.404e-05
1.344e-05
1.287e-05
1.23e-05
1.175e-05
1.12e-05
1.067e-05
1.014e-05
9.614e-06
9.094e-06
8.578e-06
8.065e-06
7.554e-06
7.045e-06
6.538e-06
6.031e-06
5.525e-06
5.02e-06
4.515e-06
4.01e-06
3.505e-06
3.001e-06
2.498e-06
1.997e-06
1.499e-06
1.007e-06
5.22e-07
1.091e-07
0.0003123
0.0003053
0.000292
0.0002788
0.0002679
0.0002591
0.000252
0.0002461
0.0002412
0.0002371
0.0002336
0.0002307
0.0002281
0.000226
0.0002241
0.0002224
0.0002209
0.0002196
0.0002184
0.0002172
0.0002162
0.0002153
0.0002144
0.0002135
0.0002127
0.0002119
0.0002111
0.0002103
0.0002095
0.0002088
0.000208
0.0002072
0.0002064
0.0002055
0.0002047
0.0002037
0.0002028
0.0002018
0.0002007
0.0001995
0.0001983
0.000197
0.0001955
0.0001939
0.0001922
0.0001904
0.0001883
0.0001861
0.0001836
0.000181
0.0001781
0.0001749
0.0001715
0.0001678
0.0001638
0.0001595
0.0001549
0.0001501
0.000145
0.0001397
0.0001342
0.0001286
0.0001228
0.000117
0.0001111
0.0001053
9.952e-05
9.386e-05
8.836e-05
8.303e-05
7.791e-05
7.302e-05
6.836e-05
6.396e-05
5.981e-05
5.592e-05
5.229e-05
4.891e-05
4.578e-05
4.288e-05
4.022e-05
3.776e-05
3.551e-05
3.344e-05
3.155e-05
2.981e-05
2.821e-05
2.674e-05
2.539e-05
2.414e-05
2.298e-05
2.19e-05
2.09e-05
1.996e-05
1.908e-05
1.824e-05
1.745e-05
1.67e-05
1.598e-05
1.529e-05
1.462e-05
1.398e-05
1.335e-05
1.274e-05
1.215e-05
1.157e-05
1.1e-05
1.043e-05
9.881e-06
9.335e-06
8.794e-06
8.259e-06
7.729e-06
7.202e-06
6.678e-06
6.157e-06
5.639e-06
5.122e-06
4.607e-06
4.093e-06
3.58e-06
3.069e-06
2.558e-06
2.049e-06
1.542e-06
1.037e-06
5.353e-07
1.061e-07
0.0002854
0.0002845
0.0002775
0.0002689
0.0002611
0.0002545
0.000249
0.0002443
0.0002403
0.0002368
0.0002337
0.000231
0.0002286
0.0002265
0.0002246
0.000223
0.0002214
0.0002201
0.0002188
0.0002176
0.0002165
0.0002155
0.0002146
0.0002136
0.0002127
0.0002119
0.000211
0.0002101
0.0002093
0.0002085
0.0002076
0.0002067
0.0002058
0.0002049
0.000204
0.000203
0.000202
0.0002009
0.0001997
0.0001985
0.0001972
0.0001958
0.0001942
0.0001926
0.0001908
0.0001889
0.0001868
0.0001846
0.0001821
0.0001794
0.0001765
0.0001734
0.00017
0.0001663
0.0001624
0.0001582
0.0001538
0.0001491
0.0001441
0.0001389
0.0001336
0.0001281
0.0001225
0.0001168
0.0001111
0.0001054
9.981e-05
9.432e-05
8.897e-05
8.38e-05
7.881e-05
7.404e-05
6.95e-05
6.519e-05
6.113e-05
5.731e-05
5.373e-05
5.039e-05
4.728e-05
4.44e-05
4.173e-05
3.926e-05
3.699e-05
3.489e-05
3.296e-05
3.117e-05
2.952e-05
2.8e-05
2.659e-05
2.528e-05
2.406e-05
2.292e-05
2.186e-05
2.086e-05
1.991e-05
1.902e-05
1.817e-05
1.737e-05
1.659e-05
1.585e-05
1.514e-05
1.445e-05
1.379e-05
1.314e-05
1.251e-05
1.189e-05
1.129e-05
1.07e-05
1.012e-05
9.552e-06
8.991e-06
8.436e-06
7.888e-06
7.345e-06
6.807e-06
6.273e-06
5.742e-06
5.215e-06
4.69e-06
4.168e-06
3.647e-06
3.127e-06
2.609e-06
2.092e-06
1.575e-06
1.059e-06
5.433e-07
1.026e-07
0.0002681
0.0002696
0.0002662
0.0002606
0.0002549
0.0002498
0.0002455
0.0002417
0.0002385
0.0002355
0.0002329
0.0002305
0.0002284
0.0002265
0.0002247
0.0002231
0.0002216
0.0002203
0.000219
0.0002178
0.0002167
0.0002156
0.0002146
0.0002137
0.0002127
0.0002118
0.0002109
0.00021
0.0002091
0.0002082
0.0002073
0.0002063
0.0002054
0.0002044
0.0002034
0.0002023
0.0002013
0.0002001
0.0001989
0.0001976
0.0001962
0.0001948
0.0001932
0.0001915
0.0001897
0.0001878
0.0001856
0.0001834
0.0001809
0.0001782
0.0001753
0.0001722
0.0001689
0.0001653
0.0001614
0.0001573
0.0001529
0.0001483
0.0001434
0.0001383
0.0001331
0.0001277
0.0001222
0.0001166
0.000111
0.0001055
9.999e-05
9.462e-05
8.939e-05
8.433e-05
7.945e-05
7.479e-05
7.034e-05
6.611e-05
6.211e-05
5.835e-05
5.482e-05
5.152e-05
4.844e-05
4.557e-05
4.291e-05
4.044e-05
3.816e-05
3.605e-05
3.409e-05
3.228e-05
3.059e-05
2.903e-05
2.758e-05
2.623e-05
2.496e-05
2.378e-05
2.266e-05
2.161e-05
2.062e-05
1.968e-05
1.879e-05
1.794e-05
1.712e-05
1.634e-05
1.559e-05
1.486e-05
1.416e-05
1.348e-05
1.282e-05
1.218e-05
1.155e-05
1.093e-05
1.033e-05
9.742e-06
9.162e-06
8.59e-06
8.026e-06
7.469e-06
6.919e-06
6.373e-06
5.833e-06
5.296e-06
4.763e-06
4.233e-06
3.704e-06
3.178e-06
2.652e-06
2.127e-06
1.603e-06
1.077e-06
5.498e-07
1.001e-07
0.0002562
0.0002586
0.0002573
0.0002537
0.0002495
0.0002456
0.000242
0.000239
0.0002363
0.0002338
0.0002316
0.0002296
0.0002277
0.000226
0.0002244
0.0002229
0.0002215
0.0002202
0.000219
0.0002178
0.0002167
0.0002156
0.0002146
0.0002136
0.0002126
0.0002117
0.0002108
0.0002098
0.0002089
0.0002079
0.000207
0.000206
0.000205
0.000204
0.0002029
0.0002018
0.0002007
0.0001995
0.0001982
0.0001969
0.0001955
0.000194
0.0001924
0.0001907
0.0001888
0.0001869
0.0001848
0.0001825
0.00018
0.0001773
0.0001745
0.0001714
0.0001681
0.0001645
0.0001607
0.0001566
0.0001523
0.0001477
0.0001429
0.0001379
0.0001327
0.0001274
0.0001219
0.0001164
0.0001109
0.0001055
0.0001001
9.478e-05
8.963e-05
8.466e-05
7.987e-05
7.528e-05
7.09e-05
6.674e-05
6.28e-05
5.909e-05
5.56e-05
5.233e-05
4.928e-05
4.643e-05
4.378e-05
4.133e-05
3.904e-05
3.692e-05
3.496e-05
3.313e-05
3.143e-05
2.984e-05
2.836e-05
2.698e-05
2.568e-05
2.446e-05
2.331e-05
2.222e-05
2.119e-05
2.022e-05
1.929e-05
1.84e-05
1.755e-05
1.674e-05
1.595e-05
1.52e-05
1.447e-05
1.376e-05
1.308e-05
1.241e-05
1.176e-05
1.113e-05
1.051e-05
9.899e-06
9.303e-06
8.718e-06
8.141e-06
7.573e-06
7.012e-06
6.457e-06
5.908e-06
5.364e-06
4.823e-06
4.286e-06
3.752e-06
3.219e-06
2.688e-06
2.157e-06
1.625e-06
1.092e-06
5.56e-07
9.908e-08
0.0002476
0.0002503
0.0002502
0.000248
0.0002449
0.0002418
0.0002389
0.0002363
0.0002341
0.000232
0.0002301
0.0002284
0.0002268
0.0002252
0.0002238
0.0002225
0.0002212
0.0002199
0.0002188
0.0002177
0.0002166
0.0002155
0.0002145
0.0002135
0.0002125
0.0002116
0.0002106
0.0002097
0.0002087
0.0002077
0.0002067
0.0002057
0.0002047
0.0002037
0.0002026
0.0002014
0.0002003
0.000199
0.0001977
0.0001964
0.0001949
0.0001934
0.0001918
0.0001901
0.0001882
0.0001863
0.0001841
0.0001819
0.0001794
0.0001768
0.0001739
0.0001709
0.0001676
0.000164
0.0001603
0.0001562
0.0001519
0.0001474
0.0001426
0.0001377
0.0001325
0.0001272
0.0001218
0.0001163
0.0001108
0.0001054
0.0001
9.48e-05
8.972e-05
8.48e-05
8.007e-05
7.554e-05
7.121e-05
6.71e-05
6.321e-05
5.953e-05
5.608e-05
5.284e-05
4.982e-05
4.699e-05
4.437e-05
4.192e-05
3.965e-05
3.753e-05
3.557e-05
3.373e-05
3.203e-05
3.043e-05
2.893e-05
2.753e-05
2.621e-05
2.497e-05
2.379e-05
2.268e-05
2.163e-05
2.063e-05
1.967e-05
1.876e-05
1.788e-05
1.704e-05
1.623e-05
1.546e-05
1.471e-05
1.398e-05
1.327e-05
1.259e-05
1.192e-05
1.127e-05
1.064e-05
1.002e-05
9.413e-06
8.816e-06
8.23e-06
7.652e-06
7.083e-06
6.521e-06
5.966e-06
5.415e-06
4.87e-06
4.328e-06
3.788e-06
3.251e-06
2.716e-06
2.18e-06
1.644e-06
1.105e-06
5.626e-07
9.971e-08
0.0002411
0.0002438
0.0002443
0.0002431
0.0002409
0.0002385
0.0002361
0.000234
0.000232
0.0002302
0.0002286
0.0002271
0.0002257
0.0002244
0.0002231
0.0002219
0.0002207
0.0002195
0.0002184
0.0002174
0.0002163
0.0002153
0.0002143
0.0002134
0.0002124
0.0002114
0.0002105
0.0002095
0.0002085
0.0002076
0.0002066
0.0002055
0.0002045
0.0002034
0.0002023
0.0002012
0.0002
0.0001987
0.0001974
0.000196
0.0001946
0.0001931
0.0001914
0.0001897
0.0001879
0.0001859
0.0001838
0.0001815
0.0001791
0.0001765
0.0001736
0.0001706
0.0001673
0.0001638
0.0001601
0.0001561
0.0001518
0.0001473
0.0001425
0.0001376
0.0001324
0.0001271
0.0001216
0.0001162
0.0001107
0.0001053
9.992e-05
9.471e-05
8.966e-05
8.478e-05
8.009e-05
7.559e-05
7.13e-05
6.722e-05
6.335e-05
5.971e-05
5.628e-05
5.307e-05
5.007e-05
4.727e-05
4.467e-05
4.224e-05
3.999e-05
3.789e-05
3.593e-05
3.411e-05
3.24e-05
3.08e-05
2.93e-05
2.789e-05
2.656e-05
2.531e-05
2.412e-05
2.3e-05
2.193e-05
2.091e-05
1.993e-05
1.9e-05
1.811e-05
1.725e-05
1.643e-05
1.564e-05
1.487e-05
1.413e-05
1.341e-05
1.271e-05
1.204e-05
1.138e-05
1.073e-05
1.01e-05
9.487e-06
8.883e-06
8.29e-06
7.706e-06
7.132e-06
6.565e-06
6.005e-06
5.451e-06
4.901e-06
4.356e-06
3.814e-06
3.275e-06
2.736e-06
2.198e-06
1.659e-06
1.117e-06
5.699e-07
1.022e-07
0.000236
0.0002386
0.0002395
0.0002389
0.0002375
0.0002356
0.0002337
0.0002318
0.0002301
0.0002286
0.0002272
0.0002258
0.0002246
0.0002234
0.0002223
0.0002212
0.0002201
0.000219
0.000218
0.000217
0.0002161
0.0002151
0.0002141
0.0002132
0.0002122
0.0002113
0.0002103
0.0002094
0.0002084
0.0002074
0.0002064
0.0002054
0.0002044
0.0002033
0.0002022
0.000201
0.0001998
0.0001986
0.0001973
0.0001959
0.0001944
0.0001929
0.0001913
0.0001896
0.0001877
0.0001858
0.0001837
0.0001814
0.000179
0.0001764
0.0001736
0.0001706
0.0001674
0.0001639
0.0001601
0.0001561
0.0001519
0.0001474
0.0001426
0.0001376
0.0001324
0.000127
0.0001215
0.000116
0.0001105
0.0001051
9.971e-05
9.45e-05
8.946e-05
8.459e-05
7.991e-05
7.542e-05
7.115e-05
6.708e-05
6.324e-05
5.961e-05
5.621e-05
5.302e-05
5.004e-05
4.727e-05
4.469e-05
4.23e-05
4.007e-05
3.799e-05
3.605e-05
3.424e-05
3.255e-05
3.097e-05
2.947e-05
2.807e-05
2.674e-05
2.549e-05
2.43e-05
2.316e-05
2.209e-05
2.106e-05
2.008e-05
1.914e-05
1.824e-05
1.737e-05
1.654e-05
1.574e-05
1.496e-05
1.421e-05
1.349e-05
1.278e-05
1.21e-05
1.143e-05
1.078e-05
1.015e-05
9.525e-06
8.917e-06
8.32e-06
7.733e-06
7.156e-06
6.587e-06
6.024e-06
5.469e-06
4.918e-06
4.372e-06
3.829e-06
3.288e-06
2.749e-06
2.21e-06
1.67e-06
1.127e-06
5.782e-07
1.067e-07
0.000232
0.0002343
0.0002355
0.0002354
0.0002344
0.000233
0.0002315
0.0002299
0.0002284
0.0002271
0.0002258
0.0002246
0.0002235
0.0002225
0.0002214
0.0002204
0.0002195
0.0002185
0.0002176
0.0002166
0.0002157
0.0002148
0.0002139
0.000213
0.0002121
0.0002111
0.0002102
0.0002093
0.0002083
0.0002074
0.0002064
0.0002054
0.0002043
0.0002032
0.0002021
0.000201
0.0001998
0.0001986
0.0001972
0.0001959
0.0001945
0.0001929
0.0001913
0.0001896
0.0001878
0.0001859
0.0001838
0.0001816
0.0001792
0.0001767
0.0001739
0.0001709
0.0001677
0.0001642
0.0001605
0.0001565
0.0001522
0.0001476
0.0001428
0.0001378
0.0001325
0.000127
0.0001215
0.0001159
0.0001103
0.0001048
9.941e-05
9.417e-05
8.911e-05
8.423e-05
7.954e-05
7.505e-05
7.077e-05
6.67e-05
6.286e-05
5.924e-05
5.585e-05
5.268e-05
4.973e-05
4.699e-05
4.445e-05
4.208e-05
3.989e-05
3.784e-05
3.594e-05
3.416e-05
3.249e-05
3.092e-05
2.945e-05
2.806e-05
2.674e-05
2.55e-05
2.431e-05
2.319e-05
2.211e-05
2.109e-05
2.011e-05
1.916e-05
1.826e-05
1.739e-05
1.656e-05
1.575e-05
1.498e-05
1.423e-05
1.35e-05
1.279e-05
1.21e-05
1.144e-05
1.078e-05
1.015e-05
9.527e-06
8.917e-06
8.32e-06
7.733e-06
7.155e-06
6.586e-06
6.024e-06
5.469e-06
4.919e-06
4.374e-06
3.832e-06
3.293e-06
2.755e-06
2.217e-06
1.678e-06
1.136e-06
5.876e-07
1.132e-07
0.0002286
0.0002308
0.0002321
0.0002323
0.0002317
0.0002307
0.0002295
0.0002282
0.0002269
0.0002257
0.0002246
0.0002235
0.0002225
0.0002216
0.0002206
0.0002197
0.0002189
0.000218
0.0002171
0.0002162
0.0002154
0.0002145
0.0002137
0.0002128
0.0002119
0.000211
0.0002101
0.0002092
0.0002083
0.0002073
0.0002064
0.0002054
0.0002043
0.0002033
0.0002022
0.0002011
0.0001999
0.0001987
0.0001974
0.0001961
0.0001947
0.0001932
0.0001916
0.0001899
0.0001882
0.0001863
0.0001842
0.0001821
0.0001797
0.0001772
0.0001744
0.0001715
0.0001683
0.0001648
0.0001611
0.000157
0.0001527
0.0001481
0.0001432
0.0001381
0.0001327
0.0001271
0.0001215
0.0001157
0.0001101
0.0001045
9.9e-05
9.372e-05
8.861e-05
8.369e-05
7.896e-05
7.445e-05
7.014e-05
6.606e-05
6.22e-05
5.858e-05
5.52e-05
5.205e-05
4.913e-05
4.643e-05
4.392e-05
4.16e-05
3.945e-05
3.745e-05
3.559e-05
3.385e-05
3.222e-05
3.068e-05
2.924e-05
2.787e-05
2.658e-05
2.535e-05
2.418e-05
2.307e-05
2.201e-05
2.099e-05
2.002e-05
1.908e-05
1.819e-05
1.733e-05
1.649e-05
1.569e-05
1.492e-05
1.417e-05
1.345e-05
1.274e-05
1.206e-05
1.139e-05
1.074e-05
1.011e-05
9.491e-06
8.885e-06
8.29e-06
7.705e-06
7.13e-06
6.564e-06
6.005e-06
5.452e-06
4.905e-06
4.363e-06
3.824e-06
3.288e-06
2.753e-06
2.218e-06
1.682e-06
1.143e-06
5.981e-07
1.219e-07
0.0002259
0.0002279
0.0002292
0.0002296
0.0002294
0.0002287
0.0002277
0.0002267
0.0002256
0.0002245
0.0002235
0.0002225
0.0002216
0.0002208
0.0002199
0.0002191
0.0002183
0.0002175
0.0002167
0.0002159
0.0002151
0.0002142
0.0002134
0.0002126
0.0002118
0.0002109
0.0002101
0.0002092
0.0002083
0.0002074
0.0002064
0.0002055
0.0002045
0.0002034
0.0002024
0.0002013
0.0002001
0.000199
0.0001977
0.0001964
0.000195
0.0001936
0.0001921
0.0001904
0.0001887
0.0001869
0.0001849
0.0001828
0.0001805
0.000178
0.0001753
0.0001724
0.0001692
0.0001657
0.000162
0.0001579
0.0001535
0.0001489
0.0001439
0.0001386
0.0001331
0.0001274
0.0001215
0.0001156
0.0001098
0.0001041
9.849e-05
9.312e-05
8.794e-05
8.295e-05
7.816e-05
7.359e-05
6.924e-05
6.512e-05
6.124e-05
5.761e-05
5.424e-05
5.111e-05
4.823e-05
4.556e-05
4.311e-05
4.085e-05
3.875e-05
3.681e-05
3.5e-05
3.331e-05
3.173e-05
3.024e-05
2.884e-05
2.751e-05
2.625e-05
2.505e-05
2.391e-05
2.281e-05
2.177e-05
2.077e-05
1.982e-05
1.89e-05
1.802e-05
1.717e-05
1.635e-05
1.556e-05
1.479e-05
1.405e-05
1.333e-05
1.264e-05
1.196e-05
1.13e-05
1.066e-05
1.003e-05
9.42e-06
8.819e-06
8.23e-06
7.651e-06
7.081e-06
6.519e-06
5.965e-06
5.418e-06
4.876e-06
4.338e-06
3.805e-06
3.273e-06
2.744e-06
2.214e-06
1.683e-06
1.149e-06
6.098e-07
1.326e-07
0.0002236
0.0002254
0.0002267
0.0002273
0.0002273
0.0002268
0.0002261
0.0002253
0.0002243
0.0002234
0.0002225
0.0002217
0.0002208
0.00022
0.0002192
0.0002185
0.0002177
0.000217
0.0002163
0.0002155
0.0002148
0.000214
0.0002132
0.0002125
0.0002117
0.0002109
0.00021
0.0002092
0.0002083
0.0002075
0.0002066
0.0002056
0.0002047
0.0002037
0.0002027
0.0002016
0.0002005
0.0001994
0.0001982
0.0001969
0.0001956
0.0001942
0.0001927
0.0001912
0.0001895
0.0001878
0.0001858
0.0001838
0.0001816
0.0001791
0.0001765
0.0001736
0.0001705
0.000167
0.0001632
0.0001591
0.0001547
0.0001499
0.0001448
0.0001393
0.0001336
0.0001277
0.0001216
0.0001155
0.0001094
0.0001036
9.785e-05
9.236e-05
8.706e-05
8.198e-05
7.71e-05
7.244e-05
6.802e-05
6.385e-05
5.994e-05
5.63e-05
5.294e-05
4.984e-05
4.7e-05
4.439e-05
4.201e-05
3.981e-05
3.779e-05
3.593e-05
3.419e-05
3.257e-05
3.104e-05
2.961e-05
2.826e-05
2.698e-05
2.576e-05
2.46e-05
2.349e-05
2.243e-05
2.142e-05
2.044e-05
1.951e-05
1.861e-05
1.775e-05
1.692e-05
1.612e-05
1.534e-05
1.459e-05
1.387e-05
1.316e-05
1.248e-05
1.182e-05
1.117e-05
1.054e-05
9.918e-06
9.314e-06
8.722e-06
8.141e-06
7.57e-06
7.008e-06
6.455e-06
5.908e-06
5.367e-06
4.832e-06
4.302e-06
3.775e-06
3.25e-06
2.728e-06
2.205e-06
1.681e-06
1.155e-06
6.227e-07
1.453e-07
0.0002216
0.0002233
0.0002246
0.0002253
0.0002254
0.0002252
0.0002247
0.000224
0.0002232
0.0002224
0.0002216
0.0002209
0.0002201
0.0002194
0.0002187
0.000218
0.0002173
0.0002166
0.0002159
0.0002152
0.0002145
0.0002138
0.0002131
0.0002123
0.0002116
0.0002108
0.0002101
0.0002093
0.0002085
0.0002076
0.0002068
0.0002059
0.000205
0.000204
0.0002031
0.000202
0.000201
0.0001999
0.0001988
0.0001976
0.0001963
0.000195
0.0001936
0.0001921
0.0001905
0.0001889
0.0001871
0.0001851
0.000183
0.0001806
0.0001781
0.0001752
0.0001721
0.0001687
0.0001649
0.0001607
0.0001562
0.0001513
0.000146
0.0001403
0.0001344
0.0001282
0.0001218
0.0001154
0.0001091
0.0001029
9.705e-05
9.139e-05
8.594e-05
8.071e-05
7.57e-05
7.093e-05
6.642e-05
6.219e-05
5.824e-05
5.46e-05
5.126e-05
4.82e-05
4.542e-05
4.29e-05
4.06e-05
3.85e-05
3.657e-05
3.48e-05
3.315e-05
3.161e-05
3.016e-05
2.88e-05
2.751e-05
2.628e-05
2.512e-05
2.4e-05
2.294e-05
2.192e-05
2.094e-05
2.001e-05
1.91e-05
1.824e-05
1.74e-05
1.659e-05
1.581e-05
1.506e-05
1.433e-05
1.363e-05
1.294e-05
1.227e-05
1.162e-05
1.099e-05
1.037e-05
9.768e-06
9.176e-06
8.596e-06
8.026e-06
7.466e-06
6.914e-06
6.37e-06
5.833e-06
5.302e-06
4.776e-06
4.254e-06
3.735e-06
3.219e-06
2.705e-06
2.191e-06
1.676e-06
1.159e-06
6.366e-07
1.598e-07
0.0002199
0.0002215
0.0002228
0.0002235
0.0002238
0.0002237
0.0002234
0.0002229
0.0002223
0.0002216
0.0002209
0.0002202
0.0002195
0.0002188
0.0002181
0.0002175
0.0002169
0.0002162
0.0002156
0.0002149
0.0002143
0.0002136
0.0002129
0.0002123
0.0002116
0.0002109
0.0002101
0.0002094
0.0002086
0.0002078
0.000207
0.0002062
0.0002053
0.0002045
0.0002035
0.0002026
0.0002016
0.0002006
0.0001995
0.0001984
0.0001972
0.000196
0.0001946
0.0001933
0.0001918
0.0001902
0.0001885
0.0001867
0.0001847
0.0001825
0.00018
0.0001773
0.0001742
0.0001708
0.0001671
0.0001629
0.0001582
0.0001532
0.0001477
0.0001418
0.0001355
0.0001289
0.0001221
0.0001153
0.0001086
0.0001022
9.603e-05
9.013e-05
8.447e-05
7.905e-05
7.388e-05
6.897e-05
6.436e-05
6.007e-05
5.61e-05
5.246e-05
4.916e-05
4.617e-05
4.348e-05
4.107e-05
3.888e-05
3.69e-05
3.509e-05
3.343e-05
3.188e-05
3.044e-05
2.909e-05
2.781e-05
2.659e-05
2.544e-05
2.433e-05
2.328e-05
2.227e-05
2.13e-05
2.036e-05
1.947e-05
1.86e-05
1.777e-05
1.697e-05
1.619e-05
1.544e-05
1.472e-05
1.401e-05
1.333e-05
1.267e-05
1.202e-05
1.139e-05
1.077e-05
1.017e-05
9.586e-06
9.009e-06
8.444e-06
7.887e-06
7.34e-06
6.801e-06
6.268e-06
5.742e-06
5.222e-06
4.706e-06
4.195e-06
3.687e-06
3.181e-06
2.677e-06
2.173e-06
1.669e-06
1.162e-06
6.516e-07
1.761e-07
0.0002185
0.00022
0.0002212
0.000222
0.0002224
0.0002224
0.0002222
0.0002219
0.0002214
0.0002208
0.0002202
0.0002196
0.0002189
0.0002183
0.0002177
0.0002171
0.0002165
0.0002159
0.0002153
0.0002147
0.0002141
0.0002135
0.0002129
0.0002122
0.0002116
0.0002109
0.0002102
0.0002096
0.0002088
0.0002081
0.0002074
0.0002066
0.0002058
0.000205
0.0002041
0.0002032
0.0002023
0.0002013
0.0002003
0.0001993
0.0001982
0.0001971
0.0001959
0.0001946
0.0001933
0.0001918
0.0001903
0.0001886
0.0001867
0.0001847
0.0001824
0.0001798
0.0001769
0.0001736
0.0001698
0.0001656
0.0001609
0.0001557
0.00015
0.0001437
0.000137
0.0001299
0.0001226
0.0001153
0.0001081
0.0001012
9.468e-05
8.845e-05
8.251e-05
7.685e-05
7.149e-05
6.644e-05
6.174e-05
5.74e-05
5.342e-05
4.983e-05
4.66e-05
4.372e-05
4.116e-05
3.888e-05
3.685e-05
3.502e-05
3.335e-05
3.182e-05
3.041e-05
2.908e-05
2.783e-05
2.665e-05
2.553e-05
2.445e-05
2.342e-05
2.243e-05
2.148e-05
2.057e-05
1.969e-05
1.884e-05
1.802e-05
1.723e-05
1.646e-05
1.572e-05
1.501e-05
1.431e-05
1.364e-05
1.299e-05
1.235e-05
1.173e-05
1.112e-05
1.053e-05
9.944e-06
9.375e-06
8.816e-06
8.267e-06
7.727e-06
7.195e-06
6.67e-06
6.151e-06
5.638e-06
5.13e-06
4.626e-06
4.127e-06
3.63e-06
3.136e-06
2.643e-06
2.151e-06
1.659e-06
1.165e-06
6.674e-07
1.939e-07
0.0002173
0.0002187
0.0002199
0.0002207
0.0002211
0.0002213
0.0002212
0.000221
0.0002206
0.0002201
0.0002196
0.000219
0.0002185
0.0002179
0.0002173
0.0002168
0.0002162
0.0002157
0.0002151
0.0002146
0.000214
0.0002134
0.0002128
0.0002123
0.0002117
0.000211
0.0002104
0.0002098
0.0002091
0.0002084
0.0002077
0.000207
0.0002063
0.0002055
0.0002047
0.0002039
0.0002031
0.0002022
0.0002013
0.0002004
0.0001994
0.0001983
0.0001973
0.0001961
0.0001949
0.0001936
0.0001923
0.0001908
0.0001891
0.0001873
0.0001852
0.0001828
0.0001801
0.000177
0.0001733
0.0001692
0.0001645
0.0001592
0.0001532
0.0001466
0.0001393
0.0001316
0.0001235
0.0001153
0.0001074
9.986e-05
9.278e-05
8.61e-05
7.981e-05
7.389e-05
6.834e-05
6.318e-05
5.842e-05
5.408e-05
5.015e-05
4.664e-05
4.354e-05
4.082e-05
3.844e-05
3.635e-05
3.45e-05
3.286e-05
3.137e-05
3e-05
2.873e-05
2.754e-05
2.642e-05
2.535e-05
2.432e-05
2.334e-05
2.239e-05
2.148e-05
2.059e-05
1.974e-05
1.892e-05
1.813e-05
1.736e-05
1.662e-05
1.59e-05
1.52e-05
1.452e-05
1.386e-05
1.322e-05
1.26e-05
1.199e-05
1.14e-05
1.082e-05
1.025e-05
9.688e-06
9.14e-06
8.601e-06
8.071e-06
7.549e-06
7.033e-06
6.524e-06
6.02e-06
5.522e-06
5.027e-06
4.537e-06
4.051e-06
3.567e-06
3.085e-06
2.605e-06
2.126e-06
1.647e-06
1.166e-06
6.838e-07
2.128e-07
0.0002162
0.0002176
0.0002187
0.0002195
0.00022
0.0002203
0.0002203
0.0002201
0.0002199
0.0002195
0.000219
0.0002185
0.000218
0.0002175
0.000217
0.0002165
0.000216
0.0002155
0.000215
0.0002144
0.0002139
0.0002134
0.0002129
0.0002123
0.0002118
0.0002112
0.0002106
0.00021
0.0002094
0.0002088
0.0002082
0.0002075
0.0002069
0.0002062
0.0002055
0.0002047
0.000204
0.0002032
0.0002024
0.0002015
0.0002007
0.0001997
0.0001988
0.0001978
0.0001968
0.0001957
0.0001945
0.0001932
0.0001918
0.0001902
0.0001884
0.0001864
0.0001839
0.0001811
0.0001777
0.0001737
0.0001691
0.0001638
0.0001577
0.0001507
0.0001429
0.0001343
0.000125
0.0001156
0.0001063
9.776e-05
8.987e-05
8.264e-05
7.598e-05
6.984e-05
6.417e-05
5.899e-05
5.427e-05
5.002e-05
4.622e-05
4.288e-05
3.997e-05
3.747e-05
3.532e-05
3.347e-05
3.186e-05
3.044e-05
2.916e-05
2.798e-05
2.689e-05
2.585e-05
2.486e-05
2.391e-05
2.3e-05
2.211e-05
2.126e-05
2.043e-05
1.962e-05
1.884e-05
1.809e-05
1.735e-05
1.664e-05
1.595e-05
1.528e-05
1.463e-05
1.399e-05
1.337e-05
1.277e-05
1.218e-05
1.16e-05
1.104e-05
1.049e-05
9.943e-06
9.41e-06
8.885e-06
8.369e-06
7.859e-06
7.356e-06
6.858e-06
6.366e-06
5.879e-06
5.396e-06
4.917e-06
4.441e-06
3.968e-06
3.498e-06
3.03e-06
2.563e-06
2.098e-06
1.633e-06
1.167e-06
7.007e-07
2.327e-07
0.0002153
0.0002166
0.0002177
0.0002185
0.0002191
0.0002194
0.0002195
0.0002194
0.0002192
0.0002189
0.0002185
0.0002181
0.0002177
0.0002172
0.0002168
0.0002163
0.0002158
0.0002153
0.0002149
0.0002144
0.0002139
0.0002134
0.0002129
0.0002124
0.0002119
0.0002114
0.0002109
0.0002103
0.0002098
0.0002092
0.0002087
0.0002081
0.0002075
0.0002069
0.0002062
0.0002056
0.0002049
0.0002042
0.0002035
0.0002028
0.000202
0.0002012
0.0002004
0.0001996
0.0001987
0.0001978
0.0001969
0.0001959
0.0001948
0.0001935
0.0001921
0.0001904
0.0001883
0.0001859
0.0001829
0.0001793
0.0001751
0.0001701
0.0001641
0.000157
0.0001487
0.000139
0.000128
0.0001161
0.0001044
9.41e-05
8.506e-05
7.725e-05
7.039e-05
6.428e-05
5.871e-05
5.37e-05
4.919e-05
4.516e-05
4.16e-05
3.851e-05
3.589e-05
3.368e-05
3.184e-05
3.029e-05
2.896e-05
2.78e-05
2.676e-05
2.58e-05
2.489e-05
2.402e-05
2.318e-05
2.237e-05
2.157e-05
2.08e-05
2.004e-05
1.93e-05
1.858e-05
1.788e-05
1.719e-05
1.652e-05
1.587e-05
1.524e-05
1.462e-05
1.401e-05
1.342e-05
1.285e-05
1.229e-05
1.173e-05
1.119e-05
1.066e-05
1.014e-05
9.623e-06
9.116e-06
8.616e-06
8.123e-06
7.635e-06
7.152e-06
6.674e-06
6.2e-06
5.73e-06
5.263e-06
4.8e-06
4.339e-06
3.881e-06
3.425e-06
2.971e-06
2.519e-06
2.068e-06
1.618e-06
1.168e-06
7.179e-07
2.532e-07
0.0002145
0.0002158
0.0002168
0.0002177
0.0002182
0.0002186
0.0002188
0.0002188
0.0002187
0.0002184
0.0002181
0.0002178
0.0002174
0.000217
0.0002165
0.0002161
0.0002157
0.0002152
0.0002148
0.0002143
0.0002139
0.0002134
0.000213
0.0002125
0.0002121
0.0002116
0.0002111
0.0002107
0.0002102
0.0002097
0.0002092
0.0002086
0.0002081
0.0002076
0.000207
0.0002065
0.0002059
0.0002053
0.0002047
0.0002041
0.0002034
0.0002028
0.0002022
0.0002015
0.0002008
0.0002001
0.0001994
0.0001987
0.0001979
0.000197
0.000196
0.0001948
0.0001932
0.0001913
0.000189
0.000186
0.0001824
0.0001782
0.0001731
0.0001667
0.0001587
0.0001484
0.0001341
0.0001169
0.0001002
8.686e-05
7.649e-05
6.873e-05
6.233e-05
5.673e-05
5.169e-05
4.722e-05
4.317e-05
3.953e-05
3.633e-05
3.36e-05
3.134e-05
2.951e-05
2.804e-05
2.685e-05
2.585e-05
2.499e-05
2.421e-05
2.349e-05
2.279e-05
2.21e-05
2.142e-05
2.075e-05
2.008e-05
1.942e-05
1.876e-05
1.812e-05
1.749e-05
1.686e-05
1.625e-05
1.565e-05
1.507e-05
1.449e-05
1.393e-05
1.338e-05
1.284e-05
1.231e-05
1.178e-05
1.127e-05
1.077e-05
1.027e-05
9.777e-06
9.292e-06
8.812e-06
8.338e-06
7.869e-06
7.403e-06
6.941e-06
6.483e-06
6.028e-06
5.576e-06
5.126e-06
4.679e-06
4.234e-06
3.791e-06
3.35e-06
2.911e-06
2.473e-06
2.037e-06
1.602e-06
1.168e-06
7.351e-07
2.74e-07
0.0002139
0.000215
0.0002161
0.0002169
0.0002175
0.0002179
0.0002182
0.0002182
0.0002182
0.000218
0.0002178
0.0002175
0.0002171
0.0002168
0.0002164
0.000216
0.0002156
0.0002152
0.0002148
0.0002143
0.0002139
0.0002135
0.0002131
0.0002127
0.0002123
0.0002119
0.0002114
0.000211
0.0002106
0.0002101
0.0002097
0.0002092
0.0002088
0.0002083
0.0002078
0.0002074
0.0002069
0.0002064
0.0002059
0.0002054
0.0002049
0.0002044
0.0002039
0.0002034
0.000203
0.0002025
0.000202
0.0002016
0.0002011
0.0002007
0.0002001
0.0001994
0.0001985
0.0001972
0.0001956
0.0001935
0.0001909
0.000188
0.0001848
0.0001805
0.0001728
0.0001646
0.0001486
0.0001191
8.937e-05
7.35e-05
6.439e-05
5.806e-05
5.17e-05
4.697e-05
4.311e-05
3.96e-05
3.633e-05
3.327e-05
3.055e-05
2.826e-05
2.644e-05
2.505e-05
2.401e-05
2.322e-05
2.26e-05
2.206e-05
2.157e-05
2.11e-05
2.061e-05
2.011e-05
1.96e-05
1.907e-05
1.854e-05
1.8e-05
1.745e-05
1.69e-05
1.636e-05
1.582e-05
1.529e-05
1.476e-05
1.424e-05
1.373e-05
1.323e-05
1.273e-05
1.224e-05
1.175e-05
1.127e-05
1.08e-05
1.033e-05
9.869e-06
9.41e-06
8.956e-06
8.504e-06
8.056e-06
7.611e-06
7.169e-06
6.729e-06
6.291e-06
5.855e-06
5.42e-06
4.988e-06
4.557e-06
4.128e-06
3.7e-06
3.274e-06
2.849e-06
2.426e-06
2.005e-06
1.585e-06
1.168e-06
7.52e-07
2.947e-07
0.0002133
0.0002144
0.0002155
0.0002163
0.0002169
0.0002173
0.0002176
0.0002177
0.0002177
0.0002176
0.0002174
0.0002172
0.0002169
0.0002166
0.0002162
0.0002159
0.0002155
0.0002151
0.0002148
0.0002144
0.000214
0.0002136
0.0002132
0.0002129
0.0002125
0.0002121
0.0002117
0.0002114
0.000211
0.0002106
0.0002102
0.0002098
0.0002094
0.0002091
0.0002087
0.0002083
0.0002079
0.0002075
0.0002071
0.0002067
0.0002064
0.000206
0.0002057
0.0002054
0.0002051
0.0002048
0.0002046
0.0002045
0.0002044
0.0002043
0.0002042
0.000204
0.0002037
0.0002032
0.0002023
0.000201
0.0001996
0.0001984
0.0001971
0.0001963
0.000192
0.0001653
0.0001219
0.0001099
9.975e-05
9.612e-05
6.736e-05
4.425e-05
3.898e-05
3.775e-05
3.371e-05
3.125e-05
2.903e-05
2.667e-05
2.449e-05
2.268e-05
2.134e-05
2.043e-05
1.986e-05
1.951e-05
1.928e-05
1.91e-05
1.89e-05
1.868e-05
1.841e-05
1.811e-05
1.776e-05
1.738e-05
1.698e-05
1.656e-05
1.612e-05
1.568e-05
1.523e-05
1.478e-05
1.432e-05
1.387e-05
1.342e-05
1.297e-05
1.252e-05
1.208e-05
1.164e-05
1.12e-05
1.076e-05
1.033e-05
9.901e-06
9.473e-06
9.047e-06
8.622e-06
8.199e-06
7.777e-06
7.356e-06
6.937e-06
6.518e-06
6.1e-06
5.683e-06
5.266e-06
4.851e-06
4.436e-06
4.022e-06
3.61e-06
3.198e-06
2.788e-06
2.38e-06
1.973e-06
1.569e-06
1.167e-06
7.684e-07
3.15e-07
0.0002128
0.0002139
0.0002149
0.0002157
0.0002164
0.0002168
0.0002171
0.0002173
0.0002174
0.0002173
0.0002172
0.000217
0.0002167
0.0002164
0.0002161
0.0002158
0.0002155
0.0002151