/*--------------------------------*- C++ -*----------------------------------*\
  =========                 |
  \\      /  F ield         | OpenFOAM: The Open Source CFD Toolbox
   \\    /   O peration     | Website:  https://openfoam.org
    \\  /    A nd           | Version:  7
     \\/     M anipulation  |
\*---------------------------------------------------------------------------*/
FoamFile
{
    version     2.0;
    format      ascii;
    class       surfaceScalarField;
    location    "1739.99947342622772";
    object      phi;
}
// * * * * * * * * * * * * * * * * * * * * * * * * * * * * * * * * * * * * * //

dimensions      [0 3 -1 0 0 0 0];

internalField   nonuniform List<scalar> 
8032
(
6.857e-10
2.518e-10
4.804e-10
2.053e-10
3.48e-10
1.324e-10
2.643e-10
8.372e-11
2.101e-10
5.416e-11
1.738e-10
3.638e-11
1.482e-10
2.551e-11
1.296e-10
1.866e-11
1.154e-10
1.415e-11
1.044e-10
1.105e-11
9.557e-11
8.816e-12
8.841e-11
7.155e-12
8.253e-11
5.881e-12
7.765e-11
4.878e-12
7.358e-11
4.07e-12
7.018e-11
3.407e-12
6.732e-11
2.855e-12
6.493e-11
2.387e-12
6.295e-11
1.985e-12
6.131e-11
1.635e-12
5.999e-11
1.326e-12
5.894e-11
1.049e-12
5.814e-11
7.982e-13
5.757e-11
5.672e-13
5.722e-11
3.516e-13
5.707e-11
1.474e-13
5.712e-11
-4.878e-14
5.736e-11
-2.397e-13
5.779e-11
-4.281e-13
5.841e-11
-6.16e-13
5.921e-11
-8.055e-13
6.021e-11
-9.983e-13
6.141e-11
-1.196e-12
6.281e-11
-1.4e-12
6.442e-11
-1.61e-12
6.625e-11
-1.829e-12
6.83e-11
-2.056e-12
7.059e-11
-2.292e-12
7.313e-11
-2.536e-12
7.592e-11
-2.788e-12
7.897e-11
-3.046e-12
8.227e-11
-3.309e-12
8.585e-11
-3.575e-12
8.969e-11
-3.84e-12
9.379e-11
-4.101e-12
9.814e-11
-4.353e-12
1.027e-10
-4.59e-12
1.075e-10
-4.807e-12
1.125e-10
-4.997e-12
1.177e-10
-5.152e-12
1.23e-10
-5.264e-12
1.283e-10
-5.325e-12
1.336e-10
-5.327e-12
1.389e-10
-5.262e-12
1.44e-10
-5.123e-12
1.489e-10
-4.906e-12
1.535e-10
-4.607e-12
1.577e-10
-4.225e-12
1.615e-10
-3.762e-12
1.647e-10
-3.225e-12
1.673e-10
-2.622e-12
1.693e-10
-1.965e-12
1.706e-10
-1.269e-12
1.711e-10
-5.509e-13
1.71e-10
1.723e-13
1.701e-10
8.833e-13
1.685e-10
1.566e-12
1.663e-10
2.207e-12
1.635e-10
2.795e-12
1.602e-10
3.322e-12
1.564e-10
3.781e-12
1.522e-10
4.171e-12
1.477e-10
4.489e-12
1.43e-10
4.737e-12
1.381e-10
4.918e-12
1.33e-10
5.034e-12
1.28e-10
5.09e-12
1.229e-10
5.092e-12
1.178e-10
5.045e-12
1.129e-10
4.955e-12
1.08e-10
4.829e-12
1.034e-10
4.672e-12
9.887e-11
4.491e-12
9.458e-11
4.291e-12
9.051e-11
4.077e-12
8.665e-11
3.854e-12
8.303e-11
3.626e-12
7.963e-11
3.396e-12
7.646e-11
3.169e-12
7.352e-11
2.945e-12
7.079e-11
2.728e-12
6.827e-11
2.519e-12
6.595e-11
2.319e-12
6.382e-11
2.129e-12
6.187e-11
1.95e-12
6.009e-11
1.781e-12
5.847e-11
1.623e-12
5.699e-11
1.476e-12
5.565e-11
1.34e-12
5.444e-11
1.214e-12
5.334e-11
1.097e-12
5.235e-11
9.904e-13
5.146e-11
8.924e-13
5.066e-11
8.028e-13
4.993e-11
7.21e-13
4.929e-11
6.465e-13
4.871e-11
5.788e-13
4.819e-11
5.175e-13
4.773e-11
4.619e-13
4.732e-11
4.118e-13
4.695e-11
3.666e-13
4.663e-11
3.26e-13
4.634e-11
2.896e-13
4.608e-11
2.572e-13
4.585e-11
2.285e-13
4.565e-11
2.033e-13
4.547e-11
1.814e-13
4.53e-11
1.629e-13
4.516e-11
1.476e-13
4.502e-11
1.358e-13
4.489e-11
1.278e-13
4.477e-11
1.241e-13
4.464e-11
1.258e-13
4.451e-11
1.351e-13
4.435e-11
1.557e-13
4.416e-11
1.944e-13
4.39e-11
2.582e-13
3.355e-13
9.523e-10
2.37e-10
8.501e-10
3.075e-10
7.275e-10
2.55e-10
6.183e-10
1.929e-10
5.294e-10
1.431e-10
4.592e-10
1.065e-10
4.041e-10
8.059e-11
3.606e-10
6.22e-11
3.258e-10
4.898e-11
2.976e-10
3.925e-11
2.745e-10
3.192e-11
2.554e-10
2.626e-11
2.394e-10
2.181e-11
2.261e-10
1.823e-11
2.148e-10
1.531e-11
2.054e-10
1.288e-11
1.974e-10
1.084e-11
1.907e-10
9.094e-12
1.851e-10
7.585e-12
1.805e-10
6.264e-12
1.767e-10
5.093e-12
1.737e-10
4.04e-12
1.714e-10
3.082e-12
1.698e-10
2.198e-12
1.688e-10
1.372e-12
1.683e-10
5.887e-13
1.684e-10
-1.637e-13
1.691e-10
-8.961e-13
1.703e-10
-1.618e-12
1.72e-10
-2.337e-12
1.743e-10
-3.061e-12
1.771e-10
-3.796e-12
1.804e-10
-4.547e-12
1.843e-10
-5.319e-12
1.888e-10
-6.117e-12
1.939e-10
-6.941e-12
1.997e-10
-7.795e-12
2.061e-10
-8.678e-12
2.131e-10
-9.589e-12
2.209e-10
-1.053e-11
2.293e-10
-1.148e-11
2.384e-10
-1.245e-11
2.483e-10
-1.343e-11
2.589e-10
-1.44e-11
2.701e-10
-1.535e-11
2.82e-10
-1.626e-11
2.946e-10
-1.712e-11
3.076e-10
-1.79e-11
3.212e-10
-1.857e-11
3.352e-10
-1.911e-11
3.494e-10
-1.949e-11
3.637e-10
-1.968e-11
3.781e-10
-1.965e-11
3.922e-10
-1.938e-11
4.059e-10
-1.884e-11
4.19e-10
-1.801e-11
4.313e-10
-1.69e-11
4.426e-10
-1.548e-11
4.526e-10
-1.378e-11
4.611e-10
-1.181e-11
4.681e-10
-9.606e-12
4.734e-10
-7.211e-12
4.768e-10
-4.677e-12
4.783e-10
-2.063e-12
4.779e-10
5.707e-13
4.756e-10
3.163e-12
4.715e-10
5.659e-12
4.657e-10
8.008e-12
4.584e-10
1.017e-11
4.496e-10
1.212e-11
4.395e-10
1.382e-11
4.284e-10
1.528e-11
4.164e-10
1.648e-11
4.037e-10
1.742e-11
3.905e-10
1.812e-11
3.77e-10
1.858e-11
3.633e-10
1.882e-11
3.495e-10
1.887e-11
3.358e-10
1.873e-11
3.223e-10
1.843e-11
3.092e-10
1.799e-11
2.964e-10
1.744e-11
2.841e-10
1.68e-11
2.723e-10
1.608e-11
2.611e-10
1.531e-11
2.504e-10
1.45e-11
2.404e-10
1.367e-11
2.309e-10
1.283e-11
2.221e-10
1.199e-11
2.139e-10
1.117e-11
2.063e-10
1.036e-11
1.992e-10
9.588e-12
1.927e-10
8.844e-12
1.867e-10
8.134e-12
1.811e-10
7.462e-12
1.761e-10
6.829e-12
1.715e-10
6.235e-12
1.673e-10
5.681e-12
1.635e-10
5.165e-12
1.6e-10
4.687e-12
1.568e-10
4.246e-12
1.54e-10
3.84e-12
1.514e-10
3.466e-12
1.491e-10
3.124e-12
1.47e-10
2.811e-12
1.451e-10
2.526e-12
1.434e-10
2.266e-12
1.419e-10
2.03e-12
1.406e-10
1.816e-12
1.394e-10
1.623e-12
1.383e-10
1.448e-12
1.373e-10
1.291e-12
1.364e-10
1.15e-12
1.357e-10
1.024e-12
1.35e-10
9.126e-13
1.344e-10
8.143e-13
1.338e-10
7.288e-13
1.333e-10
6.559e-13
1.329e-10
5.954e-13
1.325e-10
5.477e-13
1.321e-10
5.137e-13
1.317e-10
4.945e-13
1.314e-10
4.925e-13
1.31e-10
5.112e-13
1.306e-10
5.556e-13
1.302e-10
6.315e-13
1.297e-10
7.379e-13
8.382e-13
9.779e-10
1.966e-10
9.637e-10
3.217e-10
9.013e-10
3.175e-10
8.212e-10
2.73e-10
7.409e-10
2.233e-10
6.679e-10
1.795e-10
6.045e-10
1.44e-10
5.506e-10
1.161e-10
5.05e-10
9.451e-11
4.666e-10
7.762e-11
4.343e-10
6.431e-11
4.068e-10
5.367e-11
3.836e-10
4.507e-11
3.638e-10
3.8e-11
3.47e-10
3.213e-11
3.327e-10
2.719e-11
3.205e-10
2.299e-11
3.103e-10
1.936e-11
3.017e-10
1.62e-11
2.945e-10
1.341e-11
2.887e-10
1.093e-11
2.84e-10
8.687e-12
2.805e-10
6.638e-12
2.779e-10
4.741e-12
2.763e-10
2.964e-12
2.756e-10
1.276e-12
2.758e-10
-3.482e-13
2.769e-10
-1.93e-12
2.787e-10
-3.488e-12
2.814e-10
-5.041e-12
2.85e-10
-6.602e-12
2.894e-10
-8.186e-12
2.946e-10
-9.803e-12
3.008e-10
-1.146e-11
3.078e-10
-1.317e-11
3.158e-10
-1.494e-11
3.248e-10
-1.676e-11
3.348e-10
-1.865e-11
3.458e-10
-2.059e-11
3.578e-10
-2.257e-11
3.709e-10
-2.46e-11
3.851e-10
-2.666e-11
4.004e-10
-2.872e-11
4.168e-10
-3.076e-11
4.342e-10
-3.275e-11
4.526e-10
-3.466e-11
4.719e-10
-3.644e-11
4.92e-10
-3.805e-11
5.129e-10
-3.944e-11
5.344e-10
-4.054e-11
5.562e-10
-4.131e-11
5.782e-10
-4.167e-11
6.001e-10
-4.157e-11
6.217e-10
-4.096e-11
6.426e-10
-3.979e-11
6.626e-10
-3.803e-11
6.814e-10
-3.565e-11
6.986e-10
-3.265e-11
7.138e-10
-2.905e-11
7.269e-10
-2.49e-11
7.376e-10
-2.027e-11
7.456e-10
-1.523e-11
7.509e-10
-9.909e-12
7.532e-10
-4.416e-12
7.527e-10
1.119e-12
7.492e-10
6.572e-12
7.431e-10
1.183e-11
7.343e-10
1.678e-11
7.231e-10
2.135e-11
7.098e-10
2.546e-11
6.945e-10
2.909e-11
6.776e-10
3.219e-11
6.593e-10
3.475e-11
6.4e-10
3.678e-11
6.198e-10
3.83e-11
5.991e-10
3.932e-11
5.78e-10
3.988e-11
5.568e-10
4.002e-11
5.358e-10
3.977e-11
5.15e-10
3.918e-11
4.947e-10
3.83e-11
4.75e-10
3.718e-11
4.56e-10
3.585e-11
4.377e-10
3.436e-11
4.202e-10
3.275e-11
4.037e-10
3.105e-11
3.881e-10
2.931e-11
3.733e-10
2.754e-11
3.596e-10
2.578e-11
3.467e-10
2.404e-11
3.347e-10
2.234e-11
3.236e-10
2.069e-11
3.134e-10
1.91e-11
3.039e-10
1.759e-11
2.952e-10
1.616e-11
2.872e-10
1.481e-11
2.799e-10
1.354e-11
2.733e-10
1.235e-11
2.672e-10
1.124e-11
2.616e-10
1.022e-11
2.566e-10
9.266e-12
2.521e-10
8.39e-12
2.48e-10
7.584e-12
2.442e-10
6.845e-12
2.409e-10
6.168e-12
2.379e-10
5.55e-12
2.351e-10
4.987e-12
2.327e-10
4.474e-12
2.305e-10
4.009e-12
2.285e-10
3.588e-12
2.268e-10
3.207e-12
2.252e-10
2.864e-12
2.238e-10
2.555e-12
2.225e-10
2.28e-12
2.214e-10
2.035e-12
2.204e-10
1.818e-12
2.195e-10
1.63e-12
2.187e-10
1.468e-12
2.18e-10
1.333e-12
2.173e-10
1.224e-12
2.167e-10
1.142e-12
2.161e-10
1.09e-12
2.155e-10
1.07e-12
2.149e-10
1.084e-12
2.143e-10
1.135e-12
2.137e-10
1.224e-12
2.131e-10
1.339e-12
1.432e-12
9.752e-10
1.589e-10
9.93e-10
3.039e-10
9.728e-10
3.377e-10
9.268e-10
3.19e-10
8.689e-10
2.812e-10
8.083e-10
2.401e-10
7.502e-10
2.021e-10
6.969e-10
1.694e-10
6.494e-10
1.42e-10
6.075e-10
1.194e-10
5.71e-10
1.008e-10
5.393e-10
8.539e-11
5.118e-10
7.255e-11
4.881e-10
6.177e-11
4.675e-10
5.264e-11
4.499e-10
4.483e-11
4.348e-10
3.809e-11
4.219e-10
3.222e-11
4.111e-10
2.706e-11
4.02e-10
2.247e-11
3.946e-10
1.835e-11
3.887e-10
1.46e-11
3.842e-10
1.117e-11
3.809e-10
7.974e-12
3.789e-10
4.971e-12
3.781e-10
2.11e-12
3.784e-10
-6.465e-13
3.798e-10
-3.335e-12
3.823e-10
-5.987e-12
3.859e-10
-8.63e-12
3.906e-10
-1.129e-11
3.964e-10
-1.398e-11
4.033e-10
-1.673e-11
4.114e-10
-1.955e-11
4.207e-10
-2.245e-11
4.312e-10
-2.544e-11
4.429e-10
-2.852e-11
4.56e-10
-3.17e-11
4.704e-10
-3.497e-11
4.861e-10
-3.832e-11
5.032e-10
-4.172e-11
5.217e-10
-4.517e-11
5.416e-10
-4.861e-11
5.629e-10
-5.202e-11
5.855e-10
-5.534e-11
6.093e-10
-5.852e-11
6.344e-10
-6.148e-11
6.605e-10
-6.414e-11
6.874e-10
-6.642e-11
7.151e-10
-6.823e-11
7.433e-10
-6.946e-11
7.716e-10
-7.002e-11
7.999e-10
-6.982e-11
8.277e-10
-6.876e-11
8.546e-10
-6.676e-11
8.804e-10
-6.378e-11
9.045e-10
-5.977e-11
9.266e-10
-5.473e-11
9.462e-10
-4.87e-11
9.631e-10
-4.175e-11
9.768e-10
-3.4e-11
9.871e-10
-2.558e-11
9.939e-10
-1.667e-11
9.97e-10
-7.49e-12
9.963e-10
1.766e-12
9.92e-10
1.089e-11
9.842e-10
1.968e-11
9.73e-10
2.798e-11
9.587e-10
3.564e-11
9.416e-10
4.255e-11
9.22e-10
4.865e-11
9.003e-10
5.388e-11
8.769e-10
5.822e-11
8.52e-10
6.168e-11
8.26e-10
6.427e-11
7.993e-10
6.604e-11
7.721e-10
6.704e-11
7.448e-10
6.733e-11
7.176e-10
6.697e-11
6.907e-10
6.604e-11
6.644e-10
6.462e-11
6.388e-10
6.278e-11
6.141e-10
6.059e-11
5.903e-10
5.813e-11
5.676e-10
5.546e-11
5.46e-10
5.265e-11
5.256e-10
4.974e-11
5.063e-10
4.679e-11
4.882e-10
4.384e-11
4.714e-10
4.092e-11
4.556e-10
3.806e-11
4.41e-10
3.529e-11
4.275e-10
3.263e-11
4.15e-10
3.008e-11
4.035e-10
2.766e-11
3.93e-10
2.537e-11
3.833e-10
2.322e-11
3.744e-10
2.12e-11
3.664e-10
1.932e-11
3.59e-10
1.758e-11
3.523e-10
1.596e-11
3.462e-10
1.447e-11
3.407e-10
1.31e-11
3.357e-10
1.183e-11
3.312e-10
1.067e-11
3.271e-10
9.616e-12
3.235e-10
8.651e-12
3.202e-10
7.771e-12
3.172e-10
6.972e-12
3.146e-10
6.247e-12
3.122e-10
5.591e-12
3.1e-10
5e-12
3.081e-10
4.468e-12
3.064e-10
3.991e-12
3.049e-10
3.567e-12
3.035e-10
3.191e-12
3.023e-10
2.862e-12
3.012e-10
2.578e-12
3.002e-10
2.338e-12
2.992e-10
2.142e-12
2.984e-10
1.99e-12
2.976e-10
1.883e-12
2.969e-10
1.823e-12
2.961e-10
1.81e-12
2.954e-10
1.846e-12
2.947e-10
1.923e-12
2.94e-10
2.024e-12
2.102e-12
9.668e-10
1.296e-10
9.944e-10
2.762e-10
9.978e-10
3.343e-10
9.78e-10
3.389e-10
9.424e-10
3.168e-10
8.985e-10
2.841e-10
8.516e-10
2.49e-10
8.053e-10
2.157e-10
7.615e-10
1.858e-10
7.212e-10
1.598e-10
6.847e-10
1.373e-10
6.521e-10
1.18e-10
6.232e-10
1.015e-10
5.978e-10
8.723e-11
5.754e-10
7.494e-11
5.56e-10
6.426e-11
5.392e-10
5.491e-11
5.248e-10
4.666e-11
5.125e-10
3.933e-11
5.022e-10
3.275e-11
4.937e-10
2.68e-11
4.87e-10
2.136e-11
4.818e-10
1.634e-11
4.781e-10
1.164e-11
4.759e-10
7.212e-12
4.75e-10
2.978e-12
4.755e-10
-1.115e-12
4.773e-10
-5.115e-12
4.804e-10
-9.065e-12
4.847e-10
-1.3e-11
4.904e-10
-1.697e-11
4.974e-10
-2.099e-11
5.058e-10
-2.508e-11
5.155e-10
-2.928e-11
5.266e-10
-3.36e-11
5.393e-10
-3.804e-11
5.534e-10
-4.262e-11
5.69e-10
-4.734e-11
5.862e-10
-5.218e-11
6.05e-10
-5.713e-11
6.255e-10
-6.217e-11
6.475e-10
-6.725e-11
6.713e-10
-7.233e-11
6.966e-10
-7.734e-11
7.235e-10
-8.223e-11
7.518e-10
-8.688e-11
7.816e-10
-9.121e-11
8.125e-10
-9.51e-11
8.445e-10
-9.843e-11
8.774e-10
-1.011e-10
9.107e-10
-1.028e-10
9.443e-10
-1.036e-10
9.778e-10
-1.033e-10
1.011e-09
-1.017e-10
1.043e-09
-9.87e-11
1.073e-09
-9.427e-11
1.102e-09
-8.834e-11
1.128e-09
-8.09e-11
1.151e-09
-7.2e-11
1.171e-09
-6.174e-11
1.187e-09
-5.029e-11
1.2e-09
-3.786e-11
1.208e-09
-2.473e-11
1.211e-09
-1.117e-11
1.211e-09
2.485e-12
1.206e-09
1.595e-11
1.196e-09
2.893e-11
1.183e-09
4.118e-11
1.166e-09
5.25e-11
1.146e-09
6.273e-11
1.123e-09
7.176e-11
1.097e-09
7.951e-11
1.07e-09
8.597e-11
1.04e-09
9.112e-11
1.01e-09
9.501e-11
9.779e-10
9.769e-11
9.457e-10
9.923e-11
9.133e-10
9.971e-11
8.811e-10
9.925e-11
8.491e-10
9.795e-11
8.179e-10
9.59e-11
7.874e-10
9.324e-11
7.579e-10
9.006e-11
7.296e-10
8.647e-11
7.025e-10
8.257e-11
6.767e-10
7.844e-11
6.523e-10
7.417e-11
6.292e-10
6.983e-11
6.076e-10
6.548e-11
5.873e-10
6.118e-11
5.684e-10
5.696e-11
5.508e-10
5.286e-11
5.346e-10
4.891e-11
5.195e-10
4.513e-11
5.056e-10
4.154e-11
4.928e-10
3.814e-11
4.811e-10
3.494e-11
4.704e-10
3.194e-11
4.606e-10
2.914e-11
4.516e-10
2.653e-11
4.435e-10
2.411e-11
4.361e-10
2.188e-11
4.293e-10
1.982e-11
4.232e-10
1.793e-11
4.177e-10
1.619e-11
4.127e-10
1.46e-11
4.083e-10
1.315e-11
4.042e-10
1.182e-11
4.006e-10
1.062e-11
3.973e-10
9.526e-12
3.943e-10
8.536e-12
3.917e-10
7.641e-12
3.893e-10
6.836e-12
3.872e-10
6.113e-12
3.853e-10
5.468e-12
3.836e-10
4.896e-12
3.821e-10
4.393e-12
3.807e-10
3.956e-12
3.794e-10
3.584e-12
3.783e-10
3.274e-12
3.773e-10
3.027e-12
3.763e-10
2.842e-12
3.754e-10
2.719e-12
3.746e-10
2.658e-12
3.738e-10
2.655e-12
3.73e-10
2.701e-12
3.722e-10
2.774e-12
2.831e-12
9.592e-10
1.079e-10
9.875e-10
2.479e-10
1.003e-09
3.191e-10
1e-09
3.414e-10
9.824e-10
3.345e-10
9.543e-10
3.122e-10
9.201e-10
2.832e-10
8.834e-10
2.525e-10
8.464e-10
2.228e-10
8.107e-10
1.955e-10
7.771e-10
1.708e-10
7.463e-10
1.489e-10
7.182e-10
1.295e-10
6.929e-10
1.125e-10
6.705e-10
9.743e-11
6.506e-10
8.411e-11
6.332e-10
7.229e-11
6.182e-10
6.172e-11
6.053e-10
5.222e-11
5.944e-10
4.362e-11
5.855e-10
3.576e-11
5.783e-10
2.853e-11
5.728e-10
2.181e-11
5.69e-10
1.549e-11
5.667e-10
9.504e-12
5.659e-10
3.758e-12
5.666e-10
-1.813e-12
5.687e-10
-7.27e-12
5.724e-10
-1.267e-11
5.774e-10
-1.806e-11
5.839e-10
-2.349e-11
5.919e-10
-2.899e-11
6.015e-10
-3.461e-11
6.125e-10
-4.036e-11
6.252e-10
-4.627e-11
6.395e-10
-5.235e-11
6.555e-10
-5.861e-11
6.732e-10
-6.506e-11
6.927e-10
-7.166e-11
7.14e-10
-7.841e-11
7.371e-10
-8.527e-11
7.62e-10
-9.219e-11
7.888e-10
-9.909e-11
8.174e-10
-1.059e-10
8.477e-10
-1.125e-10
8.796e-10
-1.188e-10
9.132e-10
-1.247e-10
9.48e-10
-1.3e-10
9.841e-10
-1.345e-10
1.021e-09
-1.38e-10
1.059e-09
-1.404e-10
1.097e-09
-1.415e-10
1.134e-09
-1.41e-10
1.171e-09
-1.388e-10
1.207e-09
-1.347e-10
1.242e-09
-1.287e-10
1.274e-09
-1.206e-10
1.304e-09
-1.105e-10
1.33e-09
-9.833e-11
1.353e-09
-8.435e-11
1.371e-09
-6.873e-11
1.385e-09
-5.178e-11
1.394e-09
-3.385e-11
1.398e-09
-1.536e-11
1.397e-09
3.275e-12
1.392e-09
2.164e-11
1.381e-09
3.935e-11
1.366e-09
5.606e-11
1.347e-09
7.15e-11
1.325e-09
8.545e-11
1.299e-09
9.778e-11
1.27e-09
1.084e-10
1.239e-09
1.172e-10
1.205e-09
1.243e-10
1.171e-09
1.296e-10
1.135e-09
1.333e-10
1.099e-09
1.355e-10
1.062e-09
1.362e-10
1.026e-09
1.356e-10
9.901e-10
1.339e-10
9.548e-10
1.312e-10
9.205e-10
1.276e-10
8.872e-10
1.233e-10
8.552e-10
1.185e-10
8.245e-10
1.132e-10
7.953e-10
1.076e-10
7.677e-10
1.018e-10
7.415e-10
9.595e-11
7.17e-10
9.003e-11
6.94e-10
8.418e-11
6.725e-10
7.843e-11
6.525e-10
7.284e-11
6.34e-10
6.745e-11
6.168e-10
6.229e-11
6.01e-10
5.737e-11
5.864e-10
5.272e-11
5.73e-10
4.834e-11
5.607e-10
4.422e-11
5.495e-10
4.038e-11
5.392e-10
3.68e-11
5.299e-10
3.348e-11
5.213e-10
3.04e-11
5.136e-10
2.757e-11
5.066e-10
2.495e-11
5.002e-10
2.256e-11
4.944e-10
2.036e-11
4.892e-10
1.835e-11
4.845e-10
1.652e-11
4.803e-10
1.485e-11
4.765e-10
1.334e-11
4.731e-10
1.196e-11
4.7e-10
1.072e-11
4.672e-10
9.596e-12
4.648e-10
8.589e-12
4.625e-10
7.689e-12
4.606e-10
6.888e-12
4.588e-10
6.181e-12
4.572e-10
5.565e-12
4.557e-10
5.034e-12
4.544e-10
4.587e-12
4.532e-10
4.222e-12
4.521e-10
3.937e-12
4.511e-10
3.73e-12
4.502e-10
3.6e-12
4.493e-10
3.539e-12
4.484e-10
3.536e-12
4.476e-10
3.571e-12
3.606e-12
9.536e-10
9.185e-11
9.795e-10
2.22e-10
9.995e-10
2.991e-10
1.007e-09
3.336e-10
1.003e-09
3.393e-10
9.875e-10
3.273e-10
9.652e-10
3.055e-10
9.384e-10
2.793e-10
9.094e-10
2.518e-10
8.798e-10
2.25e-10
8.51e-10
1.997e-10
8.235e-10
1.764e-10
7.979e-10
1.552e-10
7.743e-10
1.36e-10
7.53e-10
1.188e-10
7.338e-10
1.032e-10
7.169e-10
8.924e-11
7.02e-10
7.655e-11
6.893e-10
6.501e-11
6.784e-10
5.445e-11
6.694e-10
4.473e-11
6.623e-10
3.571e-11
6.568e-10
2.726e-11
6.53e-10
1.928e-11
6.509e-10
1.167e-11
6.503e-10
4.338e-12
6.513e-10
-2.794e-12
6.538e-10
-9.8e-12
6.579e-10
-1.675e-11
6.635e-10
-2.369e-11
6.707e-10
-3.07e-11
6.795e-10
-3.78e-11
6.9e-10
-4.505e-11
7.021e-10
-5.248e-11
7.159e-10
-6.011e-11
7.315e-10
-6.796e-11
7.49e-10
-7.604e-11
7.683e-10
-8.435e-11
7.895e-10
-9.286e-11
8.126e-10
-1.016e-10
8.377e-10
-1.104e-10
8.648e-10
-1.193e-10
8.939e-10
-1.282e-10
9.249e-10
-1.369e-10
9.578e-10
-1.455e-10
9.926e-10
-1.536e-10
1.029e-09
-1.611e-10
1.067e-09
-1.679e-10
1.106e-09
-1.737e-10
1.146e-09
-1.782e-10
1.187e-09
-1.813e-10
1.228e-09
-1.827e-10
1.269e-09
-1.821e-10
1.31e-09
-1.793e-10
1.349e-09
-1.741e-10
1.387e-09
-1.663e-10
1.422e-09
-1.559e-10
1.455e-09
-1.428e-10
1.483e-09
-1.272e-10
1.508e-09
-1.091e-10
1.528e-09
-8.896e-11
1.544e-09
-6.705e-11
1.554e-09
-4.387e-11
1.558e-09
-1.995e-11
1.557e-09
4.151e-12
1.551e-09
2.789e-11
1.54e-09
5.077e-11
1.524e-09
7.234e-11
1.503e-09
9.227e-11
1.478e-09
1.103e-10
1.45e-09
1.262e-10
1.418e-09
1.398e-10
1.384e-09
1.512e-10
1.348e-09
1.604e-10
1.31e-09
1.673e-10
1.271e-09
1.721e-10
1.232e-09
1.749e-10
1.192e-09
1.759e-10
1.153e-09
1.752e-10
1.114e-09
1.731e-10
1.075e-09
1.696e-10
1.038e-09
1.65e-10
1.002e-09
1.596e-10
9.667e-10
1.534e-10
9.333e-10
1.466e-10
9.015e-10
1.394e-10
8.714e-10
1.32e-10
8.429e-10
1.244e-10
8.161e-10
1.168e-10
7.91e-10
1.093e-10
7.676e-10
1.019e-10
7.457e-10
9.468e-11
7.255e-10
8.773e-11
7.067e-10
8.107e-11
6.893e-10
7.472e-11
6.733e-10
6.871e-11
6.586e-10
6.304e-11
6.452e-10
5.772e-11
6.328e-10
5.274e-11
6.215e-10
4.81e-11
6.112e-10
4.379e-11
6.018e-10
3.98e-11
5.932e-10
3.611e-11
5.855e-10
3.272e-11
5.784e-10
2.96e-11
5.72e-10
2.674e-11
5.663e-10
2.412e-11
5.611e-10
2.173e-11
5.564e-10
1.955e-11
5.521e-10
1.757e-11
5.483e-10
1.577e-11
5.449e-10
1.415e-11
5.418e-10
1.268e-11
5.39e-10
1.135e-11
5.366e-10
1.017e-11
5.343e-10
9.114e-12
5.323e-10
8.179e-12
5.305e-10
7.36e-12
5.289e-10
6.65e-12
5.275e-10
6.045e-12
5.261e-10
5.542e-12
5.249e-10
5.137e-12
5.239e-10
4.828e-12
5.228e-10
4.61e-12
5.219e-10
4.475e-12
5.21e-10
4.412e-12
5.202e-10
4.401e-12
4.411e-12
9.498e-10
7.958e-11
9.724e-10
1.994e-10
9.938e-10
2.777e-10
1.007e-09
3.199e-10
1.011e-09
3.353e-10
1.006e-09
3.323e-10
9.94e-10
3.179e-10
9.763e-10
2.97e-10
9.553e-10
2.729e-10
9.325e-10
2.478e-10
9.091e-10
2.231e-10
8.86e-10
1.994e-10
8.639e-10
1.773e-10
8.43e-10
1.569e-10
8.237e-10
1.38e-10
8.062e-10
1.208e-10
7.905e-10
1.05e-10
7.765e-10
9.046e-11
7.645e-10
7.71e-11
7.542e-10
6.475e-11
7.456e-10
5.327e-11
7.388e-10
4.253e-11
7.336e-10
3.24e-11
7.301e-10
2.278e-11
7.283e-10
1.355e-11
7.28e-10
4.622e-12
7.293e-10
-4.098e-12
7.322e-10
-1.269e-11
7.367e-10
-2.123e-11
7.428e-10
-2.979e-11
7.505e-10
-3.843e-11
7.599e-10
-4.72e-11
7.71e-10
-5.615e-11
7.838e-10
-6.533e-11
7.985e-10
-7.476e-11
8.15e-10
-8.447e-11
8.334e-10
-9.445e-11
8.538e-10
-1.047e-10
8.761e-10
-1.152e-10
9.006e-10
-1.26e-10
9.271e-10
-1.369e-10
9.556e-10
-1.479e-10
9.863e-10
-1.588e-10
1.019e-09
-1.697e-10
1.054e-09
-1.802e-10
1.09e-09
-1.902e-10
1.129e-09
-1.996e-10
1.169e-09
-2.08e-10
1.21e-09
-2.151e-10
1.253e-09
-2.208e-10
1.296e-09
-2.247e-10
1.34e-09
-2.264e-10
1.384e-09
-2.258e-10
1.427e-09
-2.224e-10
1.469e-09
-2.16e-10
1.509e-09
-2.065e-10
1.547e-09
-1.936e-10
1.581e-09
-1.775e-10
1.612e-09
-1.581e-10
1.639e-09
-1.357e-10
1.661e-09
-1.107e-10
1.677e-09
-8.343e-11
1.688e-09
-5.459e-11
1.693e-09
-2.483e-11
1.692e-09
5.141e-12
1.685e-09
3.464e-11
1.673e-09
6.304e-11
1.655e-09
8.98e-11
1.633e-09
1.145e-10
1.606e-09
1.368e-10
1.576e-09
1.564e-10
1.543e-09
1.733e-10
1.506e-09
1.874e-10
1.468e-09
1.987e-10
1.428e-09
2.073e-10
1.387e-09
2.133e-10
1.345e-09
2.168e-10
1.303e-09
2.18e-10
1.261e-09
2.172e-10
1.22e-09
2.145e-10
1.179e-09
2.103e-10
1.139e-09
2.046e-10
1.101e-09
1.979e-10
1.064e-09
1.903e-10
1.029e-09
1.819e-10
9.951e-10
1.731e-10
9.632e-10
1.639e-10
9.331e-10
1.545e-10
9.047e-10
1.452e-10
8.781e-10
1.359e-10
8.533e-10
1.267e-10
8.302e-10
1.178e-10
8.087e-10
1.092e-10
7.888e-10
1.01e-10
7.703e-10
9.313e-11
7.534e-10
8.569e-11
7.378e-10
7.866e-11
7.234e-10
7.206e-11
7.103e-10
6.589e-11
6.982e-10
6.013e-11
6.872e-10
5.478e-11
6.772e-10
4.982e-11
6.681e-10
4.524e-11
6.598e-10
4.102e-11
6.522e-10
3.713e-11
6.454e-10
3.357e-11
6.392e-10
3.031e-11
6.336e-10
2.732e-11
6.286e-10
2.46e-11
6.24e-10
2.213e-11
6.199e-10
1.988e-11
6.162e-10
1.784e-11
6.129e-10
1.6e-11
6.099e-10
1.434e-11
6.073e-10
1.285e-11
6.049e-10
1.152e-11
6.027e-10
1.033e-11
6.008e-10
9.294e-12
5.99e-10
8.387e-12
5.975e-10
7.608e-12
5.961e-10
6.951e-12
5.948e-10
6.411e-12
5.936e-10
5.985e-12
5.926e-10
5.665e-12
5.916e-10
5.445e-12
5.907e-10
5.312e-12
5.899e-10
5.249e-12
5.232e-12
9.472e-10
6.993e-11
9.668e-10
1.797e-10
9.878e-10
2.567e-10
1.004e-09
3.033e-10
1.014e-09
3.256e-10
1.016e-09
3.301e-10
1.012e-09
3.224e-10
1.002e-09
3.068e-10
9.884e-10
2.866e-10
9.721e-10
2.641e-10
9.544e-10
2.408e-10
9.361e-10
2.177e-10
9.179e-10
1.955e-10
9.004e-10
1.744e-10
8.838e-10
1.546e-10
8.685e-10
1.361e-10
8.545e-10
1.189e-10
8.421e-10
1.029e-10
8.311e-10
8.802e-11
8.218e-10
7.41e-11
8.14e-10
6.104e-11
8.078e-10
4.871e-11
8.032e-10
3.701e-11
8.002e-10
2.582e-11
7.987e-10
1.503e-11
7.988e-10
4.539e-12
8.005e-10
-5.745e-12
8.037e-10
-1.591e-11
8.085e-10
-2.605e-11
8.149e-10
-3.622e-11
8.23e-10
-4.651e-11
8.328e-10
-5.697e-11
8.443e-10
-6.765e-11
8.575e-10
-7.861e-11
8.727e-10
-8.988e-11
8.897e-10
-1.015e-10
9.086e-10
-1.134e-10
9.296e-10
-1.257e-10
9.526e-10
-1.382e-10
9.777e-10
-1.511e-10
1.005e-09
-1.641e-10
1.034e-09
-1.773e-10
1.066e-09
-1.904e-10
1.1e-09
-2.034e-10
1.135e-09
-2.16e-10
1.173e-09
-2.28e-10
1.213e-09
-2.392e-10
1.254e-09
-2.494e-10
1.297e-09
-2.58e-10
1.341e-09
-2.649e-10
1.386e-09
-2.697e-10
1.432e-09
-2.719e-10
1.477e-09
-2.712e-10
1.522e-09
-2.673e-10
1.566e-09
-2.598e-10
1.608e-09
-2.485e-10
1.648e-09
-2.333e-10
1.684e-09
-2.14e-10
1.717e-09
-1.907e-10
1.745e-09
-1.638e-10
1.768e-09
-1.336e-10
1.785e-09
-1.007e-10
1.796e-09
-6.585e-11
1.801e-09
-2.99e-11
1.8e-09
6.287e-12
1.793e-09
4.187e-11
1.78e-09
7.607e-11
1.762e-09
1.082e-10
1.738e-09
1.379e-10
1.71e-09
1.646e-10
1.679e-09
1.881e-10
1.644e-09
2.084e-10
1.606e-09
2.252e-10
1.566e-09
2.387e-10
1.524e-09
2.489e-10
1.481e-09
2.56e-10
1.438e-09
2.602e-10
1.394e-09
2.617e-10
1.351e-09
2.607e-10
1.308e-09
2.575e-10
1.266e-09
2.524e-10
1.225e-09
2.456e-10
1.185e-09
2.375e-10
1.147e-09
2.284e-10
1.111e-09
2.184e-10
1.076e-09
2.078e-10
1.043e-09
1.968e-10
1.012e-09
1.856e-10
9.826e-10
1.744e-10
9.551e-10
1.633e-10
9.295e-10
1.523e-10
9.056e-10
1.417e-10
8.834e-10
1.314e-10
8.629e-10
1.216e-10
8.439e-10
1.121e-10
8.263e-10
1.032e-10
8.102e-10
9.481e-11
7.953e-10
8.691e-11
7.817e-10
7.95e-11
7.692e-10
7.259e-11
7.579e-10
6.617e-11
7.475e-10
6.022e-11
7.38e-10
5.471e-11
7.294e-10
4.964e-11
7.215e-10
4.496e-11
7.144e-10
4.067e-11
7.08e-10
3.674e-11
7.022e-10
3.315e-11
6.969e-10
2.987e-11
6.921e-10
2.688e-11
6.879e-10
2.416e-11
6.84e-10
2.17e-11
6.805e-10
1.947e-11
6.774e-10
1.746e-11
6.746e-10
1.565e-11
6.721e-10
1.403e-11
6.698e-10
1.259e-11
6.678e-10
1.132e-11
6.66e-10
1.02e-11
6.644e-10
9.236e-12
6.629e-10
8.414e-12
6.616e-10
7.728e-12
6.604e-10
7.173e-12
6.593e-10
6.742e-12
6.583e-10
6.427e-12
6.574e-10
6.217e-12
6.566e-10
6.098e-12
6.053e-12
9.453e-10
6.21e-11
9.624e-10
1.626e-10
9.823e-10
2.368e-10
1e-09
2.854e-10
1.013e-09
3.125e-10
1.021e-09
3.228e-10
1.022e-09
3.207e-10
1.019e-09
3.101e-10
1.012e-09
2.939e-10
1.001e-09
2.743e-10
9.892e-10
2.531e-10
9.757e-10
2.312e-10
9.617e-10
2.095e-10
9.478e-10
1.883e-10
9.343e-10
1.681e-10
9.215e-10
1.489e-10
9.098e-10
1.307e-10
8.991e-10
1.136e-10
8.897e-10
9.743e-11
8.816e-10
8.219e-11
8.749e-10
6.776e-11
8.696e-10
5.403e-11
8.657e-10
4.09e-11
8.632e-10
2.826e-11
8.623e-10
1.601e-11
8.628e-10
4.045e-12
8.647e-10
-7.736e-12
8.683e-10
-1.942e-11
8.733e-10
-3.11e-11
8.799e-10
-4.286e-11
8.882e-10
-5.476e-11
8.981e-10
-6.689e-11
9.098e-10
-7.929e-11
9.232e-10
-9.201e-11
9.384e-10
-1.051e-10
9.555e-10
-1.186e-10
9.745e-10
-1.325e-10
9.956e-10
-1.467e-10
1.019e-09
-1.614e-10
1.044e-09
-1.763e-10
1.071e-09
-1.915e-10
1.101e-09
-2.069e-10
1.133e-09
-2.222e-10
1.167e-09
-2.373e-10
1.203e-09
-2.521e-10
1.241e-09
-2.662e-10
1.281e-09
-2.794e-10
1.323e-09
-2.913e-10
1.367e-09
-3.016e-10
1.411e-09
-3.098e-10
1.457e-09
-3.155e-10
1.504e-09
-3.184e-10
1.55e-09
-3.178e-10
1.596e-09
-3.135e-10
1.641e-09
-3.049e-10
1.685e-09
-2.919e-10
1.726e-09
-2.742e-10
1.764e-09
-2.517e-10
1.797e-09
-2.245e-10
1.827e-09
-1.929e-10
1.85e-09
-1.574e-10
1.868e-09
-1.186e-10
1.88e-09
-7.747e-11
1.885e-09
-3.504e-11
1.884e-09
7.646e-12
1.876e-09
4.955e-11
1.862e-09
8.975e-11
1.843e-09
1.275e-10
1.819e-09
1.622e-10
1.79e-09
1.934e-10
1.757e-09
2.208e-10
1.721e-09
2.444e-10
1.683e-09
2.639e-10
1.642e-09
2.796e-10
1.599e-09
2.915e-10
1.555e-09
2.997e-10
1.511e-09
3.045e-10
1.467e-09
3.061e-10
1.422e-09
3.049e-10
1.379e-09
3.011e-10
1.336e-09
2.951e-10
1.295e-09
2.872e-10
1.254e-09
2.777e-10
1.216e-09
2.67e-10
1.179e-09
2.553e-10
1.144e-09
2.429e-10
1.111e-09
2.301e-10
1.079e-09
2.17e-10
1.05e-09
2.039e-10
1.022e-09
1.909e-10
9.961e-10
1.782e-10
9.721e-10
1.658e-10
9.497e-10
1.538e-10
9.29e-10
1.423e-10
9.098e-10
1.313e-10
8.921e-10
1.209e-10
8.758e-10
1.111e-10
8.608e-10
1.019e-10
8.471e-10
9.324e-11
8.345e-10
8.518e-11
8.23e-10
7.768e-11
8.125e-10
7.073e-11
8.029e-10
6.43e-11
7.942e-10
5.836e-11
7.862e-10
5.29e-11
7.79e-10
4.788e-11
7.725e-10
4.328e-11
7.666e-10
3.906e-11
7.612e-10
3.522e-11
7.564e-10
3.171e-11
7.52e-10
2.852e-11
7.481e-10
2.563e-11
7.446e-10
2.301e-11
7.414e-10
2.064e-11
7.385e-10
1.851e-11
7.36e-10
1.66e-11
7.337e-10
1.489e-11
7.316e-10
1.338e-11
7.297e-10
1.205e-11
7.281e-10
1.089e-11
7.266e-10
9.893e-12
7.253e-10
9.054e-12
7.241e-10
8.364e-12
7.23e-10
7.815e-12
7.221e-10
7.4e-12
7.212e-10
7.11e-12
7.203e-10
6.933e-12
6.859e-12
9.44e-10
5.558e-11
9.59e-10
1.477e-10
9.776e-10
2.182e-10
9.958e-10
2.672e-10
1.011e-09
2.973e-10
1.022e-09
3.119e-10
1.028e-09
3.145e-10
1.03e-09
3.083e-10
1.028e-09
2.959e-10
1.023e-09
2.794e-10
1.016e-09
2.604e-10
1.007e-09
2.401e-10
9.969e-10
2.193e-10
9.866e-10
1.986e-10
9.763e-10
1.784e-10
9.664e-10
1.588e-10
9.57e-10
1.401e-10
9.484e-10
1.222e-10
9.407e-10
1.051e-10
9.341e-10
8.882e-11
9.286e-10
7.326e-11
9.243e-10
5.833e-11
9.212e-10
4.396e-11
9.194e-10
3.003e-11
9.19e-10
1.645e-11
9.199e-10
3.127e-12
9.222e-10
-1.004e-11
9.26e-10
-2.316e-11
9.311e-10
-3.63e-11
9.378e-10
-4.956e-11
9.461e-10
-6.301e-11
9.559e-10
-7.674e-11
9.674e-10
-9.079e-11
9.807e-10
-1.052e-10
9.957e-10
-1.201e-10
1.012e-09
-1.354e-10
1.031e-09
-1.512e-10
1.052e-09
-1.674e-10
1.075e-09
-1.841e-10
1.099e-09
-2.011e-10
1.126e-09
-2.185e-10
1.156e-09
-2.36e-10
1.187e-09
-2.535e-10
1.22e-09
-2.708e-10
1.256e-09
-2.877e-10
1.294e-09
-3.04e-10
1.334e-09
-3.192e-10
1.375e-09
-3.33e-10
1.419e-09
-3.449e-10
1.463e-09
-3.546e-10
1.509e-09
-3.614e-10
1.556e-09
-3.65e-10
1.603e-09
-3.647e-10
1.649e-09
-3.6e-10
1.695e-09
-3.506e-10
1.739e-09
-3.36e-10
1.781e-09
-3.159e-10
1.819e-09
-2.903e-10
1.854e-09
-2.591e-10
1.884e-09
-2.227e-10
1.908e-09
-1.817e-10
1.926e-09
-1.369e-10
1.938e-09
-8.925e-11
1.943e-09
-4.01e-11
1.942e-09
9.281e-12
1.933e-09
5.766e-11
1.919e-09
1.04e-10
1.899e-09
1.473e-10
1.874e-09
1.87e-10
1.845e-09
2.227e-10
1.812e-09
2.54e-10
1.776e-09
2.808e-10
1.737e-09
3.03e-10
1.695e-09
3.208e-10
1.653e-09
3.342e-10
1.609e-09
3.435e-10
1.564e-09
3.488e-10
1.52e-09
3.506e-10
1.476e-09
3.49e-10
1.432e-09
3.446e-10
1.39e-09
3.376e-10
1.348e-09
3.285e-10
1.309e-09
3.176e-10
1.27e-09
3.053e-10
1.234e-09
2.918e-10
1.199e-09
2.777e-10
1.166e-09
2.63e-10
1.135e-09
2.48e-10
1.106e-09
2.331e-10
1.079e-09
2.182e-10
1.053e-09
2.037e-10
1.029e-09
1.895e-10
1.007e-09
1.758e-10
9.87e-10
1.627e-10
9.681e-10
1.502e-10
9.507e-10
1.383e-10
9.346e-10
1.272e-10
9.199e-10
1.166e-10
9.063e-10
1.068e-10
8.939e-10
9.759e-11
8.826e-10
8.903e-11
8.722e-10
8.11e-11
8.627e-10
7.375e-11
8.541e-10
6.698e-11
8.463e-10
6.074e-11
8.392e-10
5.5e-11
8.327e-10
4.974e-11
8.268e-10
4.492e-11
8.215e-10
4.052e-11
8.167e-10
3.65e-11
8.124e-10
3.285e-11
8.085e-10
2.953e-11
8.05e-10
2.652e-11
8.018e-10
2.38e-11
7.99e-10
2.135e-11
7.965e-10
1.915e-11
7.942e-10
1.718e-11
7.921e-10
1.542e-11
7.903e-10
1.388e-11
7.887e-10
1.252e-11
7.872e-10
1.135e-11
7.859e-10
1.036e-11
7.847e-10
9.531e-12
7.837e-10
8.862e-12
7.827e-10
8.345e-12
7.819e-10
7.973e-12
7.811e-10
7.737e-12
7.634e-12
9.431e-10
5.003e-11
9.563e-10
1.344e-10
9.736e-10
2.009e-10
9.915e-10
2.492e-10
1.008e-09
2.809e-10
1.021e-09
2.986e-10
1.031e-09
3.049e-10
1.037e-09
3.024e-10
1.039e-09
2.934e-10
1.039e-09
2.799e-10
1.036e-09
2.633e-10
1.031e-09
2.448e-10
1.025e-09
2.253e-10
1.018e-09
2.054e-10
1.011e-09
1.855e-10
1.004e-09
1.66e-10
9.969e-10
1.47e-10
9.905e-10
1.287e-10
9.846e-10
1.109e-10
9.796e-10
9.388e-11
9.754e-10
7.743e-11
9.722e-10
6.153e-11
9.7e-10
4.611e-11
9.69e-10
3.107e-11
9.691e-10
1.634e-11
9.704e-10
1.802e-12
9.73e-10
-1.262e-11
9.769e-10
-2.703e-11
9.821e-10
-4.152e-11
9.887e-10
-5.617e-11
9.968e-10
-7.107e-11
1.006e-09
-8.629e-11
1.017e-09
-1.019e-10
1.03e-09
-1.18e-10
1.045e-09
-1.345e-10
1.061e-09
-1.516e-10
1.079e-09
-1.692e-10
1.099e-09
-1.873e-10
1.12e-09
-2.059e-10
1.144e-09
-2.25e-10
1.17e-09
-2.444e-10
1.198e-09
-2.64e-10
1.228e-09
-2.837e-10
1.261e-09
-3.032e-10
1.295e-09
-3.223e-10
1.332e-09
-3.406e-10
1.371e-09
-3.578e-10
1.411e-09
-3.735e-10
1.453e-09
-3.872e-10
1.497e-09
-3.984e-10
1.542e-09
-4.065e-10
1.588e-09
-4.109e-10
1.635e-09
-4.11e-10
1.681e-09
-4.062e-10
1.726e-09
-3.961e-10
1.77e-09