/*--------------------------------*- C++ -*----------------------------------*\
  =========                 |
  \\      /  F ield         | OpenFOAM: The Open Source CFD Toolbox
   \\    /   O peration     | Website:  https://openfoam.org
    \\  /    A nd           | Version:  7
     \\/     M anipulation  |
\*---------------------------------------------------------------------------*/
FoamFile
{
    version     2.0;
    format      ascii;
    class       volVectorField;
    location    "1739.99947342622772";
    object      U;
}
// * * * * * * * * * * * * * * * * * * * * * * * * * * * * * * * * * * * * * //

dimensions      [0 1 -1 0 0 0 0];

internalField   nonuniform List<vector> 
4096
(
(0.001039 0.0001611 0)
(0.0007463 0.0001314 0)
(0.0005302 8.473e-05 0)
(0.0003919 5.358e-05 0)
(0.0003036 3.466e-05 0)
(0.0002457 2.328e-05 0)
(0.0002061 1.633e-05 0)
(0.0001778 1.194e-05 0)
(0.0001568 9.057e-06 0)
(0.0001407 7.069e-06 0)
(0.000128 5.642e-06 0)
(0.0001177 4.579e-06 0)
(0.0001094 3.764e-06 0)
(0.0001025 3.122e-06 0)
(9.679e-05 2.605e-06 0)
(9.201e-05 2.181e-06 0)
(8.8e-05 1.827e-06 0)
(8.464e-05 1.528e-06 0)
(8.185e-05 1.27e-06 0)
(7.953e-05 1.046e-06 0)
(7.763e-05 8.486e-07 0)
(7.611e-05 6.715e-07 0)
(7.493e-05 5.109e-07 0)
(7.406e-05 3.63e-07 0)
(7.347e-05 2.25e-07 0)
(7.315e-05 9.43e-08 0)
(7.309e-05 -3.122e-08 0)
(7.327e-05 -1.534e-07 0)
(7.37e-05 -2.74e-07 0)
(7.437e-05 -3.942e-07 0)
(7.528e-05 -5.155e-07 0)
(7.643e-05 -6.389e-07 0)
(7.784e-05 -7.654e-07 0)
(7.95e-05 -8.957e-07 0)
(8.142e-05 -1.031e-06 0)
(8.362e-05 -1.171e-06 0)
(8.611e-05 -1.316e-06 0)
(8.889e-05 -1.467e-06 0)
(9.198e-05 -1.623e-06 0)
(9.539e-05 -1.784e-06 0)
(9.913e-05 -1.95e-06 0)
(0.0001032 -2.118e-06 0)
(0.0001076 -2.288e-06 0)
(0.0001123 -2.458e-06 0)
(0.0001174 -2.625e-06 0)
(0.0001228 -2.786e-06 0)
(0.0001286 -2.938e-06 0)
(0.0001346 -3.077e-06 0)
(0.0001409 -3.198e-06 0)
(0.0001473 -3.297e-06 0)
(0.000154 -3.369e-06 0)
(0.0001608 -3.408e-06 0)
(0.0001676 -3.409e-06 0)
(0.0001744 -3.368e-06 0)
(0.000181 -3.279e-06 0)
(0.0001874 -3.14e-06 0)
(0.0001935 -2.948e-06 0)
(0.0001992 -2.704e-06 0)
(0.0002043 -2.408e-06 0)
(0.0002088 -2.064e-06 0)
(0.0002125 -1.678e-06 0)
(0.0002155 -1.258e-06 0)
(0.0002175 -8.123e-07 0)
(0.0002187 -3.526e-07 0)
(0.0002189 1.103e-07 0)
(0.0002183 5.653e-07 0)
(0.0002167 1.002e-06 0)
(0.0002143 1.413e-06 0)
(0.0002111 1.789e-06 0)
(0.0002072 2.126e-06 0)
(0.0002026 2.42e-06 0)
(0.0001975 2.669e-06 0)
(0.000192 2.873e-06 0)
(0.0001861 3.032e-06 0)
(0.0001799 3.147e-06 0)
(0.0001735 3.222e-06 0)
(0.000167 3.258e-06 0)
(0.0001605 3.259e-06 0)
(0.000154 3.229e-06 0)
(0.0001476 3.171e-06 0)
(0.0001414 3.09e-06 0)
(0.0001353 2.99e-06 0)
(0.0001294 2.874e-06 0)
(0.0001238 2.746e-06 0)
(0.0001185 2.609e-06 0)
(0.0001134 2.466e-06 0)
(0.0001086 2.32e-06 0)
(0.0001041 2.174e-06 0)
(9.99e-05 2.028e-06 0)
(9.599e-05 1.885e-06 0)
(9.236e-05 1.746e-06 0)
(8.9e-05 1.612e-06 0)
(8.59e-05 1.484e-06 0)
(8.305e-05 1.363e-06 0)
(8.044e-05 1.248e-06 0)
(7.806e-05 1.14e-06 0)
(7.588e-05 1.039e-06 0)
(7.389e-05 9.447e-07 0)
(7.209e-05 8.574e-07 0)
(7.046e-05 7.767e-07 0)
(6.898e-05 7.023e-07 0)
(6.764e-05 6.339e-07 0)
(6.644e-05 5.711e-07 0)
(6.535e-05 5.138e-07 0)
(6.438e-05 4.614e-07 0)
(6.35e-05 4.138e-07 0)
(6.272e-05 3.705e-07 0)
(6.202e-05 3.312e-07 0)
(6.139e-05 2.956e-07 0)
(6.083e-05 2.635e-07 0)
(6.033e-05 2.346e-07 0)
(5.989e-05 2.086e-07 0)
(5.95e-05 1.854e-07 0)
(5.915e-05 1.646e-07 0)
(5.883e-05 1.462e-07 0)
(5.856e-05 1.301e-07 0)
(5.831e-05 1.161e-07 0)
(5.809e-05 1.042e-07 0)
(5.789e-05 9.449e-08 0)
(5.771e-05 8.693e-08 0)
(5.754e-05 8.177e-08 0)
(5.738e-05 7.94e-08 0)
(5.722e-05 8.051e-08 0)
(5.705e-05 8.644e-08 0)
(5.687e-05 9.967e-08 0)
(5.664e-05 1.244e-07 0)
(5.636e-05 1.652e-07 0)
(5.598e-05 2.147e-07 0)
(0.001209 0.0003128 0)
(0.001154 0.0003282 0)
(0.00101 0.000248 0)
(0.0008613 0.0001771 0)
(0.0007345 0.0001262 0)
(0.0006327 9.146e-05 0)
(0.0005525 6.79e-05 0)
(0.0004894 5.175e-05 0)
(0.0004393 4.04e-05 0)
(0.0003989 3.219e-05 0)
(0.0003661 2.607e-05 0)
(0.0003391 2.139e-05 0)
(0.0003167 1.772e-05 0)
(0.0002979 1.479e-05 0)
(0.0002822 1.24e-05 0)
(0.0002689 1.042e-05 0)
(0.0002578 8.763e-06 0)
(0.0002484 7.348e-06 0)
(0.0002405 6.125e-06 0)
(0.0002339 5.055e-06 0)
(0.0002286 4.108e-06 0)
(0.0002242 3.257e-06 0)
(0.0002209 2.483e-06 0)
(0.0002184 1.77e-06 0)
(0.0002167 1.103e-06 0)
(0.0002157 4.711e-07 0)
(0.0002155 -1.36e-07 0)
(0.000216 -7.269e-07 0)
(0.0002172 -1.309e-06 0)
(0.0002191 -1.89e-06 0)
(0.0002216 -2.474e-06 0)
(0.0002248 -3.068e-06 0)
(0.0002288 -3.675e-06 0)
(0.0002334 -4.3e-06 0)
(0.0002388 -4.945e-06 0)
(0.000245 -5.613e-06 0)
(0.0002519 -6.305e-06 0)
(0.0002597 -7.021e-06 0)
(0.0002683 -7.76e-06 0)
(0.0002777 -8.521e-06 0)
(0.0002881 -9.299e-06 0)
(0.0002994 -1.009e-05 0)
(0.0003115 -1.088e-05 0)
(0.0003246 -1.167e-05 0)
(0.0003385 -1.245e-05 0)
(0.0003534 -1.32e-05 0)
(0.000369 -1.389e-05 0)
(0.0003854 -1.453e-05 0)
(0.0004025 -1.508e-05 0)
(0.0004201 -1.553e-05 0)
(0.0004381 -1.584e-05 0)
(0.0004564 -1.6e-05 0)
(0.0004748 -1.598e-05 0)
(0.000493 -1.577e-05 0)
(0.0005108 -1.534e-05 0)
(0.0005279 -1.467e-05 0)
(0.0005442 -1.376e-05 0)
(0.0005593 -1.261e-05 0)
(0.0005729 -1.123e-05 0)
(0.0005848 -9.622e-06 0)
(0.0005947 -7.826e-06 0)
(0.0006026 -5.873e-06 0)
(0.0006081 -3.806e-06 0)
(0.0006113 -1.673e-06 0)
(0.000612 4.755e-07 0)
(0.0006103 2.59e-06 0)
(0.0006062 4.624e-06 0)
(0.0005998 6.538e-06 0)
(0.0005914 8.298e-06 0)
(0.0005811 9.88e-06 0)
(0.000569 1.127e-05 0)
(0.0005555 1.245e-05 0)
(0.0005407 1.342e-05 0)
(0.0005249 1.418e-05 0)
(0.0005083 1.474e-05 0)
(0.0004912 1.511e-05 0)
(0.0004738 1.53e-05 0)
(0.0004562 1.533e-05 0)
(0.0004386 1.521e-05 0)
(0.0004212 1.497e-05 0)
(0.0004042 1.461e-05 0)
(0.0003876 1.415e-05 0)
(0.0003715 1.363e-05 0)
(0.0003561 1.304e-05 0)
(0.0003414 1.241e-05 0)
(0.0003273 1.175e-05 0)
(0.0003141 1.107e-05 0)
(0.0003016 1.038e-05 0)
(0.00029 9.703e-06 0)
(0.000279 9.033e-06 0)
(0.0002689 8.38e-06 0)
(0.0002595 7.749e-06 0)
(0.0002508 7.144e-06 0)
(0.0002428 6.568e-06 0)
(0.0002354 6.023e-06 0)
(0.0002286 5.51e-06 0)
(0.0002225 5.029e-06 0)
(0.0002168 4.58e-06 0)
(0.0002117 4.163e-06 0)
(0.000207 3.777e-06 0)
(0.0002028 3.42e-06 0)
(0.0001989 3.091e-06 0)
(0.0001955 2.79e-06 0)
(0.0001923 2.513e-06 0)
(0.0001895 2.261e-06 0)
(0.000187 2.03e-06 0)
(0.0001847 1.821e-06 0)
(0.0001826 1.631e-06 0)
(0.0001808 1.458e-06 0)
(0.0001792 1.302e-06 0)
(0.0001777 1.162e-06 0)
(0.0001764 1.035e-06 0)
(0.0001752 9.215e-07 0)
(0.0001742 8.202e-07 0)
(0.0001732 7.303e-07 0)
(0.0001724 6.512e-07 0)
(0.0001717 5.826e-07 0)
(0.000171 5.24e-07 0)
(0.0001704 4.755e-07 0)
(0.0001698 4.375e-07 0)
(0.0001693 4.105e-07 0)
(0.0001689 3.959e-07 0)
(0.0001684 3.957e-07 0)
(0.0001679 4.136e-07 0)
(0.0001674 4.553e-07 0)
(0.0001669 5.286e-07 0)
(0.0001663 6.375e-07 0)
(0.0001657 7.512e-07 0)
(0.001226 0.0002775 0)
(0.001243 0.0004026 0)
(0.001194 0.0003664 0)
(0.001102 0.0002982 0)
(0.0009997 0.0002345 0)
(0.0009016 0.0001831 0)
(0.0008143 0.0001437 0)
(0.0007392 0.0001141 0)
(0.0006756 9.183e-05 0)
(0.0006219 7.48e-05 0)
(0.0005766 6.158e-05 0)
(0.0005383 5.116e-05 0)
(0.0005059 4.28e-05 0)
(0.0004783 3.599e-05 0)
(0.0004549 3.036e-05 0)
(0.000435 2.565e-05 0)
(0.0004181 2.165e-05 0)
(0.0004037 1.821e-05 0)
(0.0003916 1.522e-05 0)
(0.0003815 1.259e-05 0)
(0.0003732 1.025e-05 0)
(0.0003665 8.145e-06 0)
(0.0003613 6.221e-06 0)
(0.0003574 4.441e-06 0)
(0.0003547 2.775e-06 0)
(0.0003533 1.193e-06 0)
(0.0003529 -3.277e-07 0)
(0.0003537 -1.809e-06 0)
(0.0003556 -3.268e-06 0)
(0.0003585 -4.722e-06 0)
(0.0003625 -6.184e-06 0)
(0.0003676 -7.668e-06 0)
(0.0003737 -9.184e-06 0)
(0.000381 -1.074e-05 0)
(0.0003895 -1.235e-05 0)
(0.0003991 -1.4e-05 0)
(0.00041 -1.572e-05 0)
(0.0004221 -1.749e-05 0)
(0.0004355 -1.931e-05 0)
(0.0004503 -2.118e-05 0)
(0.0004664 -2.31e-05 0)
(0.0004839 -2.503e-05 0)
(0.0005027 -2.698e-05 0)
(0.000523 -2.89e-05 0)
(0.0005446 -3.079e-05 0)
(0.0005675 -3.259e-05 0)
(0.0005917 -3.428e-05 0)
(0.0006169 -3.581e-05 0)
(0.0006432 -3.712e-05 0)
(0.0006703 -3.818e-05 0)
(0.0006979 -3.891e-05 0)
(0.000726 -3.926e-05 0)
(0.0007541 -3.918e-05 0)
(0.0007819 -3.862e-05 0)
(0.0008092 -3.752e-05 0)
(0.0008354 -3.587e-05 0)
(0.0008602 -3.363e-05 0)
(0.0008832 -3.08e-05 0)
(0.0009039 -2.741e-05 0)
(0.0009221 -2.35e-05 0)
(0.0009373 -1.912e-05 0)
(0.0009493 -1.436e-05 0)
(0.0009577 -9.335e-06 0)
(0.0009626 -4.146e-06 0)
(0.0009638 1.082e-06 0)
(0.0009612 6.23e-06 0)
(0.0009551 1.119e-05 0)
(0.0009455 1.586e-05 0)
(0.0009328 2.017e-05 0)
(0.0009171 2.405e-05 0)
(0.0008988 2.746e-05 0)
(0.0008782 3.038e-05 0)
(0.0008557 3.279e-05 0)
(0.0008316 3.469e-05 0)
(0.0008063 3.611e-05 0)
(0.0007801 3.706e-05 0)
(0.0007533 3.757e-05 0)
(0.0007263 3.768e-05 0)
(0.0006993 3.744e-05 0)
(0.0006725 3.687e-05 0)
(0.0006463 3.603e-05 0)
(0.0006206 3.496e-05 0)
(0.0005958 3.369e-05 0)
(0.0005719 3.228e-05 0)
(0.0005491 3.076e-05 0)
(0.0005273 2.915e-05 0)
(0.0005067 2.751e-05 0)
(0.0004873 2.584e-05 0)
(0.0004691 2.417e-05 0)
(0.000452 2.253e-05 0)
(0.0004361 2.093e-05 0)
(0.0004213 1.938e-05 0)
(0.0004077 1.789e-05 0)
(0.000395 1.647e-05 0)
(0.0003834 1.512e-05 0)
(0.0003727 1.385e-05 0)
(0.000363 1.265e-05 0)
(0.000354 1.154e-05 0)
(0.0003459 1.05e-05 0)
(0.0003384 9.538e-06 0)
(0.0003317 8.648e-06 0)
(0.0003256 7.827e-06 0)
(0.00032 7.072e-06 0)
(0.000315 6.38e-06 0)
(0.0003105 5.747e-06 0)
(0.0003064 5.169e-06 0)
(0.0003027 4.642e-06 0)
(0.0002994 4.163e-06 0)
(0.0002964 3.728e-06 0)
(0.0002938 3.335e-06 0)
(0.0002914 2.979e-06 0)
(0.0002893 2.659e-06 0)
(0.0002874 2.372e-06 0)
(0.0002857 2.115e-06 0)
(0.0002841 1.886e-06 0)
(0.0002828 1.685e-06 0)
(0.0002816 1.51e-06 0)
(0.0002805 1.359e-06 0)
(0.0002795 1.234e-06 0)
(0.0002786 1.134e-06 0)
(0.0002777 1.06e-06 0)
(0.0002769 1.014e-06 0)
(0.0002762 9.999e-07 0)
(0.0002755 1.021e-06 0)
(0.0002747 1.082e-06 0)
(0.000274 1.188e-06 0)
(0.0002732 1.329e-06 0)
(0.0002724 1.453e-06 0)
(0.001224 0.0002275 0)
(0.00126 0.0004003 0)
(0.001258 0.0004193 0)
(0.001216 0.0003789 0)
(0.001149 0.0003229 0)
(0.001073 0.0002686 0)
(0.0009974 0.0002215 0)
(0.0009261 0.0001828 0)
(0.0008616 0.0001514 0)
(0.0008044 0.0001261 0)
(0.0007543 0.0001057 0)
(0.0007106 8.9e-05 0)
(0.0006727 7.528e-05 0)
(0.0006399 6.385e-05 0)
(0.0006116 5.425e-05 0)
(0.0005872 4.609e-05 0)
(0.0005662 3.909e-05 0)
(0.0005483 3.301e-05 0)
(0.0005331 2.768e-05 0)
(0.0005204 2.296e-05 0)
(0.0005099 1.874e-05 0)
(0.0005013 1.491e-05 0)
(0.0004946 1.14e-05 0)
(0.0004897 8.138e-06 0)
(0.0004863 5.078e-06 0)
(0.0004845 2.167e-06 0)
(0.0004842 -6.366e-07 0)
(0.0004852 -3.37e-06 0)
(0.0004877 -6.064e-06 0)
(0.0004916 -8.749e-06 0)
(0.0004969 -1.145e-05 0)
(0.0005036 -1.419e-05 0)
(0.0005118 -1.698e-05 0)
(0.0005214 -1.985e-05 0)
(0.0005325 -2.28e-05 0)
(0.0005452 -2.584e-05 0)
(0.0005594 -2.898e-05 0)
(0.0005753 -3.222e-05 0)
(0.0005928 -3.556e-05 0)
(0.0006121 -3.897e-05 0)
(0.0006332 -4.245e-05 0)
(0.000656 -4.597e-05 0)
(0.0006805 -4.949e-05 0)
(0.0007069 -5.298e-05 0)
(0.000735 -5.638e-05 0)
(0.0007647 -5.964e-05 0)
(0.000796 -6.267e-05 0)
(0.0008287 -6.54e-05 0)
(0.0008626 -6.775e-05 0)
(0.0008976 -6.961e-05 0)
(0.0009334 -7.089e-05 0)
(0.0009695 -7.148e-05 0)
(0.001006 -7.129e-05 0)
(0.001042 -7.022e-05 0)
(0.001077 -6.819e-05 0)
(0.00111 -6.515e-05 0)
(0.001142 -6.106e-05 0)
(0.001172 -5.592e-05 0)
(0.001199 -4.976e-05 0)
(0.001222 -4.266e-05 0)
(0.001242 -3.473e-05 0)
(0.001257 -2.612e-05 0)
(0.001268 -1.701e-05 0)
(0.001274 -7.62e-06 0)
(0.001276 1.846e-06 0)
(0.001273 1.117e-05 0)
(0.001265 2.016e-05 0)
(0.001253 2.864e-05 0)
(0.001236 3.647e-05 0)
(0.001216 4.353e-05 0)
(0.001193 4.975e-05 0)
(0.001166 5.508e-05 0)
(0.001137 5.95e-05 0)
(0.001106 6.302e-05 0)
(0.001074 6.565e-05 0)
(0.00104 6.743e-05 0)
(0.001006 6.843e-05 0)
(0.0009708 6.87e-05 0)
(0.0009359 6.831e-05 0)
(0.0009013 6.734e-05 0)
(0.0008673 6.587e-05 0)
(0.0008341 6.397e-05 0)
(0.0008018 6.172e-05 0)
(0.0007708 5.919e-05 0)
(0.000741 5.645e-05 0)
(0.0007127 5.357e-05 0)
(0.0006858 5.059e-05 0)
(0.0006604 4.757e-05 0)
(0.0006365 4.455e-05 0)
(0.0006142 4.157e-05 0)
(0.0005933 3.865e-05 0)
(0.0005739 3.583e-05 0)
(0.0005559 3.311e-05 0)
(0.0005392 3.051e-05 0)
(0.0005239 2.804e-05 0)
(0.0005098 2.571e-05 0)
(0.0004968 2.352e-05 0)
(0.0004849 2.147e-05 0)
(0.0004741 1.956e-05 0)
(0.0004642 1.779e-05 0)
(0.0004552 1.615e-05 0)
(0.0004471 1.463e-05 0)
(0.0004396 1.323e-05 0)
(0.0004329 1.195e-05 0)
(0.0004268 1.078e-05 0)
(0.0004214 9.707e-06 0)
(0.0004164 8.728e-06 0)
(0.0004119 7.837e-06 0)
(0.0004079 7.028e-06 0)
(0.0004043 6.294e-06 0)
(0.0004011 5.631e-06 0)
(0.0003982 5.033e-06 0)
(0.0003956 4.495e-06 0)
(0.0003933 4.013e-06 0)
(0.0003912 3.585e-06 0)
(0.0003894 3.206e-06 0)
(0.0003877 2.875e-06 0)
(0.0003862 2.59e-06 0)
(0.0003849 2.349e-06 0)
(0.0003836 2.154e-06 0)
(0.0003825 2.005e-06 0)
(0.0003814 1.903e-06 0)
(0.0003805 1.851e-06 0)
(0.0003795 1.852e-06 0)
(0.0003786 1.908e-06 0)
(0.0003777 2.015e-06 0)
(0.0003768 2.153e-06 0)
(0.0003759 2.262e-06 0)
(0.001219 0.0001846 0)
(0.001255 0.0003713 0)
(0.001275 0.0004301 0)
(0.001265 0.000421 0)
(0.001229 0.0003828 0)
(0.001178 0.0003355 0)
(0.00112 0.0002887 0)
(0.00106 0.0002465 0)
(0.001003 0.0002099 0)
(0.0009489 0.0001787 0)
(0.0008998 0.0001524 0)
(0.0008556 0.0001302 0)
(0.0008162 0.0001114 0)
(0.0007814 9.536e-05 0)
(0.0007508 8.165e-05 0)
(0.0007241 6.982e-05 0)
(0.0007009 5.952e-05 0)
(0.0006809 5.048e-05 0)
(0.0006638 4.249e-05 0)
(0.0006494 3.534e-05 0)
(0.0006374 2.89e-05 0)
(0.0006277 2.302e-05 0)
(0.00062 1.76e-05 0)
(0.0006144 1.256e-05 0)
(0.0006106 7.797e-06 0)
(0.0006086 3.256e-06 0)
(0.0006083 -1.127e-06 0)
(0.0006098 -5.408e-06 0)
(0.0006129 -9.633e-06 0)
(0.0006177 -1.385e-05 0)
(0.0006241 -1.808e-05 0)
(0.0006322 -2.238e-05 0)
(0.000642 -2.676e-05 0)
(0.0006536 -3.125e-05 0)
(0.000667 -3.587e-05 0)
(0.0006822 -4.063e-05 0)
(0.0006993 -4.553e-05 0)
(0.0007183 -5.059e-05 0)
(0.0007393 -5.578e-05 0)
(0.0007624 -6.109e-05 0)
(0.0007875 -6.649e-05 0)
(0.0008147 -7.195e-05 0)
(0.000844 -7.74e-05 0)
(0.0008754 -8.28e-05 0)
(0.0009088 -8.804e-05 0)
(0.0009442 -9.306e-05 0)
(0.0009814 -9.772e-05 0)
(0.00102 -0.0001019 0)
(0.001061 -0.0001055 0)
(0.001102 -0.0001083 0)
(0.001144 -0.0001103 0)
(0.001187 -0.0001111 0)
(0.00123 -0.0001108 0)
(0.001273 -0.0001091 0)
(0.001314 -0.0001059 0)
(0.001354 -0.0001012 0)
(0.001392 -9.479e-05 0)
(0.001427 -8.68e-05 0)
(0.001459 -7.725e-05 0)
(0.001486 -6.623e-05 0)
(0.00151 -5.394e-05 0)
(0.001528 -4.06e-05 0)
(0.001541 -2.65e-05 0)
(0.001548 -1.195e-05 0)
(0.00155 2.72e-06 0)
(0.001547 1.717e-05 0)
(0.001537 3.111e-05 0)
(0.001523 4.426e-05 0)
(0.001504 5.641e-05 0)
(0.00148 6.738e-05 0)
(0.001452 7.706e-05 0)
(0.001421 8.537e-05 0)
(0.001387 9.228e-05 0)
(0.00135 9.779e-05 0)
(0.001312 0.0001019 0)
(0.001272 0.0001048 0)
(0.001231 0.0001064 0)
(0.00119 0.0001069 0)
(0.001148 0.0001064 0)
(0.001107 0.000105 0)
(0.001067 0.0001027 0)
(0.001027 9.985e-05 0)
(0.000989 9.642e-05 0)
(0.000952 9.254e-05 0)
(0.0009165 8.834e-05 0)
(0.0008827 8.39e-05 0)
(0.0008505 7.93e-05 0)
(0.0008201 7.464e-05 0)
(0.0007915 6.997e-05 0)
(0.0007647 6.534e-05 0)
(0.0007397 6.081e-05 0)
(0.0007163 5.642e-05 0)
(0.0006947 5.218e-05 0)
(0.0006746 4.813e-05 0)
(0.0006561 4.428e-05 0)
(0.000639 4.064e-05 0)
(0.0006233 3.722e-05 0)
(0.000609 3.401e-05 0)
(0.0005958 3.101e-05 0)
(0.0005838 2.823e-05 0)
(0.0005729 2.565e-05 0)
(0.0005629 2.326e-05 0)
(0.0005539 2.107e-05 0)
(0.0005457 1.905e-05 0)
(0.0005382 1.719e-05 0)
(0.0005315 1.55e-05 0)
(0.0005254 1.395e-05 0)
(0.00052 1.254e-05 0)
(0.000515 1.126e-05 0)
(0.0005106 1.009e-05 0)
(0.0005066 9.041e-06 0)
(0.000503 8.09e-06 0)
(0.0004998 7.234e-06 0)
(0.000497 6.467e-06 0)
(0.0004944 5.782e-06 0)
(0.0004921 5.176e-06 0)
(0.00049 4.643e-06 0)
(0.0004882 4.182e-06 0)
(0.0004865 3.79e-06 0)
(0.000485 3.466e-06 0)
(0.0004836 3.211e-06 0)
(0.0004823 3.024e-06 0)
(0.0004811 2.907e-06 0)
(0.00048 2.86e-06 0)
(0.0004789 2.881e-06 0)
(0.0004779 2.959e-06 0)
(0.0004769 3.071e-06 0)
(0.000476 3.157e-06 0)
(0.001214 0.000152 0)
(0.001246 0.0003354 0)
(0.001274 0.0004182 0)
(0.001282 0.0004354 0)
(0.001269 0.0004168 0)
(0.001239 0.0003816 0)
(0.0012 0.0003406 0)
(0.001154 0.0002997 0)
(0.001107 0.0002616 0)
(0.001061 0.0002273 0)
(0.001016 0.0001972 0)
(0.000975 0.0001708 0)
(0.0009372 0.0001478 0)
(0.0009031 0.0001278 0)
(0.0008726 0.0001103 0)
(0.0008455 9.496e-05 0)
(0.0008217 8.14e-05 0)
(0.0008009 6.936e-05 0)
(0.000783 5.859e-05 0)
(0.0007678 4.888e-05 0)
(0.0007551 4.004e-05 0)
(0.0007448 3.193e-05 0)
(0.0007367 2.441e-05 0)
(0.0007307 1.737e-05 0)
(0.0007268 1.07e-05 0)
(0.0007248 4.31e-06 0)
(0.0007248 -1.874e-06 0)
(0.0007266 -7.926e-06 0)
(0.0007303 -1.391e-05 0)
(0.0007358 -1.988e-05 0)
(0.0007433 -2.589e-05 0)
(0.0007526 -3.199e-05 0)
(0.0007638 -3.82e-05 0)
(0.000777 -4.457e-05 0)
(0.0007922 -5.111e-05 0)
(0.0008094 -5.785e-05 0)
(0.0008288 -6.479e-05 0)
(0.0008504 -7.193e-05 0)
(0.0008742 -7.926e-05 0)
(0.0009003 -8.675e-05 0)
(0.0009287 -9.436e-05 0)
(0.0009594 -0.000102 0)
(0.0009925 -0.0001097 0)
(0.001028 -0.0001173 0)
(0.001066 -0.0001246 0)
(0.001105 -0.0001317 0)
(0.001147 -0.0001382 0)
(0.001191 -0.0001441 0)
(0.001237 -0.0001491 0)
(0.001283 -0.000153 0)
(0.001331 -0.0001557 0)
(0.001379 -0.0001569 0)
(0.001428 -0.0001563 0)
(0.001476 -0.0001539 0)
(0.001522 -0.0001494 0)
(0.001567 -0.0001427 0)
(0.00161 -0.0001337 0)
(0.00165 -0.0001225 0)
(0.001685 -0.000109 0)
(0.001717 -9.349e-05 0)
(0.001743 -7.617e-05 0)
(0.001764 -5.737e-05 0)
(0.001779 -3.749e-05 0)
(0.001787 -1.698e-05 0)
(0.001789 3.687e-06 0)
(0.001785 2.406e-05 0)
(0.001775 4.37e-05 0)
(0.001759 6.224e-05 0)
(0.001737 7.936e-05 0)
(0.00171 9.484e-05 0)
(0.001679 0.0001085 0)
(0.001644 0.0001202 0)
(0.001605 0.00013 0)
(0.001564 0.0001378 0)
(0.001521 0.0001438 0)
(0.001476 0.0001478 0)
(0.00143 0.0001502 0)
(0.001383 0.000151 0)
(0.001337 0.0001503 0)
(0.00129 0.0001484 0)
(0.001245 0.0001453 0)
(0.0012 0.0001414 0)
(0.001157 0.0001366 0)
(0.001115 0.0001312 0)
(0.001075 0.0001253 0)
(0.001037 0.0001191 0)
(0.001 0.0001126 0)
(0.0009659 0.0001061 0)
(0.0009335 9.953e-05 0)
(0.000903 9.303e-05 0)
(0.0008746 8.665e-05 0)
(0.000848 8.045e-05 0)
(0.0008234 7.447e-05 0)
(0.0008005 6.875e-05 0)
(0.0007794 6.33e-05 0)
(0.00076 5.815e-05 0)
(0.000742 5.329e-05 0)
(0.0007256 4.874e-05 0)
(0.0007105 4.449e-05 0)
(0.0006968 4.053e-05 0)
(0.0006842 3.686e-05 0)
(0.0006728 3.346e-05 0)
(0.0006624 3.033e-05 0)
(0.0006529 2.745e-05 0)
(0.0006443 2.48e-05 0)
(0.0006366 2.238e-05 0)
(0.0006296 2.016e-05 0)
(0.0006232 1.814e-05 0)
(0.0006175 1.63e-05 0)
(0.0006124 1.463e-05 0)
(0.0006077 1.312e-05 0)
(0.0006036 1.175e-05 0)
(0.0005998 1.052e-05 0)
(0.0005965 9.41e-06 0)
(0.0005935 8.42e-06 0)
(0.0005908 7.542e-06 0)
(0.0005884 6.768e-06 0)
(0.0005862 6.094e-06 0)
(0.0005842 5.516e-06 0)
(0.0005825 5.031e-06 0)
(0.0005809 4.639e-06 0)
(0.0005794 4.339e-06 0)
(0.000578 4.128e-06 0)
(0.0005768 4.005e-06 0)
(0.0005756 3.964e-06 0)
(0.0005745 3.992e-06 0)
(0.0005735 4.06e-06 0)
(0.0005725 4.12e-06 0)
(0.00121 0.0001279 0)
(0.001237 0.0003007 0)
(0.001267 0.0003956 0)
(0.001284 0.000432 0)
(0.001286 0.0004312 0)
(0.001274 0.0004092 0)
(0.00125 0.0003768 0)
(0.001218 0.0003404 0)
(0.001183 0.0003038 0)
(0.001145 0.0002691 0)
(0.001108 0.0002371 0)
(0.001072 0.0002082 0)
(0.001038 0.0001822 0)
(0.001006 0.000159 0)
(0.0009775 0.0001384 0)
(0.0009515 0.0001199 0)
(0.0009284 0.0001034 0)
(0.0009081 8.849e-05 0)
(0.0008904 7.503e-05 0)
(0.0008753 6.277e-05 0)
(0.0008626 5.152e-05 0)
(0.0008523 4.111e-05 0)
(0.0008442 3.14e-05 0)
(0.0008383 2.226e-05 0)
(0.0008345 1.355e-05 0)
(0.0008328 5.181e-06 0)
(0.000833 -2.949e-06 0)
(0.0008353 -1.092e-05 0)
(0.0008395 -1.883e-05 0)
(0.0008457 -2.672e-05 0)
(0.0008539 -3.468e-05 0)
(0.0008642 -4.275e-05 0)
(0.0008765 -5.098e-05 0)
(0.0008909 -5.942e-05 0)
(0.0009075 -6.808e-05 0)
(0.0009264 -7.7e-05 0)
(0.0009475 -8.618e-05 0)
(0.000971 -9.562e-05 0)
(0.0009969 -0.0001053 0)
(0.001025 -0.0001152 0)
(0.001056 -0.0001252 0)
(0.00109 -0.0001353 0)
(0.001126 -0.0001454 0)
(0.001164 -0.0001554 0)
(0.001205 -0.0001651 0)
(0.001248 -0.0001743 0)
(0.001294 -0.0001829 0)
(0.001341 -0.0001906 0)
(0.001391 -0.0001972 0)
(0.001441 -0.0002024 0)
(0.001493 -0.0002059 0)
(0.001546 -0.0002075 0)
(0.001599 -0.0002068 0)
(0.001651 -0.0002036 0)
(0.001702 -0.0001976 0)
(0.001751 -0.0001888 0)
(0.001798 -0.000177 0)
(0.001841 -0.0001621 0)
(0.00188 -0.0001443 0)
(0.001915 -0.0001238 0)
(0.001943 -0.0001009 0)
(0.001966 -7.605e-05 0)
(0.001982 -4.974e-05 0)
(0.001992 -2.26e-05 0)
(0.001994 4.753e-06 0)
(0.00199 3.17e-05 0)
(0.001978 5.767e-05 0)
(0.001961 8.218e-05 0)
(0.001937 0.0001048 0)
(0.001908 0.0001253 0)
(0.001874 0.0001433 0)
(0.001835 0.0001588 0)
(0.001793 0.0001718 0)
(0.001748 0.0001822 0)
(0.001701 0.00019 0)
(0.001652 0.0001955 0)
(0.001602 0.0001987 0)
(0.001552 0.0001998 0)
(0.001501 0.000199 0)
(0.00145 0.0001965 0)
(0.001401 0.0001925 0)
(0.001352 0.0001873 0)
(0.001305 0.0001811 0)
(0.00126 0.000174 0)
(0.001216 0.0001663 0)
(0.001174 0.0001581 0)
(0.001135 0.0001497 0)
(0.001097 0.000141 0)
(0.001062 0.0001324 0)
(0.001029 0.0001238 0)
(0.0009975 0.0001154 0)
(0.0009685 0.0001072 0)
(0.0009416 9.932e-05 0)
(0.0009166 9.175e-05 0)
(0.0008935 8.454e-05 0)
(0.0008721 7.772e-05 0)
(0.0008525 7.128e-05 0)
(0.0008344 6.524e-05 0)
(0.0008179 5.959e-05 0)
(0.0008027 5.433e-05 0)
(0.0007889 4.945e-05 0)
(0.0007763 4.493e-05 0)
(0.0007648 4.075e-05 0)
(0.0007544 3.691e-05 0)
(0.0007449 3.338e-05 0)
(0.0007363 3.014e-05 0)
(0.0007285 2.718e-05 0)
(0.0007215 2.448e-05 0)
(0.0007152 2.202e-05 0)
(0.0007094 1.978e-05 0)
(0.0007043 1.775e-05 0)
(0.0006996 1.591e-05 0)
(0.0006955 1.425e-05 0)
(0.0006917 1.276e-05 0)
(0.0006884 1.143e-05 0)
(0.0006854 1.024e-05 0)
(0.0006827 9.191e-06 0)
(0.0006802 8.272e-06 0)
(0.0006781 7.478e-06 0)
(0.0006761 6.804e-06 0)
(0.0006743 6.249e-06 0)
(0.0006727 5.808e-06 0)
(0.0006712 5.478e-06 0)
(0.0006699 5.254e-06 0)
(0.0006686 5.129e-06 0)
(0.0006675 5.087e-06 0)
(0.0006664 5.102e-06 0)
(0.0006653 5.131e-06 0)
(0.001208 0.0001097 0)
(0.00123 0.0002697 0)
(0.001258 0.0003691 0)
(0.001281 0.0004183 0)
(0.001292 0.0004317 0)
(0.001291 0.0004221 0)
(0.00128 0.000399 0)
(0.001261 0.0003688 0)
(0.001236 0.0003358 0)
(0.001208 0.0003026 0)
(0.001179 0.0002705 0)
(0.001149 0.0002405 0)
(0.00112 0.0002128 0)
(0.001092 0.0001875 0)
(0.001067 0.0001644 0)
(0.001043 0.0001434 0)
(0.001022 0.0001243 0)
(0.001003 0.0001069 0)
(0.0009862 9.095e-05 0)
(0.0009719 7.629e-05 0)
(0.0009599 6.272e-05 0)
(0.00095 5.007e-05 0)
(0.0009424 3.818e-05 0)
(0.0009368 2.692e-05 0)
(0.0009334 1.614e-05 0)
(0.000932 5.734e-06 0)
(0.0009326 -4.411e-06 0)
(0.0009353 -1.439e-05 0)
(0.0009401 -2.431e-05 0)
(0.0009468 -3.423e-05 0)
(0.0009557 -4.424e-05 0)
(0.0009666 -5.44e-05 0)
(0.0009797 -6.477e-05 0)
(0.0009951 -7.54e-05 0)
(0.001013 -8.632e-05 0)
(0.001033 -9.755e-05 0)
(0.001055 -0.0001091 0)
(0.00108 -0.000121 0)
(0.001107 -0.0001332 0)
(0.001137 -0.0001456 0)
(0.00117 -0.0001583 0)
(0.001205 -0.000171 0)
(0.001243 -0.0001837 0)
(0.001283 -0.0001962 0)
(0.001327 -0.0002084 0)
(0.001372 -0.00022 0)
(0.00142 -0.0002308 0)
(0.001471 -0.0002405 0)
(0.001523 -0.0002488 0)
(0.001577 -0.0002554 0)
(0.001632 -0.0002598 0)
(0.001687 -0.0002618 0)
(0.001743 -0.000261 0)
(0.001799 -0.000257 0)
(0.001853 -0.0002496 0)
(0.001906 -0.0002386 0)
(0.001956 -0.0002237 0)
(0.002002 -0.000205 0)
(0.002044 -0.0001826 0)
(0.002081 -0.0001567 0)
(0.002112 -0.0001278 0)
(0.002136 -9.631e-05 0)
(0.002153 -6.301e-05 0)
(0.002163 -2.866e-05 0)
(0.002166 5.947e-06 0)
(0.002161 4.002e-05 0)
(0.002149 7.284e-05 0)
(0.00213 0.0001038 0)
(0.002104 0.0001323 0)
(0.002073 0.0001581 0)
(0.002037 0.0001809 0)
(0.001996 0.0002004 0)
(0.001951 0.0002167 0)
(0.001904 0.0002298 0)
(0.001853 0.0002397 0)
(0.001802 0.0002466 0)
(0.001748 0.0002507 0)
(0.001695 0.0002521 0)
(0.001641 0.0002511 0)
(0.001588 0.000248 0)
(0.001535 0.0002431 0)
(0.001484 0.0002366 0)
(0.001434 0.0002288 0)
(0.001386 0.0002199 0)
(0.001339 0.0002102 0)
(0.001295 0.0002 0)
(0.001253 0.0001894 0)
(0.001214 0.0001785 0)
(0.001176 0.0001677 0)
(0.001141 0.0001569 0)
(0.001108 0.0001463 0)
(0.001077 0.000136 0)
(0.001049 0.000126 0)
(0.001022 0.0001165 0)
(0.0009978 0.0001074 0)
(0.0009752 9.881e-05 0)
(0.0009543 9.069e-05 0)
(0.0009351 8.306e-05 0)
(0.0009175 7.592e-05 0)
(0.0009014 6.927e-05 0)
(0.0008867 6.308e-05 0)
(0.0008732 5.736e-05 0)
(0.000861 5.207e-05 0)
(0.0008498 4.719e-05 0)
(0.0008397 4.271e-05 0)
(0.0008305 3.86e-05 0)
(0.0008222 3.483e-05 0)
(0.0008146 3.139e-05 0)
(0.0008078 2.826e-05 0)
(0.0008017 2.541e-05 0)
(0.0007961 2.282e-05 0)
(0.0007912 2.047e-05 0)
(0.0007867 1.835e-05 0)
(0.0007826 1.644e-05 0)
(0.000779 1.473e-05 0)
(0.0007758 1.32e-05 0)
(0.0007728 1.185e-05 0)
(0.0007702 1.066e-05 0)
(0.0007679 9.623e-06 0)
(0.0007658 8.738e-06 0)
(0.0007639 7.995e-06 0)
(0.0007621 7.391e-06 0)
(0.0007606 6.92e-06 0)
(0.0007592 6.576e-06 0)
(0.0007579 6.349e-06 0)
(0.0007567 6.223e-06 0)
(0.0007556 6.176e-06 0)
(0.0007545 6.172e-06 0)
(0.001206 9.569e-05 0)
(0.001225 0.0002426 0)
(0.001251 0.000342 0)
(0.001275 0.0003988 0)
(0.001292 0.000423 0)
(0.001299 0.000424 0)
(0.001298 0.0004098 0)
(0.001289 0.0003864 0)
(0.001274 0.000358 0)
(0.001255 0.0003276 0)
(0.001233 0.0002969 0)
(0.00121 0.000267 0)
(0.001187 0.0002386 0)
(0.001164 0.000212 0)
(0.001142 0.0001873 0)
(0.001121 0.0001644 0)
(0.001103 0.0001433 0)
(0.001086 0.0001238 0)
(0.001071 0.0001057 0)
(0.001058 8.886e-05 0)
(0.001047 7.316e-05 0)
(0.001038 5.84e-05 0)
(0.001031 4.443e-05 0)
(0.001026 3.11e-05 0)
(0.001023 1.829e-05 0)
(0.001022 5.863e-06 0)
(0.001024 -6.299e-06 0)
(0.001027 -1.831e-05 0)
(0.001032 -3.026e-05 0)
(0.001039 -4.225e-05 0)
(0.001048 -5.436e-05 0)
(0.00106 -6.667e-05 0)
(0.001073 -7.924e-05 0)
(0.001089 -9.213e-05 0)
(0.001107 -0.0001054 0)
(0.001128 -0.000119 0)
(0.001151 -0.000133 0)
(0.001176 -0.0001474 0)
(0.001205 -0.0001622 0)
(0.001235 -0.0001773 0)
(0.001269 -0.0001926 0)
(0.001305 -0.0002081 0)
(0.001344 -0.0002235 0)
(0.001386 -0.0002387 0)
(0.00143 -0.0002535 0)
(0.001478 -0.0002677 0)
(0.001527 -0.0002808 0)
(0.001579 -0.0002927 0)
(0.001633 -0.0003028 0)
(0.001689 -0.0003109 0)
(0.001746 -0.0003164 0)
(0.001804 -0.0003189 0)
(0.001862 -0.0003181 0)
(0.00192 -0.0003134 0)
(0.001977 -0.0003045 0)
(0.002032 -0.0002912 0)
(0.002084 -0.0002732 0)
(0.002133 -0.0002505 0)
(0.002177 -0.0002233 0)
(0.002216 -0.0001917 0)
(0.002248 -0.0001563 0)
(0.002274 -0.0001178 0)
(0.002292 -7.708e-05 0)
(0.002303 -3.503e-05 0)
(0.002305 7.314e-06 0)
(0.0023 4.897e-05 0)
(0.002287 8.903e-05 0)
(0.002267 0.0001268 0)
(0.00224 0.0001615 0)
(0.002207 0.0001929 0)
(0.002169 0.0002205 0)
(0.002126 0.0002443 0)
(0.00208 0.0002641 0)
(0.00203 0.0002799 0)
(0.001978 0.000292 0)
(0.001924 0.0003003 0)
(0.001868 0.0003052 0)
(0.001813 0.000307 0)
(0.001757 0.0003058 0)
(0.001702 0.0003021 0)
(0.001647 0.0002961 0)
(0.001594 0.0002882 0)
(0.001542 0.0002787 0)
(0.001493 0.0002679 0)
(0.001445 0.0002562 0)
(0.001399 0.0002438 0)
(0.001356 0.0002309 0)
(0.001315 0.0002177 0)
(0.001276 0.0002045 0)
(0.00124 0.0001914 0)
(0.001206 0.0001786 0)
(0.001174 0.0001661 0)
(0.001145 0.000154 0)
(0.001118 0.0001424 0)
(0.001092 0.0001314 0)
(0.001069 0.0001209 0)
(0.001047 0.000111 0)
(0.001028 0.0001017 0)
(0.001009 9.305e-05 0)
(0.0009926 8.494e-05 0)
(0.0009773 7.741e-05 0)
(0.0009634 7.043e-05 0)
(0.0009507 6.397e-05 0)
(0.0009391 5.802e-05 0)
(0.0009286 5.254e-05 0)
(0.000919 4.752e-05 0)
(0.0009104 4.291e-05 0)
(0.0009025 3.87e-05 0)
(0.0008954 3.486e-05 0)
(0.000889 3.136e-05 0)
(0.0008832 2.819e-05 0)
(0.000878 2.53e-05 0)
(0.0008733 2.27e-05 0)
(0.0008691 2.035e-05 0)
(0.0008653 1.824e-05 0)
(0.0008619 1.635e-05 0)
(0.0008588 1.467e-05 0)
(0.0008561 1.319e-05 0)
(0.0008536 1.19e-05 0)
(0.0008514 1.078e-05 0)
(0.0008494 9.833e-06 0)
(0.0008477 9.049e-06 0)
(0.0008461 8.421e-06 0)
(0.0008446 7.941e-06 0)
(0.0008433 7.598e-06 0)
(0.0008421 7.378e-06 0)
(0.000841 7.262e-06 0)
(0.0008399 7.223e-06 0)
(0.001205 8.45e-05 0)
(0.001221 0.0002191 0)
(0.001245 0.0003158 0)
(0.001269 0.0003767 0)
(0.001289 0.0004084 0)
(0.001302 0.0004179 0)
(0.001308 0.0004116 0)
(0.001307 0.0003948 0)
(0.0013 0.0003715 0)
(0.001288 0.0003446 0)
(0.001274 0.0003161 0)
(0.001258 0.0002873 0)
(0.00124 0.0002592 0)
(0.001222 0.0002322 0)
(0.001205 0.0002065 0)
(0.001188 0.0001824 0)
(0.001172 0.0001598 0)
(0.001158 0.0001386 0)
(0.001145 0.0001187 0)
(0.001134 0.0001 0)
(0.001124 8.243e-05 0)
(0.001116 6.576e-05 0)
(0.001111 4.986e-05 0)
(0.001107 3.461e-05 0)
(0.001104 1.987e-05 0)
(0.001104 5.493e-06 0)
(0.001106 -8.628e-06 0)
(0.001109 -2.261e-05 0)
(0.001115 -3.657e-05 0)
(0.001122 -5.061e-05 0)
(0.001132 -6.481e-05 0)
(0.001143 -7.927e-05 0)
(0.001157 -9.404e-05 0)
(0.001173 -0.0001092 0)
(0.001191 -0.0001248 0)
(0.001212 -0.0001408 0)
(0.001235 -0.0001574 0)
(0.001261 -0.0001743 0)
(0.001289 -0.0001918 0)
(0.00132 -0.0002095 0)
(0.001354 -0.0002276 0)
(0.00139 -0.0002458 0)
(0.00143 -0.0002641 0)
(0.001472 -0.000282 0)
(0.001516 -0.0002996 0)
(0.001564 -0.0003163 0)
(0.001614 -0.0003319 0)
(0.001667 -0.000346 0)
(0.001721 -0.0003581 0)
(0.001778 -0.0003678 0)
(0.001836 -0.0003745 0)
(0.001895 -0.0003778 0)
(0.001955 -0.000377 0)
(0.002014 -0.0003717 0)
(0.002072 -0.0003615 0)
(0.002129 -0.0003459 0)
(0.002183 -0.0003248 0)
(0.002233 -0.000298 0)
(0.002279 -0.0002657 0)
(0.002319 -0.0002283 0)
(0.002353 -0.0001862 0)
(0.00238 -0.0001403 0)
(0.002399 -9.172e-05 0)
(0.002409 -4.156e-05 0)
(0.002412 8.917e-06 0)
(0.002406 5.851e-05 0)
(0.002392 0.0001061 0)
(0.002371 0.0001509 0)
(0.002344 0.000192 0)
(0.00231 0.0002291 0)
(0.00227 0.0002617 0)
(0.002226 0.0002897 0)
(0.002178 0.0003131 0)
(0.002127 0.0003317 0)
(0.002074 0.0003458 0)
(0.002019 0.0003557 0)
(0.001963 0.0003614 0)
(0.001906 0.0003634 0)
(0.001849 0.0003619 0)
(0.001793 0.0003575 0)
(0.001738 0.0003504 0)
(0.001684 0.000341 0)
(0.001631 0.0003298 0)
(0.001581 0.000317 0)