/*--------------------------------*- C++ -*----------------------------------*\
  =========                 |
  \\      /  F ield         | OpenFOAM: The Open Source CFD Toolbox
   \\    /   O peration     | Website:  https://openfoam.org
    \\  /    A nd           | Version:  7
     \\/     M anipulation  |
\*---------------------------------------------------------------------------*/
FoamFile
{
    version     2.0;
    format      ascii;
    class       volScalarField;
    location    "1739.99947342622772";
    object      Y.K;
}
// * * * * * * * * * * * * * * * * * * * * * * * * * * * * * * * * * * * * * //

dimensions      [0 0 0 0 0 0 0];

internalField   nonuniform List<scalar> 
4096
(
1.294e-71
-9.588e-73
1.768e-70
-1.199e-70
-1.77e-71
5.097e-71
-3.025e-71
-2.578e-71
4.213e-72
1.417e-70
-2.109e-69
3.438e-68
-4.913e-67
7.199e-66
-9.517e-65
1.204e-63
-1.421e-62
1.605e-61
-1.709e-60
1.753e-59
-1.694e-58
1.587e-57
-1.446e-56
1.27e-55
-1.065e-54
8.772e-54
-6.984e-53
5.423e-52
-4.283e-51
3.44e-50
-2.79e-49
2.274e-48
-1.821e-47
1.451e-46
-1.128e-45
8.629e-45
-6.326e-44
4.395e-43
-2.919e-42
1.849e-41
-1.085e-40
5.85e-40
-2.841e-39
1.202e-38
-4.083e-38
9.776e-38
-1.927e-38
-1.29e-36
3.278e-36
5.574e-35
-6.529e-34
5.271e-33
-2.538e-32
1.179e-31
-2.357e-31
6.044e-32
1.012e-29
-1.23e-29
2.587e-28
2.503e-28
4.766e-27
2.96e-26
3.026e-26
5.019e-25
1.603e-24
3.711e-24
2.762e-23
9.09e-23
2.177e-22
1.582e-21
6.987e-21
9.895e-20
1.465e-18
4.103e-18
8.477e-18
1.554e-17
2.671e-17
4.403e-17
7.035e-17
1.096e-16
1.67e-16
2.496e-16
3.663e-16
5.286e-16
7.512e-16
1.052e-15
1.454e-15
1.983e-15
2.674e-15
3.565e-15
4.703e-15
6.144e-15
7.954e-15
1.021e-14
1.3e-14
1.643e-14
2.062e-14
2.571e-14
3.186e-14
3.926e-14
4.811e-14
5.866e-14
7.118e-14
8.599e-14
1.034e-13
1.239e-13
1.479e-13
1.759e-13
2.085e-13
2.463e-13
2.9e-13
3.406e-13
3.988e-13
4.657e-13
5.425e-13
6.304e-13
7.308e-13
8.452e-13
9.754e-13
1.123e-12
1.291e-12
1.48e-12
1.692e-12
1.93e-12
2.191e-12
2.471e-12
2.747e-12
2.966e-12
3.045e-70
-1.747e-69
2.123e-69
-3.298e-70
-2.024e-69
2.142e-69
8.706e-72
-1.69e-69
-3.462e-70
8.714e-69
-1.245e-67
1.889e-66
-2.841e-65
4.02e-64
-5.351e-63
6.706e-62
-7.931e-61
8.879e-60
-9.446e-59
9.585e-58
-9.311e-57
8.689e-56
-7.813e-55
6.789e-54
-5.711e-53
4.67e-52
-3.699e-51
2.842e-50
-2.236e-49
1.79e-48
-1.448e-47
1.174e-46
-9.458e-46
7.515e-45
-5.843e-44
4.415e-43
-3.219e-42
2.249e-41
-1.495e-40
9.378e-40
-5.495e-39
2.966e-38
-1.447e-37
6.178e-37
-2.15e-36
5.542e-36
-3.635e-36
-6.149e-35
2.151e-34
2.011e-33
-2.59e-32
2.36e-31
-1.124e-30
5.747e-30
-1.232e-29
1.537e-29
4.825e-28
-1.351e-28
1.261e-26
2.079e-26
2.631e-25
1.478e-24
2.236e-24
2.433e-23
7.862e-23
1.946e-22
1.25e-21
4.015e-21
9.608e-21
5.878e-20
1.967e-19
1.275e-18
3.494e-18
7.265e-18
1.342e-17
2.32e-17
3.834e-17
6.132e-17
9.55e-17
1.454e-16
2.17e-16
3.18e-16
4.583e-16
6.505e-16
9.103e-16
1.257e-15
1.714e-15
2.311e-15
3.081e-15
4.068e-15
5.318e-15
6.892e-15
8.857e-15
1.129e-14
1.43e-14
1.797e-14
2.245e-14
2.787e-14
3.44e-14
4.224e-14
5.16e-14
6.274e-14
7.594e-14
9.152e-14
1.099e-13
1.314e-13
1.565e-13
1.859e-13
2.2e-13
2.596e-13
3.053e-13
3.582e-13
4.19e-13
4.889e-13
5.69e-13
6.607e-13
7.654e-13
8.847e-13
1.02e-12
1.174e-12
1.349e-12
1.546e-12
1.768e-12
2.017e-12
2.294e-12
2.598e-12
2.92e-12
3.226e-12
-6.97e-69
4.892e-68
-1.296e-67
1.939e-67
-1.583e-67
2.937e-68
8.502e-68
-8.46e-68
-6.026e-68
5.294e-67
-6.761e-66
1.018e-64
-1.532e-63
2.168e-62
-2.879e-61
3.594e-60
-4.229e-59
4.706e-58
-4.973e-57
5.011e-56
-4.831e-55
4.474e-54
-3.991e-53
3.439e-52
-2.868e-51
2.324e-50
-1.823e-49
1.393e-48
-1.09e-47
8.684e-47
-6.991e-46
5.644e-45
-4.531e-44
3.589e-43
-2.784e-42
2.099e-41
-1.528e-40
1.067e-39
-7.095e-39
4.457e-38
-2.621e-37
1.424e-36
-7.026e-36
3.059e-35
-1.108e-34
2.984e-34
-3.223e-34
-2.589e-33
1.507e-32
3.757e-32
-7.601e-31
9.2e-30
-4.276e-29
2.701e-28
-5.776e-28
1.337e-27
2.213e-26
2.615e-26
5.877e-25
1.62e-24
1.493e-23
7.147e-23
1.551e-22
1.181e-21
3.747e-21
9.8e-21
5.33e-20
1.6e-19
3.792e-19
1.754e-18
4.497e-18
9.028e-18
1.639e-17
2.803e-17
4.596e-17
7.29e-17
1.125e-16
1.694e-16
2.498e-16
3.611e-16
5.13e-16
7.172e-16
9.88e-16
1.343e-15
1.804e-15
2.395e-15
3.148e-15
4.099e-15
5.291e-15
6.776e-15
8.614e-15
1.088e-14
1.365e-14
1.702e-14
2.111e-14
2.605e-14
3.198e-14
3.909e-14
4.757e-14
5.765e-14
6.96e-14
8.371e-14
1.003e-13
1.198e-13
1.426e-13
1.693e-13
2.003e-13
2.363e-13
2.781e-13
3.263e-13
3.819e-13
4.46e-13
5.195e-13
6.037e-13
7e-13
8.1e-13
9.352e-13
1.078e-12
1.239e-12
1.422e-12
1.629e-12
1.863e-12
2.126e-12
2.421e-12
2.752e-12
3.12e-12
3.528e-12
3.989e-12
1.116e-67
-8.926e-67
3.322e-66
-8.029e-66
1.329e-65
-1.502e-65
1.042e-65
-2.409e-66
-4.656e-66
3.169e-65
-3.51e-64
5.203e-63
-7.824e-62
1.104e-60
-1.459e-59
1.81e-58
-2.112e-57
2.329e-56
-2.438e-55
2.431e-54
-2.32e-53
2.125e-52
-1.875e-51
1.597e-50
-1.316e-49
1.053e-48
-8.156e-48
6.18e-47
-4.794e-46
3.787e-45
-3.027e-44
2.429e-43
-1.941e-42
1.532e-41
-1.185e-40
8.928e-40
-6.5e-39
4.545e-38
-3.031e-37
1.914e-36
-1.135e-35
6.241e-35
-3.138e-34
1.408e-33
-5.385e-33
1.616e-32
-2.749e-32
-7.065e-32
9.2e-31
-1.114e-30
-4.677e-30
2.886e-28
-1.183e-27
1.168e-26
-2.44e-26
1.016e-25
9.713e-25
2.494e-24
2.5e-23
1.12e-22
8.135e-22
3.174e-21
9.173e-21
5.238e-20
1.589e-19
4.2e-19
1.761e-18
4.686e-18
9.761e-18
1.846e-17
3.285e-17
5.582e-17
9.126e-17
1.443e-16
2.214e-16
3.307e-16
4.82e-16
6.872e-16
9.6e-16
1.317e-15
1.776e-15
2.361e-15
3.095e-15
4.01e-15
5.139e-15
6.523e-15
8.21e-15
1.026e-14
1.272e-14
1.569e-14
1.925e-14
2.351e-14
2.857e-14
3.46e-14
4.174e-14
5.019e-14
6.017e-14
7.191e-14
8.572e-14
1.019e-13
1.208e-13
1.43e-13
1.687e-13
1.987e-13
2.335e-13
2.738e-13
3.203e-13
3.74e-13
4.359e-13
5.069e-13
5.884e-13
6.817e-13
7.883e-13
9.099e-13
1.048e-12
1.206e-12
1.384e-12
1.586e-12
1.815e-12
2.073e-12
2.363e-12
2.69e-12
3.056e-12
3.467e-12
3.925e-12
4.437e-12
5.013e-12
5.744e-12
-1.508e-66
1.306e-65
-6.035e-65
1.964e-64
-4.71e-64
8.47e-64
-1.129e-63
1.069e-63
-6.725e-64
1.666e-63
-1.767e-62
2.54e-61
-3.797e-60
5.319e-59
-6.961e-58
8.532e-57
-9.83e-56
1.069e-54
-1.103e-53
1.084e-52
-1.02e-51
9.206e-51
-8.001e-50
6.712e-49
-5.444e-48
4.284e-47
-3.259e-46
2.437e-45
-1.865e-44
1.455e-43
-1.15e-42
9.142e-42
-7.256e-41
5.702e-40
-4.401e-39
3.313e-38
-2.416e-37
1.695e-36
-1.137e-35
7.247e-35
-4.353e-34
2.439e-33
-1.26e-32
5.882e-32
-2.406e-31
8.041e-31
-1.845e-30
7.288e-31
3.315e-29
-1.36e-28
7.338e-28
4.142e-27
-5.232e-27
4.58e-25
-6.643e-25
6.731e-24
4.211e-23
1.898e-22
1.316e-21
6.238e-21
3.952e-20
1.411e-19
4.282e-19
1.798e-18
5.148e-18
1.165e-17
2.382e-17
4.558e-17
8.268e-17
1.432e-16
2.38e-16
3.807e-16
5.885e-16
8.809e-16
1.281e-15
1.813e-15
2.505e-15
3.384e-15
4.483e-15
5.833e-15
7.471e-15
9.434e-15
1.177e-14
1.452e-14
1.775e-14
2.154e-14
2.595e-14
3.108e-14
3.705e-14
4.399e-14
5.204e-14
6.14e-14
7.225e-14
8.485e-14
9.947e-14
1.164e-13
1.361e-13
1.589e-13
1.852e-13
2.157e-13
2.509e-13
2.915e-13
3.384e-13
3.923e-13
4.544e-13
5.256e-13
6.072e-13
7.007e-13
8.076e-13
9.296e-13
1.069e-12
1.227e-12
1.407e-12
1.611e-12
1.842e-12
2.103e-12
2.398e-12
2.73e-12
3.104e-12
3.524e-12
3.996e-12
4.523e-12
5.112e-12
5.77e-12
6.501e-12
7.314e-12
8.227e-12
9.472e-12
1.804e-65
-1.641e-64
8.84e-64
-3.581e-63
1.123e-62
-2.758e-62
5.286e-62
-7.755e-62
8.248e-62
3.094e-62
-8.536e-61
1.186e-59
-1.752e-58
2.418e-57
-3.112e-56
3.744e-55
-4.23e-54
4.509e-53
-4.56e-52
4.395e-51
-4.053e-50
3.59e-49
-3.06e-48
2.517e-47
-2.001e-46
1.541e-45
-1.146e-44
8.407e-44
-6.304e-43
4.819e-42
-3.742e-41
2.932e-40
-2.303e-39
1.797e-38
-1.382e-37
1.04e-36
-7.607e-36
5.369e-35
-3.636e-34
2.349e-33
-1.437e-32
8.253e-32
-4.409e-31
2.161e-30
-9.515e-30
3.618e-29
-1.093e-28
1.578e-28
3.79e-28
-4.982e-27
6.481e-26
-4.45e-26
1.734e-24
1.408e-23
3.797e-24
4.153e-22
2.412e-21
1.102e-20
6.562e-20
3.063e-19
1.476e-18
4.777e-18
1.23e-17
2.846e-17
6.113e-17
1.233e-16
2.352e-16
4.258e-16
7.346e-16
1.212e-15
1.916e-15
2.915e-15
4.279e-15
6.077e-15
8.375e-15
1.123e-14
1.469e-14
1.88e-14
2.358e-14
2.907e-14
3.53e-14
4.232e-14
5.017e-14
5.892e-14
6.868e-14
7.956e-14
9.171e-14
1.053e-13
1.206e-13
1.378e-13
1.572e-13
1.792e-13
2.042e-13
2.325e-13
2.649e-13
3.018e-13
3.439e-13
3.92e-13
4.471e-13
5.099e-13
5.818e-13
6.64e-13
7.578e-13
8.648e-13
9.868e-13
1.126e-12
1.284e-12
1.464e-12
1.668e-12
1.9e-12
2.163e-12
2.46e-12
2.796e-12
3.175e-12
3.601e-12
4.082e-12
4.621e-12
5.227e-12
5.905e-12
6.663e-12
7.509e-12
8.452e-12
9.501e-12
1.067e-11
1.196e-11
1.338e-11
1.497e-11
1.724e-11
-1.924e-64
1.801e-63
-1.09e-62
5.277e-62
-2.063e-61
6.513e-61
-1.65e-60
3.318e-60
-5.215e-60
9.312e-60
-4.293e-59
5.319e-58
-7.657e-57
1.032e-55
-1.294e-54
1.515e-53
-1.665e-52
1.727e-51
-1.7e-50
1.597e-49
-1.437e-48
1.243e-47
-1.035e-46
8.317e-46
-6.453e-45
4.845e-44
-3.505e-43
2.505e-42
-1.824e-41
1.353e-40
-1.02e-39
7.803e-39
-6.011e-38
4.629e-37
-3.535e-36
2.656e-35
-1.949e-34
1.386e-33
-9.51e-33
6.257e-32
-3.922e-31
2.322e-30
-1.29e-29
6.67e-29
-3.168e-28
1.359e-27
-5.044e-27
1.463e-26
-3.724e-26
2.39e-27
2.479e-24
-3.743e-24
1.234e-22
2.717e-22
1.952e-21
2.425e-20
1.198e-19
5.154e-19
2.579e-18
9.051e-18
2.561e-17
6.517e-17
1.534e-16
3.373e-16
6.955e-16
1.35e-15
2.473e-15
4.293e-15
7.083e-15
1.115e-14
1.678e-14
2.426e-14
3.378e-14
4.545e-14
5.929e-14
7.521e-14
9.304e-14
1.126e-13
1.336e-13
1.559e-13
1.794e-13
2.04e-13
2.298e-13
2.568e-13
2.853e-13
3.155e-13
3.48e-13
3.831e-13
4.213e-13
4.633e-13
5.098e-13
5.615e-13
6.194e-13
6.843e-13
7.575e-13
8.401e-13
9.336e-13
1.039e-12
1.159e-12
1.295e-12
1.45e-12
1.625e-12
1.823e-12
2.048e-12
2.303e-12
2.592e-12
2.918e-12
3.287e-12
3.704e-12
4.174e-12
4.703e-12
5.299e-12
5.969e-12
6.721e-12
7.564e-12
8.508e-12
9.564e-12
1.074e-11
1.206e-11
1.352e-11
1.515e-11
1.695e-11
1.895e-11
2.116e-11
2.36e-11
2.629e-11
2.924e-11
3.362e-11
1.765e-63
-1.667e-62
1.116e-61
-6.371e-61
3.058e-60
-1.213e-59
3.92e-59
-1.019e-58
2.065e-58
-1.098e-58
-1.388e-57
2.231e-56
-3.142e-55
4.088e-54
-4.941e-53
5.573e-52
-5.902e-51
5.907e-50
-5.623e-49
5.118e-48
-4.471e-47
3.761e-46
-3.051e-45
2.39e-44
-1.808e-43
1.321e-42
-9.271e-42
6.42e-41
-4.497e-40
3.193e-39
-2.302e-38
1.686e-37
-1.251e-36
9.365e-36
-7.018e-35
5.224e-34
-3.832e-33
2.749e-32
-1.918e-31
1.295e-30
-8.38e-30
5.15e-29
-2.986e-28
1.625e-27
-8.26e-27
3.917e-26
-1.694e-25
6.612e-25
-2.918e-24
6.328e-24
2.589e-23
4.598e-23
3.145e-21
6.941e-21
1.286e-19
9.648e-19
4.233e-18
1.481e-17
4.621e-17
1.322e-16
3.5e-16
8.6e-16
1.967e-15
4.196e-15
8.371e-15
1.566e-14
2.757e-14
4.583e-14
7.22e-14
1.082e-13
1.548e-13
2.122e-13
2.799e-13
3.562e-13
4.393e-13
5.266e-13
6.154e-13
7.037e-13
7.895e-13
8.717e-13
9.5e-13
1.025e-12
1.096e-12
1.166e-12
1.236e-12
1.306e-12
1.378e-12
1.455e-12
1.538e-12
1.629e-12
1.73e-12
1.842e-12
1.968e-12
2.11e-12
2.271e-12
2.453e-12
2.659e-12
2.893e-12
3.157e-12
3.457e-12
3.796e-12
4.179e-12
4.612e-12
5.101e-12
5.652e-12
6.274e-12
6.974e-12
7.762e-12
8.647e-12
9.642e-12
1.076e-11
1.201e-11
1.34e-11
1.497e-11
1.671e-11
1.865e-11
2.082e-11
2.323e-11
2.59e-11
2.886e-11
3.214e-11
3.577e-11
3.976e-11
4.416e-11
4.9e-11
5.431e-11
6.008e-11
6.884e-11
-1.209e-62
1.141e-61
-8.334e-61
5.913e-60
-3.603e-59
1.815e-58
-7.474e-58
2.503e-57
-6.835e-57
1.958e-56
-7.856e-56
9.084e-55
-1.194e-53
1.479e-52
-1.701e-51
1.826e-50
-1.845e-49
1.767e-48
-1.614e-47
1.416e-46
-1.196e-45
9.76e-45
-7.706e-44
5.887e-43
-4.348e-42
3.102e-41
-2.121e-40
1.426e-39
-9.593e-39
6.463e-38
-4.376e-37
2.989e-36
-2.067e-35
1.449e-34
-1.028e-33
7.362e-33
-5.285e-32
3.782e-31
-2.686e-30
1.882e-29
-1.274e-28
8.275e-28
-5.038e-27
2.852e-26
-1.51e-25
7.637e-25
-3.548e-24
1.693e-23
-7.088e-23
3.028e-22
1.617e-22
9.317e-21
7.132e-20
5.644e-19
3.845e-18
1.746e-17
6.488e-17
2.167e-16
6.636e-16
1.872e-15
4.877e-15
1.174e-14
2.62e-14
5.426e-14
1.046e-13
1.882e-13
3.176e-13
5.043e-13
7.568e-13
1.078e-12
1.462e-12
1.898e-12
2.367e-12
2.846e-12
3.315e-12
3.75e-12
4.135e-12
4.468e-12
4.735e-12
4.946e-12
5.109e-12
5.232e-12
5.324e-12
5.395e-12
5.456e-12
5.514e-12
5.578e-12
5.655e-12
5.751e-12
5.872e-12
6.021e-12
6.207e-12
6.432e-12
6.7e-12
7.016e-12
7.387e-12
7.818e-12
8.315e-12
8.886e-12
9.539e-12
1.028e-11
1.113e-11
1.208e-11
1.316e-11
1.438e-11
1.575e-11
1.728e-11
1.901e-11
2.095e-11
2.311e-11
2.553e-11
2.823e-11
3.124e-11
3.46e-11
3.832e-11
4.246e-11
4.705e-11
5.214e-11
5.776e-11
6.397e-11
7.081e-11
7.835e-11
8.662e-11
9.57e-11
1.056e-10
1.165e-10
1.282e-10
1.463e-10
1.285e-62
-6.047e-62
1.465e-60
-2.57e-59
2.854e-58
-2.077e-57
1.132e-56
-4.834e-56
1.597e-55
-1.36e-55
-1.442e-54
3.176e-53
-4.097e-52
4.763e-51
-5.133e-50
5.176e-49
-4.93e-48
4.474e-47
-3.897e-46
3.277e-45
-2.669e-44
2.111e-43
-1.623e-42
1.214e-41
-8.805e-41
6.189e-40
-4.18e-39
2.772e-38
-1.819e-37
1.18e-36
-7.555e-36
4.783e-35
-3.001e-34
1.874e-33
-1.172e-32
7.394e-32
-4.738e-31
3.089e-30
-2.042e-29
1.35e-28
-9.211e-28
5.981e-27
-3.588e-26
2.113e-25
-1.202e-24
6.732e-24
-2.993e-23
2.024e-22
-8.326e-22
3.473e-21
3.477e-20
3.595e-19
2.921e-18
1.548e-17
6.778e-17
2.675e-16
9.661e-16
3.201e-15
9.728e-15
2.714e-14
6.955e-14
1.639e-13
3.559e-13
7.136e-13
1.325e-12
2.288e-12
3.691e-12
5.584e-12
7.963e-12
1.075e-11
1.381e-11
1.693e-11
1.995e-11
2.262e-11
2.487e-11
2.651e-11
2.754e-11
2.818e-11
2.814e-11
2.786e-11
2.734e-11
2.662e-11
2.58e-11
2.494e-11
2.411e-11
2.333e-11
2.265e-11
2.209e-11
2.164e-11
2.134e-11
2.115e-11
2.118e-11
2.131e-11
2.158e-11
2.202e-11
2.263e-11
2.341e-11
2.437e-11
2.553e-11
2.689e-11
2.848e-11
3.031e-11
3.24e-11
3.479e-11
3.749e-11
4.053e-11
4.396e-11
4.78e-11
5.211e-11
5.691e-11
6.227e-11
6.824e-11
7.487e-11
8.223e-11
9.039e-11
9.942e-11
1.094e-10
1.204e-10
1.325e-10
1.459e-10
1.605e-10
1.766e-10
1.942e-10
2.135e-10
2.345e-10
2.574e-10
2.817e-10
3.199e-10
1.495e-60
-1.653e-59
1.068e-58
-4.387e-58
-1.904e-58
1.218e-56
-1.247e-55
7.912e-55
-3.927e-54
1.987e-53
-9.67e-53
1.113e-51
-1.232e-50
1.31e-49
-1.298e-48
1.209e-47
-1.071e-46
9.126e-46
-7.528e-45
6.042e-44
-4.733e-43
3.627e-42
-2.721e-41
1.998e-40
-1.434e-39
1.005e-38
-6.825e-38
4.574e-37
-3.026e-36
1.971e-35
-1.258e-34
7.848e-34
-4.763e-33
2.797e-32
-1.58e-31
8.535e-31
-4.383e-30
2.13e-29
-9.805e-29
4.361e-28
-2.369e-27
1.233e-26
-3.797e-26
1.008e-25
-1.91e-25
2.782e-24
7.528e-23
7.482e-22
-8.031e-22
1.321e-19
1.449e-18
9.235e-18
4.86e-17
2.305e-16
9.994e-16
3.963e-15
1.436e-14
4.753e-14
1.435e-13
3.955e-13
9.953e-13
2.29e-12
4.827e-12
9.345e-12
1.667e-11
2.753e-11
4.232e-11
6.084e-11
8.222e-11
1.05e-10
1.275e-10
1.474e-10
1.64e-10
1.748e-10
1.816e-10
1.812e-10
1.781e-10
1.721e-10
1.636e-10
1.537e-10
1.432e-10
1.327e-10
1.226e-10
1.133e-10
1.048e-10
9.739e-11
9.095e-11
8.546e-11
8.089e-11
7.718e-11
7.424e-11
7.205e-11
7.056e-11
6.957e-11
6.946e-11
6.978e-11
7.063e-11
7.207e-11
7.408e-11
7.667e-11
7.987e-11
8.369e-11
8.818e-11
9.337e-11
9.933e-11
1.061e-10
1.138e-10
1.224e-10
1.32e-10
1.428e-10
1.548e-10
1.682e-10
1.83e-10
1.995e-10
2.176e-10
2.376e-10
2.597e-10
2.84e-10
3.107e-10
3.399e-10
3.72e-10
4.07e-10
4.452e-10
4.868e-10
5.32e-10
5.812e-10
6.331e-10
7.153e-10
-3.527e-59
3.716e-58
-2.653e-57
1.503e-56
-6.414e-56
1.262e-55
4.092e-55
-6.442e-54
4.02e-53
-2.558e-53
-1.735e-51
2.712e-50
-3.008e-49
2.871e-48
-2.534e-47
2.133e-46
-1.737e-45
1.38e-44
-1.074e-43
8.211e-43
-6.176e-42
4.577e-41
-3.345e-40
2.412e-39
-1.716e-38
1.204e-37
-8.311e-37
5.715e-36
-3.908e-35
2.65e-34
-1.778e-33
1.174e-32
-7.628e-32
4.835e-31
-2.972e-30
1.762e-29
-9.994e-29
5.372e-28
-2.686e-27
1.245e-26
-5.38e-26
1.31e-25
7.985e-26
-4.466e-24
4.553e-23
-3.253e-22
3.753e-21
-2.142e-21
2.711e-19
3.212e-18
2.238e-17
1.305e-16
6.879e-16
3.311e-15
1.454e-14
5.818e-14
2.116e-13
6.985e-13
2.092e-12
5.684e-12
1.402e-11
3.141e-11
6.407e-11
1.194e-10
2.038e-10
3.209e-10
4.685e-10
6.382e-10
8.153e-10
9.829e-10
1.127e-09
1.225e-09
1.287e-09
1.281e-09
1.25e-09
1.189e-09
1.106e-09
1.011e-09
9.109e-10
8.128e-10
7.206e-10
6.368e-10
5.626e-10
4.98e-10
4.426e-10
3.957e-10
3.564e-10
3.237e-10
2.967e-10
2.746e-10
2.568e-10
2.426e-10
2.316e-10
2.234e-10
2.176e-10
2.141e-10
2.126e-10
2.132e-10
2.154e-10
2.194e-10
2.25e-10
2.324e-10
2.416e-10
2.526e-10
2.655e-10
2.804e-10
2.974e-10
3.167e-10
3.384e-10
3.628e-10
3.899e-10
4.201e-10
4.536e-10
4.907e-10
5.315e-10
5.765e-10
6.26e-10
6.802e-10
7.397e-10
8.047e-10
8.756e-10
9.529e-10
1.037e-09
1.128e-09
1.227e-09
1.335e-09
1.447e-09
1.626e-09
5.362e-58
-5.532e-57
4.134e-56
-2.664e-55
1.458e-54
-6.432e-54
1.865e-53
4.333e-53
-9.976e-52
1.052e-50
-9.071e-50
7.102e-49
-5.464e-48
4.175e-47
-3.192e-46
2.437e-45
-1.849e-44
1.389e-43
-1.03e-42
7.531e-42
-5.431e-41
3.866e-40
-2.721e-39
1.896e-38
-1.311e-37
9.02e-37
-6.173e-36
4.247e-35
-2.928e-34
2.018e-33
-1.384e-32
9.461e-32
-6.44e-31
4.313e-30
-2.827e-29
1.822e-28
-1.152e-27
7.127e-27
-4.304e-26
2.531e-25
-1.446e-24
8.02e-24
-4.279e-23
2.261e-22
-1.105e-21
6.545e-21
1.943e-20
5.085e-19
6.089e-18
4.622e-17
2.992e-16
1.761e-15
9.464e-15
4.635e-14
2.062e-13
8.314e-13
3.03e-12
9.964e-12
2.955e-11
7.898e-11
1.903e-10
4.141e-10
8.149e-10
1.455e-09
2.369e-09
3.543e-09
4.898e-09
6.303e-09
7.592e-09
8.641e-09
9.334e-09
9.473e-09
9.289e-09
8.829e-09
8.141e-09
7.317e-09
6.442e-09
5.581e-09
4.779e-09
4.061e-09
3.437e-09
2.906e-09
2.462e-09
2.095e-09
1.794e-09
1.548e-09
1.349e-09
1.187e-09
1.057e-09
9.521e-10
8.677e-10
8.003e-10
7.47e-10
7.054e-10
6.738e-10
6.505e-10
6.348e-10
6.251e-10
6.227e-10
6.253e-10
6.326e-10
6.449e-10
6.622e-10
6.844e-10
7.115e-10
7.437e-10
7.811e-10
8.241e-10
8.729e-10
9.278e-10
9.892e-10
1.058e-09
1.134e-09
1.218e-09
1.31e-09
1.412e-09
1.524e-09
1.646e-09
1.78e-09
1.926e-09
2.084e-09
2.257e-09
2.444e-09
2.647e-09
2.865e-09
3.102e-09
3.348e-09
3.744e-09
-6.14e-57
6.073e-56
-4.658e-55
3.308e-54
-2.171e-53
1.32e-52
-7.46e-52
3.954e-51
-2.019e-50
1.036e-49
-6.307e-49
3.833e-48
-3.092e-47
2.599e-46
-2.179e-45
1.776e-44
-1.397e-43
1.06e-42
-7.785e-42
5.546e-41
-3.842e-40
2.591e-39
-1.702e-38
1.088e-37
-6.775e-37
4.097e-36
-2.414e-35
1.419e-34
-8.332e-34
4.917e-33
-2.898e-32
1.821e-31
-1.128e-30
6.827e-30
-4.081e-29
2.472e-28
-1.502e-27
9.133e-27
-5.533e-26
3.325e-25
-1.971e-24
1.156e-23
-6.343e-23
4.351e-22
-1.811e-21
7.068e-20
1.113e-18
1.016e-17
7.962e-17
5.712e-16
3.764e-15
2.269e-14
1.246e-13
6.207e-13
2.794e-12
1.133e-11
4.133e-11
1.352e-10
3.96e-10
1.039e-09
2.439e-09
5.133e-09
9.706e-09
1.655e-08
2.558e-08
3.618e-08
4.72e-08
5.724e-08
6.49e-08
6.993e-08
6.949e-08
6.7e-08
6.223e-08
5.585e-08
4.868e-08
4.144e-08
3.463e-08
2.854e-08
2.33e-08
1.893e-08
1.535e-08
1.246e-08
1.016e-08
8.342e-09
6.907e-09
5.777e-09
4.887e-09
4.186e-09
3.631e-09
3.193e-09
2.845e-09
2.569e-09
2.351e-09
2.179e-09
2.046e-09
1.943e-09
1.867e-09
1.813e-09
1.78e-09
1.762e-09
1.765e-09
1.779e-09
1.807e-09
1.848e-09
1.902e-09
1.97e-09
2.051e-09
2.145e-09
2.254e-09
2.377e-09
2.516e-09
2.671e-09
2.844e-09
3.035e-09
3.245e-09
3.477e-09
3.73e-09
4.007e-09
4.31e-09
4.639e-09
4.996e-09
5.384e-09
5.803e-09
6.255e-09
6.743e-09
7.27e-09
7.813e-09
8.691e-09
3.639e-56
-3.514e-55
2.725e-54
-2.04e-53
1.459e-52
-9.854e-52
6.167e-51
-3.481e-50
1.667e-49
-5.87e-49
-1.644e-48
3.26e-47
-3.904e-46
3.725e-45
-3.148e-44
2.475e-43
-1.854e-42
1.339e-41
-9.405e-41
6.452e-40
-4.336e-39
2.857e-38
-1.845e-37
1.167e-36
-7.202e-36
4.322e-35
-2.536e-34
1.454e-33
-8.1e-33
4.359e-32
-2.151e-31
1.309e-30
-6.863e-30
1.464e-29
5.295e-30
-5.171e-28
5.902e-27
-5.056e-26
3.792e-25
-2.613e-24
1.692e-23
-1.032e-22
6.322e-22
-2.305e-21
6.983e-20
1.236e-18
1.255e-17
1.101e-16
8.866e-16
6.563e-15
4.449e-14
2.748e-13
1.54e-12
7.786e-12
3.54e-11
1.443e-10
5.251e-10
1.704e-09
4.919e-09
1.262e-08
2.876e-08
5.831e-08
1.055e-07
1.709e-07
2.496e-07
3.327e-07
4.085e-07
4.658e-07
4.989e-07
4.925e-07
4.685e-07
4.271e-07
3.747e-07
3.181e-07
2.629e-07
2.128e-07
1.694e-07
1.334e-07
1.043e-07
8.135e-08
6.348e-08
4.972e-08
3.921e-08
3.119e-08
2.508e-08
2.041e-08
1.683e-08
1.408e-08
1.195e-08
1.029e-08
8.994e-09
7.978e-09
7.179e-09
6.551e-09
6.059e-09
5.676e-09
5.384e-09
5.165e-09
5.01e-09
4.91e-09
4.848e-09
4.852e-09
4.883e-09
4.949e-09
5.051e-09
5.188e-09
5.359e-09
5.564e-09
5.804e-09
6.08e-09
6.392e-09
6.744e-09
7.135e-09
7.569e-09
8.048e-09
8.574e-09
9.151e-09
9.78e-09
1.047e-08
1.121e-08
1.202e-08
1.289e-08
1.383e-08
1.485e-08
1.594e-08
1.712e-08
1.832e-08
2.028e-08
-1.082e-55
7.72e-55
-5.526e-54
4.988e-53
-4.942e-52
4.814e-51
-4.422e-50
3.809e-49
-3.096e-48
2.396e-47
-1.783e-46
1.285e-45
-9.033e-45
6.229e-44
-4.231e-43
2.841e-42
-1.892e-41
1.252e-40
-8.243e-40
5.409e-39
-3.539e-38
2.31e-37
-1.504e-36
9.768e-36
-6.323e-35
4.075e-34
-2.611e-33
1.661e-32
-1.049e-31
6.568e-31
-4.075e-30
2.503e-29
-1.52e-28
9.118e-28
-5.398e-27
3.15e-26
-1.809e-25
1.021e-24
-5.654e-24
3.072e-23
-1.624e-22
8.563e-22
-3.844e-21
3.758e-20
1.052e-18
1.239e-17
1.22e-16
1.1e-15
9.141e-15
6.97e-14
4.85e-13
3.063e-12
1.746e-11
8.944e-11
4.097e-10
1.672e-09
6.057e-09
1.943e-08
5.504e-08
1.375e-07
3.027e-07
5.883e-07
1.013e-06
1.551e-06
2.132e-06
2.67e-06
3.083e-06
3.312e-06
3.259e-06
3.074e-06
2.766e-06
2.386e-06
1.985e-06
1.602e-06
1.262e-06
9.765e-07
7.451e-07
5.636e-07
4.244e-07
3.195e-07
2.412e-07
1.832e-07
1.404e-07
1.088e-07
8.534e-08
6.789e-08
5.482e-08
4.496e-08
3.747e-08
3.173e-08
2.73e-08
2.386e-08
2.118e-08
1.908e-08
1.744e-08
1.615e-08
1.516e-08
1.44e-08
1.383e-08
1.343e-08
1.317e-08
1.301e-08
1.302e-08
1.311e-08
1.328e-08
1.354e-08
1.389e-08
1.433e-08
1.485e-08
1.547e-08
1.617e-08
1.696e-08
1.785e-08
1.883e-08
1.992e-08
2.111e-08
2.242e-08
2.385e-08
2.541e-08
2.71e-08
2.892e-08
3.089e-08
3.302e-08
3.53e-08
3.775e-08
4.038e-08
4.307e-08
4.743e-08
-2.441e-54
2.392e-53
-1.887e-52
1.426e-51
-1.029e-50
7.122e-50
-4.744e-49
3.057e-48
-1.917e-47
1.176e-46
-7.092e-46
4.231e-45
-2.507e-44
1.483e-43
-8.795e-43
5.248e-42
-3.162e-41
1.93e-40
-1.196e-39
7.536e-39
-4.83e-38
3.148e-37
-2.084e-36
1.398e-35
-9.505e-35
6.464e-34
-4.353e-33
2.908e-32
-1.927e-31
1.266e-30
-8.238e-30
5.31e-29
-3.389e-28
2.139e-27
-1.335e-26
8.224e-26
-5.001e-25
2.998e-24
-1.769e-23
1.032e-22
-5.78e-22
3.428e-21
-1.416e-20
4.757e-19
9.27e-18
1.065e-16
1.075e-15
9.997e-15
8.558e-14
6.703e-13
4.774e-12
3.073e-11
1.777e-10
9.18e-10
4.217e-09
1.715e-08
6.153e-08
1.94e-07
5.363e-07
1.296e-06
2.74e-06
5.074e-06
8.269e-06
1.191e-05
1.535e-05
1.807e-05
1.969e-05
1.939e-05
1.824e-05
1.632e-05
1.394e-05
1.144e-05
9.088e-06
7.025e-06
5.316e-06
3.958e-06
2.915e-06
2.132e-06
1.557e-06
1.138e-06
8.366e-07
6.199e-07
4.643e-07
3.521e-07
2.709e-07
2.117e-07
1.681e-07
1.358e-07
1.116e-07
9.326e-08
7.928e-08
6.853e-08
6.019e-08
5.369e-08
4.861e-08
4.463e-08
4.154e-08
3.914e-08
3.732e-08
3.598e-08
3.504e-08
3.445e-08
3.413e-08
3.419e-08
3.445e-08
3.492e-08
3.563e-08
3.655e-08
3.768e-08
3.903e-08
4.059e-08
4.237e-08
4.437e-08
4.66e-08
4.907e-08
5.178e-08
5.476e-08
5.8e-08
6.152e-08
6.534e-08
6.947e-08
7.391e-08
7.87e-08
8.383e-08
8.931e-08
9.521e-08
1.012e-07
1.109e-07
8.849e-54
-8.576e-53
6.764e-52
-5.161e-51
3.792e-50
-2.688e-49
1.845e-48
-1.231e-47
8.022e-47
-5.133e-46
3.241e-45
-2.028e-44
1.263e-43
-7.848e-43
4.878e-42
-3.036e-41
1.894e-40
-1.184e-39
7.427e-39
-4.67e-38
2.946e-37
-1.865e-36
1.186e-35
-7.574e-35
4.872e-34
-3.129e-33
1.998e-32
-1.27e-31
8.041e-31
-5.063e-30
3.17e-29
-1.972e-28
1.218e-27
-7.47e-27
4.542e-26
-2.736e-25
1.632e-24
-9.628e-24
5.624e-23
-3.191e-22
1.977e-21
-8.184e-21
2.752e-19
5.835e-18
7.327e-17
8.187e-16
8.482e-15
8.122e-14
7.141e-13
5.726e-12
4.157e-11
2.714e-10
1.584e-09
8.205e-09
3.755e-08
1.511e-07
5.321e-07
1.635e-06
4.368e-06
1.012e-05
2.039e-05
3.572e-05
5.481e-05
7.388e-05
8.943e-05
0.0001001
9.908e-05
9.374e-05
8.404e-05
7.171e-05
5.864e-05
4.626e-05
3.542e-05
2.648e-05
1.942e-05
1.405e-05
1.007e-05
7.18e-06
5.119e-06
3.662e-06
2.638e-06
1.918e-06
1.412e-06
1.055e-06
8e-07
6.17e-07
4.843e-07
3.87e-07
3.148e-07
2.608e-07
2.198e-07
1.885e-07
1.644e-07
1.456e-07
1.31e-07
1.195e-07
1.106e-07
1.036e-07
9.826e-08
9.422e-08
9.129e-08
8.931e-08
8.811e-08
8.769e-08
8.8e-08
8.882e-08
9.019e-08
9.211e-08
9.455e-08
9.751e-08
1.01e-07
1.05e-07
1.095e-07
1.145e-07
1.201e-07
1.262e-07
1.329e-07
1.403e-07
1.482e-07
1.569e-07
1.662e-07
1.762e-07
1.869e-07
1.984e-07
2.107e-07
2.239e-07
2.372e-07
2.589e-07
-2.398e-53
2.346e-52
-1.866e-51
1.436e-50
-1.065e-49
7.613e-49
-5.256e-48
3.509e-47
-2.269e-46
1.425e-45
-8.715e-45
5.21e-44
-3.057e-43
1.769e-42
-1.016e-41
5.83e-41
-3.37e-40
1.978e-39
-1.188e-38
7.333e-38
-4.664e-37
3.049e-36
-2.041e-35
1.39e-34
-9.59e-34
6.553e-33
-4.409e-32
2.926e-31
-1.919e-30
1.244e-29
-7.979e-29
5.068e-28
-3.189e-27
1.988e-26
-1.228e-25
7.52e-25
-4.563e-24
2.746e-23
-1.627e-22
1.005e-21
-3.721e-21
1.228e-19
2.857e-18
3.923e-17
4.833e-16
5.547e-15
5.912e-14
5.81e-13
5.226e-12
4.269e-11
3.143e-10
2.069e-09
1.209e-08
6.232e-08
2.813e-07
1.107e-06
3.782e-06
1.117e-05
2.846e-05
6.247e-05
0.0001186
0.000195
0.00028
0.000352
0.0004109
0.0004125
0.0003959
0.0003594
0.0003097
0.0002552
0.0002024
0.0001555
0.0001163
8.506e-05
6.115e-05
4.34e-05
3.056e-05
2.144e-05
1.505e-05
1.061e-05
7.543e-06
5.42e-06
3.947e-06
2.918e-06
2.194e-06
1.679e-06
1.309e-06
1.039e-06
8.405e-07
6.925e-07
5.81e-07
4.961e-07
4.308e-07
3.801e-07
3.407e-07
3.098e-07
2.856e-07
2.666e-07
2.52e-07
2.408e-07
2.326e-07
2.267e-07
2.231e-07
2.207e-07
2.21e-07
2.224e-07
2.25e-07
2.29e-07
2.343e-07
2.407e-07
2.484e-07
2.573e-07
2.674e-07
2.787e-07
2.913e-07
3.052e-07
3.203e-07
3.369e-07
3.548e-07
3.742e-07
3.952e-07
4.176e-07
4.417e-07
4.675e-07
4.949e-07
5.242e-07
5.537e-07
6.019e-07
8.188e-53
-7.507e-52
5.764e-51
-4.432e-50
3.382e-49
-2.552e-48
1.899e-47
-1.39e-46
9.99e-46
-7.047e-45
4.878e-44
-3.317e-43
2.217e-42
-1.459e-41
9.466e-41
-6.064e-40
3.843e-39
-2.411e-38
1.501e-37
-9.274e-37
5.696e-36
-3.48e-35
2.116e-34
-1.282e-33
7.731e-33
-4.638e-32
2.767e-31
-1.643e-30
9.717e-30
-5.721e-29
3.355e-28
-1.96e-27
1.141e-26
-6.623e-26
3.831e-25
-2.21e-24
1.271e-23
-7.269e-23
4.28e-22
-1.859e-21
3.292e-20
1.065e-18
1.634e-17
2.211e-16
2.795e-15
3.294e-14
3.598e-13
3.613e-12
3.309e-11
2.74e-10
2.033e-09
1.34e-08
7.777e-08
3.942e-07
1.733e-06
6.573e-06
2.142e-05
5.977e-05
0.0001427
0.0002925
0.0005168
0.0007884
0.001051
0.001252
0.001339
0.001304
0.001207
0.001062
0.0008945
0.0007246
0.0005675
0.0004315
0.0003198
0.0002321
0.0001655
0.0001166
8.146e-05
5.672e-05
3.953e-05
2.769e-05
1.956e-05
1.398e-05
1.013e-05
7.46e-06
5.59e-06
4.266e-06
3.317e-06
2.628e-06
2.123e-06
1.747e-06
1.464e-06
1.249e-06
1.083e-06
9.548e-07
8.547e-07
7.763e-07
7.148e-07
6.665e-07
6.29e-07
6.001e-07
5.785e-07
5.629e-07
5.528e-07
5.457e-07
5.453e-07
5.474e-07
5.526e-07
5.609e-07
5.722e-07
5.865e-07
6.035e-07
6.234e-07
6.46e-07
6.715e-07
6.998e-07
7.31e-07
7.651e-07
8.023e-07
8.426e-07
8.861e-07
9.329e-07
9.832e-07
1.037e-06
1.094e-06
1.155e-06
1.22e-06
1.285e-06
1.391e-06
1.78e-52
-1.759e-51
1.421e-50
-1.117e-49
8.511e-49
-6.283e-48
4.5e-47
-3.13e-46
2.118e-45
-1.398e-44
9.02e-44
-5.708e-43
3.555e-42
-2.187e-41
1.333e-40
-8.094e-40
4.908e-39
-2.984e-38
1.823e-37
-1.122e-36
6.961e-36
-4.356e-35
2.748e-34
-1.746e-33
1.117e-32
-7.134e-32
4.519e-31
-2.84e-30
1.773e-29
-1.101e-28
6.802e-28
-4.185e-27
2.566e-26
-1.569e-25
9.572e-25
-5.83e-24
3.549e-23
-2.146e-22
1.375e-21
-4.606e-21
1.99e-19
5.137e-18
7.868e-17
1.089e-15
1.41e-14
1.7e-13
1.896e-12
1.937e-11
1.798e-10
1.501e-09
1.115e-08
7.297e-08
4.163e-07
2.051e-06
8.653e-06
3.107e-05
9.469e-05
0.0002447
0.0005382
0.001017
0.001643
0.002315
0.002851
0.003199
0.003174
0.003026
0.002756
0.002408
0.002026
0.001647
0.001297
0.0009919
0.0007397
0.0005396
0.0003865
0.0002731
0.0001912
0.0001333
9.297e-05
6.516e-05
4.607e-05
3.295e-05
2.391e-05
1.764e-05
1.324e-05
1.013e-05
7.892e-06
6.269e-06
5.076e-06
4.187e-06
3.517e-06
3.006e-06
2.613e-06
2.308e-06
2.069e-06
1.881e-06
1.734e-06
1.618e-06
1.528e-06
1.458e-06
1.405e-06
1.366e-06
1.341e-06
1.324e-06
1.32e-06
1.324e-06
1.334e-06
1.352e-06
1.377e-06
1.409e-06
1.447e-06
1.491e-06
1.542e-06
1.599e-06
1.663e-06
1.733e-06
1.809e-06
1.893e-06
1.983e-06
2.08e-06
2.184e-06
2.295e-06
2.414e-06
2.54e-06
2.674e-06
2.816e-06
2.958e-06
3.189e-06
-5.394e-52
4.92e-51
-3.765e-50
2.888e-49
-2.201e-48
1.66e-47
-1.237e-46
9.072e-46
-6.546e-45
4.641e-44
-3.232e-43
2.211e-42
-1.486e-41
9.816e-41
-6.382e-40
4.087e-39
-2.58e-38
1.608e-37
-9.904e-37
6.034e-36
-3.64e-35
2.177e-34
-1.291e-33
7.606e-33
-4.453e-32
2.588e-31
-1.499e-30
8.651e-30
-4.983e-29
2.865e-28
-1.647e-27
9.461e-27
-5.44e-26
3.132e-25
-1.807e-24
1.046e-23
-6.061e-23
3.62e-22
-1.603e-21
3.773e-20
1.304e-18
2.2e-17
3.309e-16
4.671e-15
6.177e-14
7.595e-13
8.611e-12
8.918e-11
8.35e-10
6.988e-09
5.165e-08
3.33e-07
1.85e-06
8.745e-06
3.484e-05
0.0001163
0.000325
0.0007636
0.001527
0.002639
0.003823
0.005107
0.005741
0.005894
0.005713
0.005376
0.004932
0.004375
0.003732
0.003083
0.00247
0.001923
0.001459
0.001081
0.0007853
0.0005616
0.0003973
0.0002795
0.0001966
0.0001388
9.887e-05
7.123e-05
5.206e-05
3.867e-05
2.923e-05
2.251e-05
1.766e-05
1.412e-05
1.151e-05
9.548e-06
8.066e-06
6.931e-06
6.054e-06
5.37e-06
4.834e-06
4.411e-06
4.078e-06
3.815e-06
3.61e-06
3.451e-06
3.331e-06
3.243e-06
3.184e-06
3.146e-06
3.135e-06
3.144e-06
3.168e-06
3.208e-06
3.264e-06
3.336e-06
3.422e-06
3.522e-06
3.636e-06
3.764e-06
3.907e-06
4.063e-06
4.234e-06
4.418e-06
4.618e-06
4.832e-06
5.061e-06
5.306e-06
5.565e-06
5.84e-06
6.13e-06
6.437e-06
6.741e-06
7.234e-06
-1.495e-51
1.406e-50
-1.102e-49
8.58e-49
-6.591e-48
4.981e-47
-3.697e-46
2.692e-45
-1.922e-44
1.346e-43
-9.246e-43
6.234e-42
-4.13e-41
2.691e-40
-1.727e-39
1.093e-38
-6.831e-38
4.221e-37
-2.583e-36
1.566e-35
-9.429e-35
5.639e-34
-3.354e-33
1.986e-32
-1.172e-31
6.896e-31
-4.046e-30
2.369e-29
-1.385e-28
8.101e-28
-4.742e-27
2.781e-26
-1.635e-25
9.659e-25
-5.734e-24
3.427e-23
-2.058e-22
1.288e-21
-5.87e-21
1.347e-19
4.619e-18
7.898e-17
1.211e-15
1.742e-14
2.345e-13
2.931e-12
3.368e-11
3.523e-10
3.314e-09
2.768e-08
2.025e-07
1.277e-06
6.843e-06
3.069e-05
0.0001138
0.0003472
0.0008745
0.001845
0.003343
0.0053
0.006825
0.009632
0.01042
0.01029
0.01036
0.01032
0.009288
0.007124
0.005902
0.004969
0.004067
0.003239
0.002513
0.001901
0.001409
0.001026
0.0007381
0.0005273
0.0003762
0.0002693
0.0001943
0.0001418
0.0001049
7.885e-05
6.031e-05
4.697e-05
3.727e-05
3.011e-05
2.478e-05
2.076e-05
1.769e-05
1.533e-05
1.349e-05
1.205e-05
1.091e-05
1.002e-05
9.307e-06