/*--------------------------------*- C++ -*----------------------------------*\
  =========                 |
  \\      /  F ield         | OpenFOAM: The Open Source CFD Toolbox
   \\    /   O peration     | Website:  https://openfoam.org
    \\  /    A nd           | Version:  7
     \\/     M anipulation  |
\*---------------------------------------------------------------------------*/
FoamFile
{
    version     2.0;
    format      ascii;
    class       volScalarField;
    location    "1139.999473413131";
    object      p;
}
// * * * * * * * * * * * * * * * * * * * * * * * * * * * * * * * * * * * * * //

dimensions      [0 2 -2 0 0 0 0];

internalField   nonuniform List<scalar> 
4096
(
0.000619
0.0004481
0.0003638
0.0003217
0.0002983
0.0002844
0.0002755
0.0002694
0.0002651
0.0002618
0.0002593
0.0002572
0.0002556
0.0002542
0.0002531
0.000252
0.0002512
0.0002504
0.0002497
0.000249
0.0002484
0.0002478
0.0002473
0.0002468
0.0002463
0.0002458
0.0002453
0.0002448
0.0002443
0.0002438
0.0002433
0.0002428
0.0002422
0.0002417
0.000241
0.0002404
0.0002397
0.0002389
0.000238
0.0002371
0.000236
0.0002348
0.0002335
0.000232
0.0002303
0.0002283
0.0002261
0.0002237
0.0002209
0.0002178
0.0002143
0.0002104
0.0002062
0.0002015
0.0001964
0.0001909
0.0001849
0.0001786
0.0001718
0.0001648
0.0001574
0.0001498
0.0001421
0.0001342
0.0001263
0.0001185
0.0001108
0.0001033
9.599e-05
8.899e-05
8.231e-05
7.598e-05
7.002e-05
6.445e-05
5.928e-05
5.45e-05
5.011e-05
4.609e-05
4.244e-05
3.913e-05
3.615e-05
3.348e-05
3.108e-05
2.894e-05
2.704e-05
2.534e-05
2.382e-05
2.248e-05
2.127e-05
2.02e-05
1.923e-05
1.835e-05
1.756e-05
1.683e-05
1.615e-05
1.552e-05
1.494e-05
1.438e-05
1.384e-05
1.333e-05
1.283e-05
1.235e-05
1.187e-05
1.14e-05
1.093e-05
1.047e-05
1.001e-05
9.545e-06
9.082e-06
8.618e-06
8.152e-06
7.685e-06
7.214e-06
6.741e-06
6.264e-06
5.785e-06
5.302e-06
4.815e-06
4.325e-06
3.832e-06
3.336e-06
2.838e-06
2.338e-06
1.839e-06
1.345e-06
8.618e-07
4.057e-07
6.347e-08
0.0004745
0.0004108
0.000361
0.0003289
0.000308
0.0002937
0.0002837
0.0002764
0.0002709
0.0002667
0.0002633
0.0002607
0.0002585
0.0002567
0.0002551
0.0002538
0.0002526
0.0002516
0.0002507
0.0002498
0.0002491
0.0002483
0.0002477
0.000247
0.0002464
0.0002457
0.0002451
0.0002445
0.0002439
0.0002433
0.0002427
0.000242
0.0002414
0.0002407
0.0002399
0.0002391
0.0002383
0.0002374
0.0002364
0.0002353
0.000234
0.0002327
0.0002312
0.0002295
0.0002277
0.0002256
0.0002233
0.0002207
0.0002179
0.0002147
0.0002112
0.0002074
0.0002031
0.0001985
0.0001935
0.0001881
0.0001824
0.0001763
0.0001698
0.000163
0.000156
0.0001488
0.0001414
0.000134
0.0001265
0.000119
0.0001117
0.0001045
9.758e-05
9.088e-05
8.446e-05
7.836e-05
7.259e-05
6.718e-05
6.212e-05
5.742e-05
5.308e-05
4.908e-05
4.542e-05
4.207e-05
3.904e-05
3.628e-05
3.38e-05
3.155e-05
2.953e-05
2.771e-05
2.607e-05
2.46e-05
2.327e-05
2.206e-05
2.096e-05
1.997e-05
1.905e-05
1.821e-05
1.742e-05
1.669e-05
1.601e-05
1.536e-05
1.474e-05
1.414e-05
1.357e-05
1.302e-05
1.248e-05
1.195e-05
1.143e-05
1.091e-05
1.041e-05
9.903e-06
9.403e-06
8.906e-06
8.41e-06
7.914e-06
7.419e-06
6.924e-06
6.428e-06
5.931e-06
5.433e-06
4.934e-06
4.433e-06
3.931e-06
3.428e-06
2.924e-06
2.421e-06
1.92e-06
1.424e-06
9.373e-07
4.684e-07
8.945e-08
0.000391
0.0003694
0.0003439
0.0003232
0.0003076
0.0002959
0.000287
0.0002799
0.0002744
0.0002699
0.0002663
0.0002633
0.0002608
0.0002587
0.0002569
0.0002553
0.0002539
0.0002527
0.0002516
0.0002506
0.0002497
0.0002488
0.000248
0.0002472
0.0002464
0.0002457
0.000245
0.0002443
0.0002435
0.0002428
0.0002421
0.0002413
0.0002405
0.0002397
0.0002388
0.0002379
0.0002369
0.0002359
0.0002348
0.0002335
0.0002322
0.0002307
0.0002291
0.0002273
0.0002253
0.0002232
0.0002208
0.0002181
0.0002152
0.000212
0.0002085
0.0002046
0.0002004
0.0001959
0.000191
0.0001858
0.0001802
0.0001743
0.000168
0.0001615
0.0001548
0.0001479
0.0001409
0.0001337
0.0001266
0.0001195
0.0001125
0.0001056
9.894e-05
9.25e-05
8.633e-05
8.044e-05
7.485e-05
6.958e-05
6.464e-05
6.002e-05
5.573e-05
5.176e-05
4.81e-05
4.474e-05
4.166e-05
3.885e-05
3.629e-05
3.396e-05
3.185e-05
2.993e-05
2.818e-05
2.66e-05
2.515e-05
2.383e-05
2.262e-05
2.151e-05
2.049e-05
1.954e-05
1.866e-05
1.783e-05
1.705e-05
1.632e-05
1.561e-05
1.494e-05
1.43e-05
1.368e-05
1.308e-05
1.249e-05
1.192e-05
1.136e-05
1.081e-05
1.027e-05
9.729e-06
9.199e-06
8.672e-06
8.15e-06
7.63e-06
7.113e-06
6.597e-06
6.083e-06
5.569e-06
5.057e-06
4.544e-06
4.032e-06
3.52e-06
3.01e-06
2.5e-06
1.992e-06
1.488e-06
9.905e-07
5.014e-07
9.357e-08
0.0003463
0.0003392
0.0003259
0.0003127
0.0003019
0.0002931
0.000286
0.0002801
0.0002752
0.0002711
0.0002676
0.0002647
0.0002621
0.0002599
0.000258
0.0002563
0.0002548
0.0002535
0.0002523
0.0002512
0.0002501
0.0002491
0.0002482
0.0002473
0.0002465
0.0002457
0.0002448
0.000244
0.0002432
0.0002424
0.0002415
0.0002407
0.0002398
0.0002389
0.0002379
0.0002369
0.0002358
0.0002346
0.0002334
0.000232
0.0002306
0.000229
0.0002273
0.0002254
0.0002234
0.0002211
0.0002186
0.0002159
0.000213
0.0002097
0.0002062
0.0002024
0.0001983
0.0001938
0.000189
0.0001839
0.0001784
0.0001727
0.0001667
0.0001604
0.0001539
0.0001472
0.0001404
0.0001335
0.0001266
0.0001198
0.000113
0.0001064
9.997e-05
9.375e-05
8.777e-05
8.205e-05
7.661e-05
7.147e-05
6.663e-05
6.21e-05
5.786e-05
5.393e-05
5.028e-05
4.692e-05
4.382e-05
4.097e-05
3.837e-05
3.598e-05
3.38e-05
3.18e-05
2.998e-05
2.831e-05
2.677e-05
2.536e-05
2.407e-05
2.287e-05
2.175e-05
2.072e-05
1.975e-05
1.884e-05
1.799e-05
1.718e-05
1.641e-05
1.567e-05
1.497e-05
1.429e-05
1.363e-05
1.299e-05
1.238e-05
1.177e-05
1.118e-05
1.06e-05
1.003e-05
9.472e-06
8.918e-06
8.37e-06
7.828e-06
7.291e-06
6.757e-06
6.226e-06
5.698e-06
5.173e-06
4.649e-06
4.127e-06
3.606e-06
3.086e-06
2.568e-06
2.051e-06
1.537e-06
1.025e-06
5.164e-07
9.018e-08
0.0003194
0.0003184
0.0003115
0.0003029
0.0002951
0.0002885
0.000283
0.0002783
0.0002743
0.0002707
0.0002677
0.000265
0.0002626
0.0002605
0.0002586
0.0002569
0.0002554
0.000254
0.0002527
0.0002515
0.0002504
0.0002494
0.0002484
0.0002474
0.0002465
0.0002456
0.0002447
0.0002438
0.0002429
0.000242
0.0002411
0.0002401
0.0002391
0.0002381
0.0002371
0.000236
0.0002348
0.0002335
0.0002322
0.0002308
0.0002293
0.0002276
0.0002258
0.0002239
0.0002217
0.0002194
0.0002169
0.0002142
0.0002112
0.000208
0.0002045
0.0002007
0.0001966
0.0001922
0.0001875
0.0001824
0.0001771
0.0001715
0.0001656
0.0001595
0.0001531
0.0001466
0.00014
0.0001333
0.0001266
0.00012
0.0001134
0.000107
0.0001007
9.467e-05
8.884e-05
8.327e-05
7.796e-05
7.292e-05
6.817e-05
6.371e-05
5.953e-05
5.563e-05
5.201e-05
4.865e-05
4.555e-05
4.268e-05
4.005e-05
3.763e-05
3.54e-05
3.335e-05
3.147e-05
2.973e-05
2.814e-05
2.666e-05
2.529e-05
2.402e-05
2.284e-05
2.173e-05
2.07e-05
1.972e-05
1.88e-05
1.793e-05
1.71e-05
1.631e-05
1.555e-05
1.482e-05
1.412e-05
1.344e-05
1.278e-05
1.214e-05
1.152e-05
1.09e-05
1.031e-05
9.718e-06
9.14e-06
8.57e-06
8.008e-06
7.452e-06
6.902e-06
6.357e-06
5.816e-06
5.278e-06
4.743e-06
4.211e-06
3.681e-06
3.153e-06
2.626e-06
2.1e-06
1.574e-06
1.05e-06
5.256e-07
8.63e-08
0.000302
0.0003035
0.0003002
0.0002945
0.0002888
0.0002838
0.0002795
0.0002757
0.0002724
0.0002695
0.0002669
0.0002645
0.0002623
0.0002604
0.0002586
0.000257
0.0002555
0.0002541
0.0002529
0.0002517
0.0002505
0.0002494
0.0002484
0.0002474
0.0002464
0.0002454
0.0002445
0.0002435
0.0002426
0.0002416
0.0002406
0.0002396
0.0002386
0.0002375
0.0002364
0.0002352
0.000234
0.0002327
0.0002313
0.0002298
0.0002282
0.0002265
0.0002246
0.0002226
0.0002205
0.0002181
0.0002156
0.0002129
0.0002099
0.0002066
0.0002032
0.0001994
0.0001953
0.000191
0.0001863
0.0001814
0.0001761
0.0001706
0.0001648
0.0001588
0.0001526
0.0001462
0.0001397
0.0001332
0.0001266
0.0001201
0.0001136
0.0001074
0.0001012
9.531e-05
8.96e-05
8.414e-05
7.893e-05
7.398e-05
6.931e-05
6.49e-05
6.077e-05
5.691e-05
5.331e-05
4.997e-05
4.687e-05
4.401e-05
4.136e-05
3.892e-05
3.667e-05
3.458e-05
3.266e-05
3.089e-05
2.924e-05
2.772e-05
2.63e-05
2.497e-05
2.374e-05
2.258e-05
2.149e-05
2.046e-05
1.949e-05
1.857e-05
1.769e-05
1.685e-05
1.605e-05
1.528e-05
1.454e-05
1.383e-05
1.313e-05
1.246e-05
1.18e-05
1.117e-05
1.054e-05
9.932e-06
9.333e-06
8.744e-06
8.164e-06
7.593e-06
7.029e-06
6.471e-06
5.918e-06
5.37e-06
4.826e-06
4.285e-06
3.746e-06
3.21e-06
2.674e-06
2.14e-06
1.605e-06
1.07e-06
5.329e-07
8.348e-08
0.0002901
0.0002926
0.0002913
0.0002877
0.0002835
0.0002795
0.000276
0.0002729
0.0002702
0.0002678
0.0002656
0.0002635
0.0002617
0.0002599
0.0002583
0.0002568
0.0002554
0.0002541
0.0002528
0.0002516
0.0002505
0.0002494
0.0002483
0.0002473
0.0002463
0.0002453
0.0002443
0.0002433
0.0002423
0.0002413
0.0002403
0.0002392
0.0002381
0.000237
0.0002358
0.0002346
0.0002333
0.000232
0.0002305
0.000229
0.0002274
0.0002256
0.0002237
0.0002217
0.0002195
0.0002172
0.0002146
0.0002119
0.0002089
0.0002057
0.0002022
0.0001985
0.0001945
0.0001901
0.0001855
0.0001807
0.0001755
0.00017
0.0001643
0.0001583
0.0001522
0.0001459
0.0001395
0.000133
0.0001265
0.0001201
0.0001137
0.0001076
0.0001015
9.57e-05
9.008e-05
8.471e-05
7.957e-05
7.469e-05
7.007e-05
6.572e-05
6.163e-05
5.78e-05
5.423e-05
5.091e-05
4.783e-05
4.497e-05
4.232e-05
3.988e-05
3.761e-05
3.551e-05
3.357e-05
3.177e-05
3.01e-05
2.854e-05
2.708e-05
2.572e-05
2.445e-05
2.325e-05
2.212e-05
2.105e-05
2.004e-05
1.908e-05
1.817e-05
1.73e-05
1.646e-05
1.566e-05
1.488e-05
1.414e-05
1.342e-05
1.272e-05
1.204e-05
1.138e-05
1.074e-05
1.011e-05
9.492e-06
8.887e-06
8.294e-06
7.709e-06
7.133e-06
6.565e-06
6.002e-06
5.445e-06
4.893e-06
4.345e-06
3.799e-06
3.256e-06
2.714e-06
2.173e-06
1.631e-06
1.087e-06
5.399e-07
8.232e-08
0.0002815
0.0002842
0.0002841
0.0002819
0.0002789
0.0002757
0.0002729
0.0002703
0.000268
0.000266
0.0002641
0.0002623
0.0002607
0.0002592
0.0002577
0.0002563
0.000255
0.0002538
0.0002526
0.0002514
0.0002503
0.0002493
0.0002482
0.0002472
0.0002462
0.0002452
0.0002441
0.0002431
0.0002421
0.0002411
0.00024
0.0002389
0.0002378
0.0002366
0.0002354
0.0002342
0.0002329
0.0002315
0.00023
0.0002284
0.0002268
0.000225
0.0002231
0.0002211
0.0002189
0.0002165
0.000214
0.0002113
0.0002083
0.0002051
0.0002016
0.0001979
0.0001939
0.0001897
0.0001851
0.0001802
0.0001751
0.0001697
0.000164
0.0001581
0.0001519
0.0001457
0.0001393
0.0001328
0.0001264
0.00012
0.0001137
0.0001076
0.0001016
9.586e-05
9.031e-05
8.499e-05
7.991e-05
7.507e-05
7.05e-05
6.618e-05
6.213e-05
5.833e-05
5.479e-05
5.149e-05
4.842e-05
4.558e-05
4.295e-05
4.051e-05
3.825e-05
3.615e-05
3.42e-05
3.239e-05
3.07e-05
2.912e-05
2.765e-05
2.627e-05
2.497e-05
2.375e-05
2.259e-05
2.15e-05
2.046e-05
1.947e-05
1.853e-05
1.763e-05
1.677e-05
1.594e-05
1.515e-05
1.438e-05
1.364e-05
1.292e-05
1.222e-05
1.155e-05
1.089e-05
1.024e-05
9.613e-06
8.997e-06
8.392e-06
7.798e-06
7.213e-06
6.636e-06
6.067e-06
5.503e-06
4.945e-06
4.391e-06
3.841e-06
3.293e-06
2.746e-06
2.199e-06
1.652e-06
1.102e-06
5.474e-07
8.307e-08
0.000275
0.0002777
0.0002783
0.000277
0.0002749
0.0002724
0.0002701
0.0002679
0.0002659
0.0002642
0.0002625
0.000261
0.0002596
0.0002583
0.000257
0.0002557
0.0002545
0.0002534
0.0002523
0.0002512
0.0002501
0.0002491
0.000248
0.000247
0.000246
0.000245
0.000244
0.000243
0.0002419
0.0002409
0.0002398
0.0002387
0.0002376
0.0002364
0.0002352
0.0002339
0.0002326
0.0002312
0.0002297
0.0002281
0.0002264
0.0002247
0.0002228
0.0002207
0.0002186
0.0002162
0.0002137
0.000211
0.000208
0.0002048
0.0002014
0.0001977
0.0001938
0.0001895
0.0001849
0.0001801
0.000175
0.0001695
0.0001639
0.000158
0.0001518
0.0001455
0.0001391
0.0001327
0.0001262
0.0001198
0.0001136
0.0001075
0.0001015
9.58e-05
9.028e-05
8.499e-05
7.994e-05
7.514e-05
7.059e-05
6.63e-05
6.227e-05
5.85e-05
5.498e-05
5.171e-05
4.867e-05
4.586e-05
4.324e-05
4.082e-05
3.858e-05
3.65e-05
3.456e-05
3.275e-05
3.106e-05
2.949e-05
2.801e-05
2.662e-05
2.531e-05
2.407e-05
2.29e-05
2.179e-05
2.074e-05
1.973e-05
1.877e-05
1.786e-05
1.698e-05
1.614e-05
1.532e-05
1.454e-05
1.379e-05
1.305e-05
1.235e-05
1.166e-05
1.099e-05
1.033e-05
9.695e-06
9.071e-06
8.459e-06
7.858e-06
7.267e-06
6.685e-06
6.11e-06
5.543e-06
4.981e-06
4.423e-06
3.87e-06
3.318e-06
2.769e-06
2.219e-06
1.669e-06
1.115e-06
5.557e-07
8.593e-08
0.00027
0.0002725
0.0002735
0.0002729
0.0002714
0.0002696
0.0002676
0.0002658
0.0002641
0.0002625
0.0002611
0.0002598
0.0002585
0.0002573
0.0002561
0.000255
0.0002539
0.0002529
0.0002518
0.0002508
0.0002498
0.0002488
0.0002478
0.0002468
0.0002458
0.0002448
0.0002438
0.0002428
0.0002418
0.0002408
0.0002397
0.0002386
0.0002374
0.0002363
0.000235
0.0002338
0.0002324
0.000231
0.0002295
0.000228
0.0002263
0.0002246
0.0002227
0.0002207
0.0002185
0.0002162
0.0002137
0.000211
0.0002081
0.000205
0.0002015
0.0001979
0.0001939
0.0001897
0.0001851
0.0001803
0.0001751
0.0001697
0.000164
0.000158
0.0001518
0.0001455
0.000139
0.0001325
0.000126
0.0001196
0.0001133
0.0001072
0.0001013
9.553e-05
9.002e-05
8.473e-05
7.968e-05
7.489e-05
7.035e-05
6.607e-05
6.206e-05
5.831e-05
5.482e-05
5.158e-05
4.858e-05
4.58e-05
4.322e-05
4.083e-05
3.862e-05
3.656e-05
3.465e-05
3.286e-05
3.119e-05
2.962e-05
2.815e-05
2.677e-05
2.546e-05
2.422e-05
2.305e-05
2.193e-05
2.087e-05
1.986e-05
1.89e-05
1.797e-05
1.709e-05
1.624e-05
1.542e-05
1.463e-05
1.386e-05
1.312e-05
1.241e-05
1.171e-05
1.104e-05
1.038e-05
9.735e-06
9.107e-06
8.491e-06
7.887e-06
7.293e-06
6.708e-06
6.132e-06
5.562e-06
4.999e-06
4.44e-06
3.886e-06
3.334e-06
2.783e-06
2.233e-06
1.681e-06
1.126e-06
5.651e-07
9.105e-08
0.0002659
0.0002683
0.0002694
0.0002693
0.0002684
0.000267
0.0002654
0.0002639
0.0002624
0.000261
0.0002597
0.0002586
0.0002574
0.0002564
0.0002553
0.0002543
0.0002533
0.0002524
0.0002514
0.0002504
0.0002495
0.0002485
0.0002476
0.0002466
0.0002457
0.0002447
0.0002437
0.0002427
0.0002417
0.0002407
0.0002396
0.0002385
0.0002374
0.0002363
0.000235
0.0002338
0.0002325
0.0002311
0.0002296
0.0002281
0.0002264
0.0002247
0.0002229
0.0002209
0.0002188
0.0002165
0.000214
0.0002114
0.0002085
0.0002054
0.000202
0.0001984
0.0001944
0.0001902
0.0001856
0.0001807
0.0001755
0.00017
0.0001643
0.0001582
0.000152
0.0001455
0.000139
0.0001324
0.0001258
0.0001193
0.0001129
0.0001068
0.0001008
9.503e-05
8.949e-05
8.418e-05
7.912e-05
7.431e-05
6.976e-05
6.549e-05
6.149e-05
5.776e-05
5.431e-05
5.111e-05
4.814e-05
4.541e-05
4.288e-05
4.054e-05
3.837e-05
3.636e-05
3.448e-05
3.272e-05
3.108e-05
2.954e-05
2.809e-05
2.672e-05
2.543e-05
2.42e-05
2.304e-05
2.193e-05
2.088e-05
1.987e-05
1.89e-05
1.798e-05
1.709e-05
1.624e-05
1.542e-05
1.463e-05
1.387e-05
1.313e-05
1.241e-05
1.171e-05
1.104e-05
1.038e-05
9.734e-06
9.105e-06
8.488e-06
7.884e-06
7.291e-06
6.706e-06
6.131e-06
5.562e-06
4.999e-06
4.442e-06
3.889e-06
3.338e-06
2.789e-06
2.24e-06
1.69e-06
1.136e-06
5.757e-07
9.85e-08
0.0002626
0.0002648
0.000266
0.0002663
0.0002657
0.0002647
0.0002635
0.0002622
0.0002609
0.0002597
0.0002585
0.0002575
0.0002565
0.0002555
0.0002546
0.0002536
0.0002527
0.0002518
0.0002509
0.0002501
0.0002492
0.0002483
0.0002474
0.0002465
0.0002455
0.0002446
0.0002437
0.0002427
0.0002417
0.0002407
0.0002397
0.0002386
0.0002375
0.0002364
0.0002352
0.0002339
0.0002327
0.0002313
0.0002299
0.0002284
0.0002268
0.0002251
0.0002233
0.0002214
0.0002193
0.0002171
0.0002147
0.0002121
0.0002093
0.0002062
0.0002029
0.0001993
0.0001953
0.0001911
0.0001865
0.0001815
0.0001763
0.0001707
0.0001648
0.0001587
0.0001523
0.0001457
0.000139
0.0001322
0.0001255
0.0001188
0.0001124
0.0001061
0.0001001
9.429e-05
8.869e-05
8.333e-05
7.822e-05
7.337e-05
6.881e-05
6.453e-05
6.054e-05
5.684e-05
5.342e-05
5.027e-05
4.736e-05
4.469e-05
4.222e-05
3.995e-05
3.784e-05
3.588e-05
3.406e-05
3.235e-05
3.075e-05
2.925e-05
2.783e-05
2.649e-05
2.523e-05
2.402e-05
2.288e-05
2.179e-05
2.075e-05
1.975e-05
1.88e-05
1.788e-05
1.7e-05
1.616e-05
1.534e-05
1.456e-05
1.38e-05
1.306e-05
1.235e-05
1.166e-05
1.099e-05
1.033e-05
9.69e-06
9.065e-06
8.452e-06
7.851e-06
7.26e-06
6.68e-06
6.107e-06
5.542e-06
4.983e-06
4.429e-06
3.879e-06
3.332e-06
2.787e-06
2.242e-06
1.695e-06
1.144e-06
5.876e-07
1.083e-07
0.0002599
0.0002619
0.0002632
0.0002636
0.0002634
0.0002627
0.0002617
0.0002606
0.0002595
0.0002585
0.0002575
0.0002565
0.0002556
0.0002547
0.0002538
0.000253
0.0002522
0.0002513
0.0002505
0.0002497
0.0002489
0.000248
0.0002472
0.0002463
0.0002454
0.0002445
0.0002436
0.0002427
0.0002418
0.0002408
0.0002398
0.0002388
0.0002377
0.0002366
0.0002354
0.0002342
0.000233
0.0002317
0.0002303
0.0002289
0.0002273
0.0002257
0.000224
0.0002221
0.0002201
0.000218
0.0002157
0.0002132
0.0002104
0.0002074
0.0002041
0.0002005
0.0001966
0.0001924
0.0001877
0.0001827
0.0001774
0.0001717
0.0001657
0.0001594
0.0001528
0.000146
0.0001391
0.0001321
0.0001251
0.0001183
0.0001117
0.0001053
9.918e-05
9.325e-05
8.756e-05
8.212e-05
7.694e-05
7.204e-05
6.745e-05
6.316e-05
5.918e-05
5.552e-05
5.215e-05
4.906e-05
4.623e-05
4.363e-05
4.125e-05
3.906e-05
3.703e-05
3.514e-05
3.339e-05
3.175e-05
3.021e-05
2.876e-05
2.739e-05
2.609e-05
2.486e-05
2.369e-05
2.257e-05
2.151e-05
2.049e-05
1.951e-05
1.858e-05
1.768e-05
1.682e-05
1.599e-05
1.519e-05
1.441e-05
1.366e-05
1.294e-05
1.224e-05
1.155e-05
1.089e-05
1.024e-05
9.607e-06
8.988e-06
8.382e-06
7.787e-06
7.203e-06
6.628e-06
6.062e-06
5.502e-06
4.949e-06
4.401e-06
3.857e-06
3.316e-06
2.776e-06
2.237e-06
1.696e-06
1.152e-06
6.009e-07
1.205e-07
0.0002576
0.0002594
0.0002607
0.0002613
0.0002613
0.0002608
0.0002601
0.0002593
0.0002583
0.0002574
0.0002565
0.0002556
0.0002548
0.000254
0.0002532
0.0002524
0.0002516
0.0002509
0.0002501
0.0002494
0.0002486
0.0002478
0.000247
0.0002462
0.0002454
0.0002445
0.0002437
0.0002428
0.0002419
0.000241
0.00024
0.000239
0.000238
0.0002369
0.0002358
0.0002347
0.0002335
0.0002322
0.0002309
0.0002296
0.0002281
0.0002265
0.0002249
0.0002231
0.0002213
0.0002192
0.000217
0.0002146
0.0002119
0.000209
0.0002058
0.0002023
0.0001984
0.0001941
0.0001895
0.0001844
0.000179
0.0001731
0.0001669
0.0001604
0.0001536
0.0001465
0.0001393
0.0001319
0.0001247
0.0001176
0.0001108
0.0001043
9.794e-05
9.187e-05
8.604e-05
8.048e-05
7.521e-05
7.025e-05
6.562e-05
6.133e-05
5.738e-05
5.376e-05
5.047e-05
4.746e-05
4.473e-05
4.224e-05
3.996e-05
3.787e-05
3.594e-05
3.415e-05
3.248e-05
3.092e-05
2.945e-05
2.807e-05
2.676e-05
2.551e-05
2.433e-05
2.32e-05
2.213e-05
2.11e-05
2.011e-05
1.917e-05
1.826e-05
1.738e-05
1.654e-05
1.573e-05
1.495e-05
1.42e-05
1.346e-05
1.275e-05
1.207e-05
1.14e-05
1.074e-05
1.011e-05
9.484e-06
8.876e-06
8.28e-06
7.695e-06
7.12e-06
6.554e-06
5.996e-06
5.445e-06
4.899e-06
4.359e-06
3.823e-06
3.289e-06
2.758e-06
2.226e-06
1.694e-06
1.157e-06
6.155e-07
1.349e-07
0.0002556
0.0002573
0.0002586
0.0002593
0.0002595
0.0002592
0.0002587
0.000258
0.0002573
0.0002565
0.0002557
0.0002549
0.0002541
0.0002533
0.0002526
0.0002519
0.0002512
0.0002505
0.0002498
0.0002491
0.0002484
0.0002476
0.0002469
0.0002461
0.0002454
0.0002446
0.0002438
0.0002429
0.0002421
0.0002412
0.0002403
0.0002393
0.0002384
0.0002374
0.0002363
0.0002353
0.0002341
0.000233
0.0002317
0.0002304
0.000229
0.0002276
0.0002261
0.0002244
0.0002226
0.0002207
0.0002186
0.0002163
0.0002138
0.0002111
0.000208
0.0002045
0.0002007
0.0001965
0.0001918
0.0001867
0.0001811
0.0001751
0.0001686
0.0001618
0.0001547
0.0001473
0.0001396
0.0001319
0.0001242
0.0001168
0.0001096
0.0001028
9.629e-05
9.002e-05
8.402e-05
7.832e-05
7.295e-05
6.793e-05
6.328e-05
5.9e-05
5.509e-05
5.155e-05
4.836e-05
4.547e-05
4.287e-05
4.051e-05
3.836e-05
3.64e-05
3.459e-05
3.291e-05
3.135e-05
2.988e-05
2.85e-05
2.72e-05
2.596e-05
2.478e-05
2.365e-05
2.258e-05
2.155e-05
2.057e-05
1.962e-05
1.871e-05
1.784e-05
1.7e-05
1.619e-05
1.54e-05
1.465e-05
1.391e-05
1.32e-05
1.251e-05
1.184e-05
1.119e-05
1.055e-05
9.934e-06
9.326e-06
8.732e-06
8.149e-06
7.576e-06
7.013e-06
6.458e-06
5.91e-06
5.37e-06
4.835e-06
4.304e-06
3.778e-06
3.254e-06
2.732e-06
2.211e-06
1.688e-06
1.162e-06
6.313e-07
1.514e-07
0.000254
0.0002556
0.0002568
0.0002576
0.0002579
0.0002578
0.0002574
0.0002569
0.0002563
0.0002556
0.0002549
0.0002542
0.0002535
0.0002528
0.0002521
0.0002515
0.0002508
0.0002502
0.0002495
0.0002489
0.0002482
0.0002475
0.0002468
0.0002461
0.0002454
0.0002446
0.0002439
0.0002431
0.0002423
0.0002415
0.0002406
0.0002398
0.0002389
0.0002379
0.000237
0.0002359
0.0002349
0.0002338
0.0002327
0.0002314
0.0002302
0.0002288
0.0002274
0.0002259
0.0002243
0.0002225
0.0002206
0.0002185
0.0002161
0.0002135
0.0002106
0.0002073
0.0002036
0.0001995
0.0001948
0.0001897
0.000184
0.0001778
0.000171
0.0001639
0.0001563
0.0001484
0.0001402
0.0001319
0.0001235
0.0001156
0.0001081
0.0001009
9.406e-05
8.753e-05
8.133e-05
7.549e-05
7.003e-05
6.497e-05
6.033e-05
5.61e-05
5.228e-05
4.886e-05
4.58e-05
4.307e-05
4.063e-05
3.844e-05
3.646e-05
3.465e-05
3.299e-05
3.144e-05
3e-05
2.865e-05
2.737e-05
2.616e-05
2.5e-05
2.39e-05
2.284e-05
2.183e-05
2.086e-05
1.993e-05
1.903e-05
1.817e-05
1.733e-05
1.653e-05
1.575e-05
1.5e-05
1.428e-05
1.357e-05
1.289e-05
1.222e-05
1.158e-05
1.094e-05
1.033e-05
9.725e-06
9.136e-06
8.558e-06
7.99e-06
7.433e-06
6.883e-06
6.342e-06
5.807e-06
5.279e-06
4.756e-06
4.238e-06
3.723e-06
3.21e-06
2.7e-06
2.19e-06
1.679e-06
1.166e-06
6.482e-07
1.699e-07
0.0002526
0.0002541
0.0002553
0.0002561
0.0002565
0.0002565
0.0002563
0.0002559
0.0002554
0.0002548
0.0002542
0.0002536
0.000253
0.0002523
0.0002517
0.0002511
0.0002505
0.0002499
0.0002493
0.0002487
0.0002481
0.0002474
0.0002468
0.0002461
0.0002455
0.0002448
0.0002441
0.0002434
0.0002426
0.0002419
0.0002411
0.0002403
0.0002394
0.0002386
0.0002377
0.0002367
0.0002358
0.0002348
0.0002337
0.0002326
0.0002315
0.0002303
0.000229
0.0002276
0.0002262
0.0002246
0.0002229
0.000221
0.0002189
0.0002165
0.0002138
0.0002107
0.0002072
0.0002032
0.0001987
0.0001935
0.0001878
0.0001814
0.0001744
0.0001669
0.0001588
0.0001503
0.0001413
0.0001319
0.0001227
0.0001139
0.0001058
9.818e-05
9.096e-05
8.414e-05
7.776e-05
7.183e-05
6.633e-05
6.128e-05
5.67e-05
5.257e-05
4.89e-05
4.565e-05
4.278e-05
4.026e-05
3.804e-05
3.605e-05
3.427e-05
3.264e-05
3.115e-05
2.977e-05
2.847e-05
2.724e-05
2.608e-05
2.497e-05
2.391e-05
2.289e-05
2.191e-05
2.097e-05
2.007e-05
1.919e-05
1.835e-05
1.754e-05
1.675e-05
1.599e-05
1.526e-05
1.454e-05
1.385e-05
1.318e-05
1.252e-05
1.189e-05
1.127e-05
1.066e-05
1.007e-05
9.486e-06
8.917e-06
8.358e-06
7.809e-06
7.268e-06
6.735e-06
6.209e-06
5.689e-06
5.175e-06
4.666e-06
4.161e-06
3.659e-06
3.16e-06
2.662e-06
2.165e-06
1.668e-06
1.169e-06
6.661e-07
1.9e-07
0.0002514
0.0002528
0.000254
0.0002548
0.0002552
0.0002554
0.0002553
0.000255
0.0002546
0.0002542
0.0002536
0.0002531
0.0002525
0.000252
0.0002514
0.0002508
0.0002503
0.0002497
0.0002491
0.0002486
0.000248
0.0002474
0.0002468
0.0002462
0.0002456
0.000245
0.0002443
0.0002437
0.000243
0.0002423
0.0002416
0.0002408
0.0002401
0.0002393
0.0002385
0.0002376
0.0002368
0.0002358
0.0002349
0.0002339
0.0002329
0.0002318
0.0002307
0.0002295
0.0002283
0.0002269
0.0002254
0.0002238
0.0002219
0.0002199
0.0002175
0.0002147
0.0002115
0.0002077
0.0002034
0.0001985
0.0001929
0.0001865
0.0001793
0.0001714
0.0001628
0.0001534
0.0001432
0.0001322
0.0001214
0.0001113
0.0001023
9.412e-05
8.654e-05
7.949e-05
7.304e-05
6.712e-05
6.169e-05
5.676e-05
5.232e-05
4.839e-05
4.493e-05
4.193e-05
3.932e-05
3.706e-05
3.51e-05
3.336e-05
3.181e-05
3.041e-05
2.911e-05
2.79e-05
2.676e-05
2.568e-05
2.465e-05
2.365e-05
2.27e-05
2.177e-05
2.088e-05
2.002e-05
1.918e-05
1.838e-05
1.759e-05
1.684e-05
1.61e-05
1.539e-05
1.47e-05
1.403e-05
1.338e-05
1.274e-05
1.212e-05
1.151e-05
1.092e-05
1.034e-05
9.777e-06
9.22e-06
8.674e-06
8.136e-06
7.607e-06
7.085e-06
6.57e-06
6.061e-06
5.558e-06
5.059e-06
4.565e-06
4.075e-06
3.587e-06
3.102e-06
2.619e-06
2.137e-06
1.654e-06
1.171e-06
6.848e-07
2.115e-07
0.0002503
0.0002517
0.0002528
0.0002536
0.0002542
0.0002544
0.0002544
0.0002543
0.000254
0.0002536
0.0002531
0.0002526
0.0002521
0.0002516
0.0002511
0.0002506
0.0002501
0.0002495
0.000249
0.0002485
0.000248
0.0002474
0.0002469
0.0002463
0.0002458
0.0002452
0.0002446
0.000244
0.0002434
0.0002428
0.0002421
0.0002414
0.0002408
0.0002401
0.0002393
0.0002386
0.0002378
0.000237
0.0002362
0.0002353
0.0002345
0.0002335
0.0002326
0.0002316
0.0002305
0.0002294
0.0002282
0.0002269
0.0002254
0.0002236
0.0002216
0.0002193
0.0002164
0.0002131
0.0002092
0.0002047
0.0001994
0.0001933
0.0001863
0.0001783
0.0001693
0.0001589
0.0001467
0.0001328
0.0001189
0.0001068
9.66e-05
8.781e-05
8.009e-05
7.309e-05
6.684e-05
6.118e-05
5.601e-05
5.134e-05
4.719e-05
4.355e-05
4.04e-05
3.772e-05
3.544e-05
3.351e-05
3.186e-05
3.042e-05
2.914e-05
2.797e-05
2.69e-05
2.589e-05
2.492e-05
2.399e-05
2.31e-05
2.223e-05
2.138e-05
2.056e-05
1.976e-05
1.898e-05
1.823e-05
1.749e-05
1.678e-05
1.608e-05
1.54e-05
1.474e-05
1.41e-05
1.347e-05
1.286e-05
1.227e-05
1.168e-05
1.111e-05
1.055e-05
1e-05
9.464e-06
8.934e-06
8.412e-06
7.897e-06
7.39e-06
6.888e-06
6.393e-06
5.902e-06
5.416e-06
4.935e-06
4.457e-06
3.982e-06
3.51e-06
3.04e-06
2.572e-06
2.106e-06
1.639e-06
1.172e-06
7.04e-07
2.34e-07
0.0002495
0.0002507
0.0002518
0.0002527
0.0002532
0.0002535
0.0002536
0.0002536
0.0002534
0.000253
0.0002527
0.0002523
0.0002518
0.0002514
0.0002509
0.0002504
0.0002499
0.0002494
0.000249
0.0002485
0.000248
0.0002475
0.000247
0.0002465
0.000246
0.0002455
0.0002449
0.0002444
0.0002438
0.0002433
0.0002427
0.0002421
0.0002415
0.0002409
0.0002402
0.0002396
0.0002389
0.0002382
0.0002375
0.0002368
0.0002361
0.0002353
0.0002346
0.0002338
0.000233
0.0002321
0.0002312
0.0002302
0.000229
0.0002277
0.0002262
0.0002243
0.000222
0.0002193
0.000216
0.0002121
0.0002076
0.0002023
0.000196
0.0001888
0.0001807
0.0001694
0.000154
0.0001339
0.0001137
9.81e-05
8.656e-05
7.78e-05
7.089e-05
6.444e-05
5.89e-05
5.394e-05
4.93e-05
4.508e-05
4.135e-05
3.811e-05
3.536e-05
3.308e-05
3.121e-05
2.966e-05
2.837e-05
2.727e-05
2.629e-05
2.54e-05
2.456e-05
2.376e-05
2.298e-05
2.221e-05
2.146e-05
2.073e-05
2e-05
1.928e-05
1.858e-05
1.789e-05
1.722e-05
1.656e-05
1.591e-05
1.528e-05
1.466e-05
1.406e-05
1.347e-05
1.289e-05
1.232e-05
1.177e-05
1.122e-05
1.069e-05
1.016e-05
9.644e-06
9.134e-06
8.632e-06
8.136e-06
7.646e-06
7.161e-06
6.681e-06
6.206e-06
5.735e-06
5.268e-06
4.803e-06
4.342e-06
3.884e-06
3.428e-06
2.975e-06
2.523e-06
2.072e-06
1.622e-06
1.173e-06
7.235e-07
2.572e-07
0.0002487
0.0002499
0.000251
0.0002518
0.0002524
0.0002528
0.0002529
0.0002529
0.0002528
0.0002526
0.0002523
0.0002519
0.0002515
0.0002511
0.0002507
0.0002503
0.0002498
0.0002494
0.0002489
0.0002485
0.0002481
0.0002476
0.0002472
0.0002467
0.0002462
0.0002458
0.0002453
0.0002448
0.0002443
0.0002438
0.0002433
0.0002428
0.0002423
0.0002417
0.0002412
0.0002406
0.0002401
0.0002395
0.0002389
0.0002383
0.0002378
0.0002372
0.0002366
0.000236
0.0002354
0.0002348
0.0002342
0.0002336
0.0002328
0.000232
0.000231
0.0002297
0.000228
0.0002259
0.0002234
0.0002204
0.0002171
0.0002133
0.0002089
0.000202
0.0001959
0.0001892
0.0001745
0.0001379
9.793e-05
7.91e-05
7.141e-05
6.615e-05
6.016e-05
5.332e-05
4.922e-05
4.549e-05
4.17e-05
3.814e-05
3.496e-05
3.222e-05
2.994e-05
2.813e-05
2.671e-05
2.561e-05
2.472e-05
2.398e-05
2.333e-05
2.273e-05
2.214e-05
2.156e-05
2.097e-05
2.038e-05
1.978e-05
1.917e-05
1.857e-05
1.796e-05
1.736e-05
1.676e-05
1.617e-05
1.559e-05
1.501e-05
1.445e-05
1.389e-05
1.335e-05
1.281e-05
1.228e-05
1.176e-05
1.125e-05
1.075e-05
1.025e-05
9.758e-06
9.274e-06
8.795e-06
8.321e-06
7.852e-06
7.387e-06
6.926e-06
6.468e-06
6.014e-06
5.563e-06
5.114e-06
4.668e-06
4.225e-06
3.783e-06
3.344e-06
2.907e-06
2.471e-06
2.037e-06
1.605e-06
1.173e-06
7.429e-07
2.807e-07
0.0002481
0.0002492
0.0002503
0.0002511
0.0002517
0.0002521
0.0002523
0.0002524
0.0002523
0.0002522
0.000252
0.0002517
0.0002513
0.000251
0.0002506
0.0002502
0.0002498
0.0002494
0.000249
0.0002486
0.0002481
0.0002477
0.0002473
0.0002469
0.0002465
0.0002461
0.0002457
0.0002452
0.0002448
0.0002444
0.0002439
0.0002435
0.0002431
0.0002426
0.0002422
0.0002417
0.0002412
0.0002408
0.0002403
0.0002399
0.0002394
0.000239
0.0002386
0.0002382
0.0002379
0.0002376
0.0002373
0.000237
0.0002366
0.0002363
0.0002358
0.0002351
0.0002341
0.0002327
0.000231
0.000229
0.000227
0.0002249
0.0002217
0.0002189
0.0002018
0.0001551
0.0001466
0.0001307
0.0001104
0.0001079
9.858e-05
6.272e-05
4.592e-05
4.157e-05
3.963e-05
3.641e-05
3.365e-05
3.086e-05
2.83e-05
2.609e-05
2.431e-05
2.3e-05
2.209e-05
2.146e-05
2.101e-05
2.066e-05
2.034e-05
2.003e-05
1.97e-05
1.934e-05
1.894e-05
1.852e-05
1.807e-05
1.76e-05
1.712e-05
1.662e-05
1.612e-05
1.562e-05
1.511e-05
1.461e-05
1.411e-05
1.361e-05
1.312e-05
1.263e-05
1.215e-05
1.167e-05
1.12e-05
1.073e-05
1.027e-05
9.806e-06
9.351e-06
8.9e-06
8.452e-06
8.007e-06
7.565e-06
7.126e-06
6.688e-06
6.253e-06
5.82e-06
5.389e-06
4.96e-06
4.532e-06
4.106e-06
3.681e-06
3.259e-06
2.838e-06
2.419e-06
2.002e-06
1.586e-06
1.173e-06
7.622e-07
3.04e-07
0.0002475
0.0002487
0.0002497
0.0002505
0.0002511
0.0002515
0.0002518
0.0002519
0.0002519
0.0002518
0.0002517
0.0002514
0.0002511
0.0002508
0.0002505
0.0002501
0.0002498
0.0002494
0.000249
0.0002486
0.0002483
0.0002479
0.0002475
0.0002471
0.0002468
0.0002464
0.000246
0.0002457
0.0002453
0.0002449
0.0002446
0.0002442
0.0002438
0.0002435
0.0002431
0.0002427
0.0002424
0.000242
0.0002417
0.0002414
0.0002411
0.0002408
0.0002406
0.0002404
0.0002403
0.0002402
0.0002402
0.0002402
0.0002403
0.0002404
0.0002405
0.0002403
0.0002399
0.0002391
0.0002379
0.0002365
0.0002353
0.0002351
0.0002297
0.0001884
0.0001608
0.0001153
0.0001083
0.000117
0.0001325
0.0001366
0.0001287
9.751e-05
8.751e-05
4.137e-05
3.059e-05
2.95e-05
2.594e-05
2.368e-05
2.171e-05
1.997e-05
1.867e-05
1.787e-05
1.747e-05
1.733e-05
1.733e-05
1.737e-05
1.74e-05
1.738e-05
1.729e-05
1.715e-05
1.694e-05
1.668e-05
1.638e-05
1.604e-05
1.568e-05
1.529e-05
1.489e-05
1.448e-05
1.406e-05
1.363e-05
1.321e-05
1.278e-05
1.235e-05
1.192e-05
1.149e-05
1.106e-05
1.064e-05
1.021e-05
9.789e-06
9.368e-06
8.949e-06
8.53e-06
8.113e-06
7.697e-06
7.282e-06
6.867e-06
6.454e-06
6.041e-06
5.629e-06
5.217e-06
4.807e-06
4.397e-06
3.988e-06
3.581e-06
3.174e-06
2.77e-06
2.367e-06
1.966e-06
1.568e-06
1.173e-06
7.808e-07
3.269e-07
0.0002471
0.0002482
0.0002492
0.00025
0.0002506
0.0002511
0.0002514
0.0002515
0.0002516
0.0002515
0.0002514
0.0002512
0.000251
0.0002507
0.0002504
0.0002501
0.0002498
0.0002494