/*--------------------------------*- C++ -*----------------------------------*\
  =========                 |
  \\      /  F ield         | OpenFOAM: The Open Source CFD Toolbox
   \\    /   O peration     | Website:  https://openfoam.org
    \\  /    A nd           | Version:  7
     \\/     M anipulation  |
\*---------------------------------------------------------------------------*/
FoamFile
{
    version     2.0;
    format      ascii;
    class       surfaceScalarField;
    location    "1139.999473413131";
    object      phi;
}
// * * * * * * * * * * * * * * * * * * * * * * * * * * * * * * * * * * * * * //

dimensions      [0 3 -1 0 0 0 0];

internalField   nonuniform List<scalar> 
8032
(
6.857e-10
2.518e-10
4.804e-10
2.053e-10
3.48e-10
1.324e-10
2.643e-10
8.372e-11
2.101e-10
5.416e-11
1.737e-10
3.636e-11
1.483e-10
2.55e-11
1.296e-10
1.864e-11
1.155e-10
1.413e-11
1.045e-10
1.102e-11
9.569e-11
8.782e-12
8.857e-11
7.118e-12
8.273e-11
5.839e-12
7.79e-11
4.831e-12
7.388e-11
4.019e-12
7.053e-11
3.351e-12
6.774e-11
2.792e-12
6.542e-11
2.317e-12
6.351e-11
1.908e-12
6.196e-11
1.549e-12
6.073e-11
1.231e-12
5.979e-11
9.438e-13
5.911e-11
6.811e-13
5.867e-11
4.371e-13
5.846e-11
2.071e-13
5.848e-11
-1.289e-14
5.87e-11
-2.264e-13
5.914e-11
-4.365e-13
5.979e-11
-6.457e-13
6.064e-11
-8.564e-13
6.171e-11
-1.071e-12
6.3e-11
-1.29e-12
6.452e-11
-1.517e-12
6.627e-11
-1.751e-12
6.827e-11
-1.995e-12
7.052e-11
-2.249e-12
7.303e-11
-2.513e-12
7.582e-11
-2.788e-12
7.889e-11
-3.072e-12
8.226e-11
-3.365e-12
8.592e-11
-3.666e-12
8.989e-11
-3.971e-12
9.417e-11
-4.278e-12
9.875e-11
-4.584e-12
1.036e-10
-4.883e-12
1.088e-10
-5.17e-12
1.142e-10
-5.439e-12
1.199e-10
-5.682e-12
1.258e-10
-5.892e-12
1.319e-10
-6.058e-12
1.381e-10
-6.173e-12
1.443e-10
-6.227e-12
1.505e-10
-6.211e-12
1.566e-10
-6.116e-12
1.625e-10
-5.935e-12
1.682e-10
-5.662e-12
1.735e-10
-5.295e-12
1.783e-10
-4.832e-12
1.826e-10
-4.276e-12
1.862e-10
-3.635e-12
1.892e-10
-2.919e-12
1.913e-10
-2.141e-12
1.926e-10
-1.32e-12
1.931e-10
-4.748e-13
1.927e-10
3.735e-13
1.915e-10
1.204e-12
1.895e-10
1.999e-12
1.868e-10
2.741e-12
1.834e-10
3.418e-12
1.793e-10
4.02e-12
1.748e-10
4.542e-12
1.698e-10
4.981e-12
1.645e-10
5.336e-12
1.589e-10
5.609e-12
1.531e-10
5.804e-12
1.471e-10
5.924e-12
1.412e-10
5.975e-12
1.352e-10
5.965e-12
1.293e-10
5.899e-12
1.235e-10
5.784e-12
1.179e-10
5.628e-12
1.125e-10
5.438e-12
1.072e-10
5.22e-12
1.023e-10
4.981e-12
9.752e-11
4.728e-12
9.306e-11
4.465e-12
8.886e-11
4.196e-12
8.494e-11
3.927e-12
8.128e-11
3.661e-12
7.788e-11
3.4e-12
7.473e-11
3.147e-12
7.182e-11
2.904e-12
6.915e-11
2.671e-12
6.67e-11
2.451e-12
6.446e-11
2.242e-12
6.241e-11
2.047e-12
6.055e-11
1.864e-12
5.885e-11
1.695e-12
5.732e-11
1.537e-12
5.593e-11
1.392e-12
5.467e-11
1.258e-12
5.353e-11
1.135e-12
5.251e-11
1.022e-12
5.159e-11
9.188e-13
5.077e-11
8.248e-13
5.003e-11
7.393e-13
4.937e-11
6.616e-13
4.878e-11
5.912e-13
4.825e-11
5.276e-13
4.778e-11
4.701e-13
4.736e-11
4.183e-13
4.699e-11
3.719e-13
4.666e-11
3.303e-13
4.636e-11
2.932e-13
4.61e-11
2.604e-13
4.587e-11
2.315e-13
4.567e-11
2.066e-13
4.548e-11
1.853e-13
4.531e-11
1.679e-13
4.516e-11
1.544e-13
4.501e-11
1.451e-13
4.487e-11
1.408e-13
4.473e-11
1.427e-13
4.458e-11
1.531e-13
4.44e-11
1.765e-13
4.418e-11
2.202e-13
4.389e-11
2.925e-13
3.801e-13
9.523e-10
2.37e-10
8.501e-10
3.075e-10
7.275e-10
2.551e-10
6.183e-10
1.929e-10
5.294e-10
1.43e-10
4.593e-10
1.065e-10
4.042e-10
8.052e-11
3.608e-10
6.212e-11
3.26e-10
4.888e-11
2.979e-10
3.913e-11
2.749e-10
3.179e-11
2.559e-10
2.612e-11
2.401e-10
2.165e-11
2.269e-10
1.805e-11
2.158e-10
1.511e-11
2.065e-10
1.266e-11
1.987e-10
1.059e-11
1.922e-10
8.821e-12
1.868e-10
7.284e-12
1.824e-10
5.93e-12
1.789e-10
4.722e-12
1.762e-10
3.629e-12
1.743e-10
2.627e-12
1.73e-10
1.694e-12
1.724e-10
8.129e-13
1.724e-10
-3.034e-14
1.731e-10
-8.487e-13
1.743e-10
-1.653e-12
1.761e-10
-2.454e-12
1.785e-10
-3.258e-12
1.815e-10
-4.075e-12
1.851e-10
-4.91e-12
1.894e-10
-5.769e-12
1.943e-10
-6.657e-12
1.999e-10
-7.576e-12
2.061e-10
-8.53e-12
2.131e-10
-9.52e-12
2.209e-10
-1.054e-11
2.294e-10
-1.16e-11
2.388e-10
-1.269e-11
2.489e-10
-1.38e-11
2.598e-10
-1.492e-11
2.716e-10
-1.605e-11
2.842e-10
-1.716e-11
2.976e-10
-1.825e-11
3.117e-10
-1.928e-11
3.265e-10
-2.025e-11
3.419e-10
-2.111e-11
3.579e-10
-2.184e-11
3.742e-10
-2.242e-11
3.908e-10
-2.28e-11
4.076e-10
-2.296e-11
4.242e-10
-2.286e-11
4.406e-10
-2.247e-11
4.564e-10
-2.177e-11
4.715e-10
-2.074e-11
4.856e-10
-1.937e-11
4.984e-10
-1.766e-11
5.097e-10
-1.562e-11
5.194e-10
-1.328e-11
5.271e-10
-1.067e-11
5.328e-10
-7.838e-12
5.363e-10
-4.856e-12
5.377e-10
-1.789e-12
5.367e-10
1.292e-12
5.336e-10
4.313e-12
5.284e-10
7.209e-12
5.212e-10
9.923e-12
5.122e-10
1.241e-11
5.016e-10
1.463e-11
4.896e-10
1.657e-11
4.764e-10
1.82e-11
4.622e-10
1.954e-11
4.472e-10
2.058e-11
4.317e-10
2.134e-11
4.158e-10
2.183e-11
3.997e-10
2.206e-11
3.836e-10
2.206e-11
3.676e-10
2.186e-11
3.519e-10
2.148e-11
3.366e-10
2.094e-11
3.218e-10
2.028e-11
3.075e-10
1.95e-11
2.938e-10
1.865e-11
2.808e-10
1.774e-11
2.685e-10
1.678e-11
2.569e-10
1.581e-11
2.46e-10
1.482e-11
2.358e-10
1.384e-11
2.263e-10
1.288e-11
2.175e-10
1.195e-11
2.094e-10
1.104e-11
2.019e-10
1.018e-11
1.95e-10
9.357e-12
1.886e-10
8.578e-12
1.828e-10
7.846e-12
1.775e-10
7.159e-12
1.727e-10
6.519e-12
1.683e-10
5.925e-12
1.644e-10
5.374e-12
1.607e-10
4.865e-12
1.575e-10
4.398e-12
1.545e-10
3.968e-12
1.519e-10
3.575e-12
1.495e-10
3.216e-12
1.473e-10
2.888e-12
1.454e-10
2.59e-12
1.437e-10
2.319e-12
1.421e-10
2.074e-12
1.408e-10
1.853e-12
1.395e-10
1.653e-12
1.384e-10
1.473e-12
1.374e-10
1.311e-12
1.366e-10
1.167e-12
1.358e-10
1.04e-12
1.351e-10
9.273e-13
1.345e-10
8.296e-13
1.339e-10
7.462e-13
1.334e-10
6.771e-13
1.329e-10
6.225e-13
1.325e-10
5.834e-13
1.321e-10
5.613e-13
1.317e-10
5.587e-13
1.312e-10
5.796e-13
1.308e-10
6.297e-13
1.303e-10
7.155e-13
1.297e-10
8.358e-13
9.495e-13
9.779e-10
1.966e-10
9.637e-10
3.217e-10
9.013e-10
3.175e-10
8.212e-10
2.73e-10
7.41e-10
2.233e-10
6.681e-10
1.794e-10
6.047e-10
1.438e-10
5.509e-10
1.16e-10
5.055e-10
9.429e-11
4.672e-10
7.737e-11
4.35e-10
6.402e-11
4.078e-10
5.335e-11
3.847e-10
4.471e-11
3.652e-10
3.761e-11
3.486e-10
3.169e-11
3.345e-10
2.671e-11
3.227e-10
2.245e-11
3.127e-10
1.876e-11
3.045e-10
1.554e-11
2.977e-10
1.268e-11
2.923e-10
1.012e-11
2.882e-10
7.789e-12
2.852e-10
5.643e-12
2.832e-10
3.64e-12
2.823e-10
1.745e-12
2.823e-10
-7.226e-14
2.833e-10
-1.837e-12
2.852e-10
-3.573e-12
2.881e-10
-5.3e-12
2.918e-10
-7.036e-12
2.966e-10
-8.795e-12
3.022e-10
-1.059e-11
3.089e-10
-1.244e-11
3.166e-10
-1.434e-11
3.253e-10
-1.631e-11
3.352e-10
-1.835e-11
3.461e-10
-2.046e-11
3.582e-10
-2.264e-11
3.715e-10
-2.488e-11
3.86e-10
-2.719e-11
4.017e-10
-2.953e-11
4.187e-10
-3.19e-11
4.369e-10
-3.427e-11
4.563e-10
-3.66e-11
4.77e-10
-3.887e-11
4.987e-10
-4.103e-11
5.215e-10
-4.303e-11
5.452e-10
-4.481e-11
5.697e-10
-4.632e-11
5.947e-10
-4.748e-11
6.202e-10
-4.824e-11
6.457e-10
-4.852e-11
6.711e-10
-4.826e-11
6.961e-10
-4.74e-11
7.202e-10
-4.589e-11
7.431e-10
-4.369e-11
7.645e-10
-4.078e-11
7.84e-10
-3.716e-11
8.013e-10
-3.286e-11
8.159e-10
-2.794e-11
8.277e-10
-2.245e-11
8.364e-10
-1.652e-11
8.418e-10
-1.027e-11
8.439e-10
-3.843e-12
8.426e-10
2.615e-12
8.379e-10
8.954e-12
8.301e-10
1.504e-11
8.193e-10
2.075e-11
8.057e-10
2.598e-11
7.896e-10
3.068e-11
7.714e-10
3.479e-11
7.514e-10
3.827e-11
7.298e-10
4.114e-11
7.07e-10
4.338e-11
6.833e-10
4.503e-11
6.59e-10
4.611e-11
6.344e-10
4.666e-11
6.097e-10
4.673e-11
5.852e-10
4.636e-11
5.611e-10
4.56e-11
5.375e-10
4.452e-11
5.146e-10
4.316e-11
4.926e-10
4.157e-11
4.714e-10
3.98e-11
4.513e-10
3.79e-11
4.322e-10
3.591e-11
4.141e-10
3.386e-11
3.971e-10
3.179e-11
3.812e-10
2.974e-11
3.664e-10
2.771e-11
3.526e-10
2.573e-11
3.399e-10
2.381e-11
3.281e-10
2.198e-11
3.172e-10
2.023e-11
3.072e-10
1.857e-11
2.98e-10
1.7e-11
2.897e-10
1.554e-11
2.82e-10
1.417e-11
2.75e-10
1.289e-11
2.687e-10
1.171e-11
2.63e-10
1.061e-11
2.578e-10
9.606e-12
2.53e-10
8.68e-12
2.488e-10
7.83e-12
2.45e-10
7.053e-12
2.415e-10
6.344e-12
2.384e-10
5.697e-12
2.356e-10
5.11e-12
2.331e-10
4.577e-12
2.309e-10
4.094e-12
2.288e-10
3.658e-12
2.271e-10
3.265e-12
2.255e-10
2.913e-12
2.24e-10
2.598e-12
2.227e-10
2.318e-12
2.216e-10
2.071e-12
2.206e-10
1.855e-12
2.197e-10
1.67e-12
2.188e-10
1.515e-12
2.18e-10
1.391e-12
2.173e-10
1.298e-12
2.167e-10
1.238e-12
2.16e-10
1.214e-12
2.154e-10
1.229e-12
2.147e-10
1.287e-12
2.14e-10
1.387e-12
2.133e-10
1.517e-12
1.622e-12
9.752e-10
1.589e-10
9.93e-10
3.039e-10
9.728e-10
3.377e-10
9.269e-10
3.189e-10
8.691e-10
2.811e-10
8.086e-10
2.399e-10
7.505e-10
2.019e-10
6.974e-10
1.691e-10
6.5e-10
1.417e-10
6.084e-10
1.19e-10
5.721e-10
1.003e-10
5.406e-10
8.484e-11
5.134e-10
7.193e-11
4.899e-10
6.108e-11
4.697e-10
5.187e-11
4.525e-10
4.398e-11
4.378e-10
3.716e-11
4.253e-10
3.119e-11
4.15e-10
2.591e-11
4.064e-10
2.12e-11
3.996e-10
1.695e-11
3.943e-10
1.305e-11
3.905e-10
9.454e-12
3.881e-10
6.079e-12
3.87e-10
2.875e-12
3.871e-10
-2.038e-13
3.885e-10
-3.2e-12
3.91e-10
-6.15e-12
3.948e-10
-9.087e-12
3.998e-10
-1.204e-11
4.061e-10
-1.503e-11
4.135e-10
-1.808e-11
4.223e-10
-2.121e-11
4.324e-10
-2.444e-11
4.439e-10
-2.777e-11
4.567e-10
-3.122e-11
4.711e-10
-3.478e-11
4.869e-10
-3.845e-11
5.042e-10
-4.222e-11
5.231e-10
-4.609e-11
5.436e-10
-5.001e-11
5.657e-10
-5.397e-11
5.893e-10
-5.792e-11
6.145e-10
-6.182e-11
6.413e-10
-6.559e-11
6.694e-10
-6.916e-11
6.988e-10
-7.246e-11
7.294e-10
-7.54e-11
7.61e-10
-7.787e-11
7.932e-10
-7.976e-11
8.26e-10
-8.097e-11
8.588e-10
-8.138e-11
8.915e-10
-8.089e-11
9.235e-10
-7.94e-11
9.544e-10
-7.683e-11
9.838e-10
-7.312e-11
1.011e-09
-6.823e-11
1.036e-09
-6.217e-11
1.058e-09
-5.498e-11
1.077e-09
-4.674e-11
1.092e-09
-3.759e-11
1.104e-09
-2.769e-11
1.111e-09
-1.726e-11
1.113e-09
-6.538e-12
1.112e-09
4.238e-12
1.106e-09
1.482e-11
1.096e-09
2.498e-11
1.082e-09
3.452e-11
1.065e-09
4.329e-11
1.044e-09
5.117e-11
1.021e-09
5.807e-11
9.952e-10
6.394e-11
9.676e-10
6.879e-11
9.384e-10
7.26e-11
9.08e-10
7.543e-11
8.768e-10
7.731e-11
8.451e-10
7.83e-11
8.134e-10
7.849e-11
7.818e-10
7.794e-11
7.506e-10
7.675e-11
7.201e-10
7.5e-11
6.905e-10
7.278e-11
6.619e-10
7.017e-11
6.345e-10
6.726e-11
6.083e-10
6.411e-11
5.834e-10
6.081e-11
5.598e-10
5.74e-11
5.376e-10
5.396e-11
5.169e-10
5.052e-11
4.974e-10
4.713e-11
4.794e-10
4.381e-11
4.626e-10
4.059e-11
4.471e-10
3.751e-11
4.327e-10
3.456e-11
4.195e-10
3.176e-11
4.074e-10
2.911e-11
3.963e-10
2.663e-11
3.862e-10
2.431e-11
3.769e-10
2.215e-11
3.685e-10
2.014e-11
3.608e-10
1.828e-11
3.539e-10
1.656e-11
3.476e-10
1.498e-11
3.419e-10
1.353e-11
3.367e-10
1.22e-11
3.321e-10
1.099e-11
3.279e-10
9.88e-12
3.242e-10
8.872e-12
3.208e-10
7.957e-12
3.177e-10
7.127e-12
3.15e-10
6.376e-12
3.126e-10
5.7e-12
3.104e-10
5.091e-12
3.085e-10
4.547e-12
3.067e-10
4.061e-12
3.052e-10
3.632e-12
3.038e-10
3.257e-12
3.025e-10
2.932e-12
3.014e-10
2.658e-12
3.003e-10
2.434e-12
2.993e-10
2.26e-12
2.984e-10
2.137e-12
2.976e-10
2.068e-12
2.968e-10
2.053e-12
2.96e-10
2.092e-12
2.952e-10
2.179e-12
2.944e-10
2.293e-12
2.381e-12
9.668e-10
1.296e-10
9.945e-10
2.762e-10
9.979e-10
3.342e-10
9.782e-10
3.387e-10
9.427e-10
3.166e-10
8.989e-10
2.837e-10
8.521e-10
2.486e-10
8.06e-10
2.152e-10
7.624e-10
1.853e-10
7.223e-10
1.591e-10
6.861e-10
1.365e-10
6.538e-10
1.171e-10
6.252e-10
1.005e-10
6.001e-10
8.619e-11
5.782e-10
7.379e-11
5.592e-10
6.298e-11
5.429e-10
5.349e-11
5.29e-10
4.509e-11
5.173e-10
3.76e-11
5.076e-10
3.084e-11
4.999e-10
2.469e-11
4.939e-10
1.902e-11
4.896e-10
1.375e-11
4.869e-10
8.787e-12
4.857e-10
4.057e-12
4.86e-10
-5.04e-13
4.878e-10
-4.953e-12
4.91e-10
-9.34e-12
4.956e-10
-1.371e-11
5.017e-10
-1.811e-11
5.092e-10
-2.256e-11
5.183e-10
-2.711e-11
5.288e-10
-3.177e-11
5.409e-10
-3.657e-11
5.547e-10
-4.152e-11
5.701e-10
-4.663e-11
5.872e-10
-5.191e-11
6.061e-10
-5.735e-11
6.268e-10
-6.293e-11
6.494e-10
-6.863e-11
6.738e-10
-7.442e-11
7.001e-10
-8.025e-11
7.282e-10
-8.605e-11
7.581e-10
-9.176e-11
7.898e-10
-9.728e-11
8.232e-10
-1.025e-10
8.58e-10
-1.073e-10
8.943e-10
-1.116e-10
9.316e-10
-1.152e-10
9.697e-10
-1.179e-10
1.008e-09
-1.196e-10
1.047e-09
-1.202e-10
1.086e-09
-1.194e-10
1.124e-09
-1.172e-10
1.16e-09
-1.134e-10
1.195e-09
-1.079e-10
1.227e-09
-1.006e-10
1.257e-09
-9.169e-11
1.283e-09
-8.11e-11
1.305e-09
-6.897e-11
1.323e-09
-5.549e-11
1.336e-09
-4.092e-11
1.344e-09
-2.557e-11
1.348e-09
-9.773e-12
1.346e-09
6.096e-12
1.339e-09
2.168e-11
1.327e-09
3.665e-11
1.311e-09
5.071e-11
1.291e-09
6.364e-11
1.267e-09
7.526e-11
1.239e-09
8.546e-11
1.209e-09
9.416e-11
1.177e-09
1.014e-10
1.142e-09
1.07e-10
1.106e-09
1.113e-10
1.069e-09
1.141e-10
1.032e-09
1.157e-10
9.945e-10
1.16e-10
9.571e-10
1.153e-10
9.202e-10
1.136e-10
8.841e-10
1.111e-10
8.489e-10
1.079e-10
8.149e-10
1.042e-10
7.823e-10
9.991e-11
7.511e-10
9.532e-11
7.214e-10
9.049e-11
6.933e-10
8.55e-11
6.668e-10
8.044e-11
6.42e-10
7.538e-11
6.187e-10
7.038e-11
5.97e-10
6.549e-11
5.769e-10
6.074e-11
5.582e-10
5.618e-11
5.409e-10
5.181e-11
5.25e-10
4.766e-11
5.104e-10
4.374e-11
4.97e-10
4.005e-11
4.847e-10
3.659e-11
4.735e-10
3.337e-11
4.633e-10
3.037e-11
4.54e-10
2.759e-11
4.455e-10
2.503e-11
4.378e-10
2.266e-11
4.308e-10
2.049e-11
4.246e-10
1.85e-11
4.189e-10
1.667e-11
4.137e-10
1.501e-11
4.091e-10
1.349e-11
4.05e-10
1.211e-11
4.012e-10
1.086e-11
3.979e-10
9.73e-12
3.949e-10
8.708e-12
3.922e-10
7.787e-12
3.898e-10
6.961e-12
3.876e-10
6.225e-12
3.856e-10
5.571e-12
3.839e-10
4.997e-12
3.823e-10
4.499e-12
3.809e-10
4.073e-12
3.796e-10
3.72e-12
3.785e-10
3.437e-12
3.774e-10
3.225e-12
3.764e-10
3.085e-12
3.754e-10
3.014e-12
3.745e-10
3.009e-12
3.736e-10
3.06e-12
3.728e-10
3.142e-12
3.207e-12
9.592e-10
1.079e-10
9.876e-10
2.478e-10
1.003e-09
3.19e-10
1e-09
3.412e-10
9.828e-10
3.341e-10
9.548e-10
3.117e-10
9.208e-10
2.826e-10
8.843e-10
2.518e-10
8.475e-10
2.22e-10
8.121e-10
1.945e-10
7.788e-10
1.697e-10
7.483e-10
1.477e-10
7.206e-10
1.282e-10
6.958e-10
1.11e-10
6.737e-10
9.581e-11
6.544e-10
8.233e-11
6.375e-10
7.032e-11
6.231e-10
5.954e-11
6.109e-10
4.981e-11
6.008e-10
4.096e-11
5.926e-10
3.283e-11
5.864e-10
2.529e-11
5.819e-10
1.822e-11
5.791e-10
1.154e-11
5.781e-10
5.14e-12
5.786e-10
-1.053e-12
5.808e-10
-7.11e-12
5.845e-10
-1.31e-11
5.899e-10
-1.907e-11
5.969e-10
-2.508e-11
6.055e-10
-3.118e-11
6.158e-10
-3.74e-11
6.278e-10
-4.378e-11
6.415e-10
-5.034e-11
6.571e-10
-5.711e-11
6.746e-10
-6.409e-11
6.94e-10
-7.129e-11
7.153e-10
-7.87e-11
7.387e-10
-8.63e-11
7.641e-10
-9.406e-11
7.916e-10
-1.019e-10
8.212e-10
-1.098e-10
8.529e-10
-1.177e-10
8.866e-10
-1.254e-10
9.222e-10
-1.329e-10
9.597e-10
-1.4e-10
9.988e-10
-1.465e-10
1.039e-09
-1.523e-10
1.081e-09
-1.571e-10
1.124e-09
-1.607e-10
1.168e-09
-1.63e-10
1.211e-09
-1.638e-10
1.254e-09
-1.627e-10
1.297e-09
-1.596e-10
1.338e-09
-1.544e-10
1.377e-09
-1.469e-10
1.413e-09
-1.371e-10
1.447e-09
-1.249e-10
1.476e-09
-1.105e-10
1.501e-09
-9.4e-11
1.521e-09
-7.567e-11
1.536e-09
-5.584e-11
1.545e-09
-3.495e-11
1.549e-09
-1.345e-11
1.547e-09
8.154e-12
1.539e-09
2.936e-11
1.526e-09
4.973e-11
1.508e-09
6.887e-11
1.485e-09
8.646e-11
1.458e-09
1.023e-10
1.428e-09
1.162e-10
1.394e-09
1.28e-10
1.357e-09
1.379e-10
1.319e-09
1.456e-10
1.278e-09
1.515e-10
1.237e-09
1.554e-10
1.195e-09
1.576e-10
1.153e-09
1.582e-10
1.111e-09
1.573e-10
1.07e-09
1.551e-10
1.029e-09
1.518e-10
9.895e-10
1.475e-10
9.512e-10
1.424e-10
9.144e-10
1.367e-10
8.793e-10
1.305e-10
8.458e-10
1.24e-10
8.14e-10
1.172e-10
7.841e-10
1.104e-10
7.56e-10
1.035e-10
7.296e-10
9.673e-11
7.05e-10
9.008e-11
6.822e-10
8.362e-11
6.609e-10
7.739e-11
6.413e-10
7.143e-11
6.232e-10
6.577e-11
6.065e-10
6.041e-11
5.912e-10
5.536e-11
5.772e-10
5.062e-11
5.644e-10
4.62e-11
5.526e-10
4.209e-11
5.419e-10
3.828e-11
5.322e-10
3.475e-11
5.234e-10
3.149e-11
5.154e-10
2.85e-11
5.081e-10
2.575e-11
5.016e-10
2.324e-11
4.956e-10
2.094e-11
4.903e-10
1.884e-11
4.855e-10
1.693e-11
4.811e-10
1.52e-11
4.772e-10
1.363e-11
4.737e-10
1.221e-11
4.706e-10
1.093e-11
4.678e-10
9.777e-12
4.652e-10
8.749e-12
4.63e-10
7.835e-12
4.609e-10
7.029e-12
4.591e-10
6.325e-12
4.575e-10
5.72e-12
4.56e-10
5.21e-12
4.546e-10
4.793e-12
4.534e-10
4.468e-12
4.522e-10
4.231e-12
4.512e-10
4.081e-12
4.502e-10
4.011e-12
4.492e-10
4.007e-12
4.483e-10
4.045e-12
4.085e-12
9.536e-10
9.182e-11
9.795e-10
2.219e-10
9.997e-10
2.988e-10
1.008e-09
3.332e-10
1.003e-09
3.387e-10
9.881e-10
3.266e-10
9.66e-10
3.047e-10
9.394e-10
2.784e-10
9.107e-10
2.508e-10
8.815e-10
2.237e-10
8.529e-10
1.983e-10
8.258e-10
1.748e-10
8.006e-10
1.534e-10
7.775e-10
1.341e-10
7.566e-10
1.167e-10
7.381e-10
1.009e-10
7.217e-10
8.665e-11
7.076e-10
7.37e-11
6.955e-10
6.186e-11
6.855e-10
5.098e-11
6.774e-10
4.089e-11
6.713e-10
3.147e-11
6.669e-10
2.258e-11
6.643e-10
1.412e-11
6.635e-10
5.984e-12
6.643e-10
-1.922e-12
6.669e-10
-9.68e-12
6.712e-10
-1.737e-11
6.772e-10
-2.505e-11
6.849e-10
-3.28e-11
6.943e-10
-4.065e-11
7.056e-10
-4.868e-11
7.187e-10
-5.69e-11
7.338e-10
-6.537e-11
7.507e-10
-7.409e-11
7.697e-10
-8.308e-11
7.908e-10
-9.236e-11
8.14e-10
-1.019e-10
8.394e-10
-1.117e-10
8.669e-10
-1.216e-10
8.968e-10
-1.317e-10
9.288e-10
-1.419e-10
9.631e-10
-1.52e-10
9.996e-10
-1.619e-10
1.038e-09
-1.715e-10
1.079e-09
-1.805e-10
1.121e-09
-1.889e-10
1.165e-09
-1.962e-10
1.21e-09
-2.024e-10
1.257e-09
-2.071e-10
1.304e-09
-2.1e-10
1.351e-09
-2.11e-10
1.398e-09
-2.096e-10
1.444e-09
-2.056e-10
1.488e-09
-1.989e-10
1.531e-09
-1.893e-10
1.571e-09
-1.767e-10
1.607e-09
-1.611e-10
1.639e-09
-1.426e-10
1.666e-09
-1.213e-10
1.688e-09
-9.77e-11
1.704e-09
-7.214e-11
1.715e-09
-4.519e-11
1.719e-09
-1.746e-11
1.716e-09
1.04e-11
1.708e-09
3.774e-11
1.694e-09
6.398e-11
1.674e-09
8.862e-11
1.649e-09
1.113e-10
1.62e-09
1.316e-10
1.587e-09
1.495e-10
1.55e-09
1.647e-10
1.51e-09
1.774e-10
1.469e-09
1.875e-10
1.425e-09
1.95e-10
1.38e-09
2.001e-10
1.335e-09
2.03e-10
1.289e-09
2.038e-10
1.244e-09
2.028e-10
1.199e-09
2e-10
1.155e-09
1.958e-10
1.112e-09
1.904e-10
1.071e-09
1.839e-10
1.031e-09
1.766e-10
9.924e-10
1.687e-10
9.56e-10
1.604e-10
9.216e-10
1.517e-10
8.89e-10
1.429e-10
8.584e-10
1.341e-10
8.297e-10
1.254e-10
8.029e-10
1.169e-10
7.78e-10
1.086e-10
7.549e-10
1.005e-10
7.334e-10
9.287e-11
7.136e-10
8.556e-11
6.954e-10
7.865e-11
6.786e-10
7.213e-11
6.632e-10
6.601e-11
6.491e-10
6.029e-11
6.363e-10
5.497e-11
6.245e-10
5.003e-11
6.138e-10
4.545e-11
6.041e-10
4.123e-11
5.952e-10
3.734e-11
5.872e-10
3.377e-11
5.799e-10
3.05e-11
5.734e-10
2.75e-11
5.675e-10
2.477e-11
5.621e-10
2.228e-11
5.573e-10
2.002e-11
5.53e-10
1.796e-11
5.491e-10
1.61e-11
5.456e-10
1.443e-11
5.424e-10
1.292e-11
5.396e-10
1.157e-11
5.371e-10
1.036e-11
5.348e-10
9.298e-12
5.328e-10
8.363e-12
5.309e-10
7.553e-12
5.293e-10
6.864e-12
5.278e-10
6.29e-12
5.264e-10
5.829e-12
5.252e-10
5.476e-12
5.24e-10
5.226e-12
5.23e-10
5.072e-12
5.22e-10
4.999e-12
5.21e-10
4.985e-12
4.996e-12
9.498e-10
7.953e-11
9.725e-10
1.992e-10
9.94e-10
2.773e-10
1.008e-09
3.194e-10
1.012e-09
3.346e-10
1.007e-09
3.315e-10
9.949e-10
3.169e-10
9.775e-10
2.958e-10
9.568e-10
2.715e-10
9.343e-10
2.462e-10
9.113e-10
2.213e-10
8.886e-10
1.975e-10
8.668e-10
1.752e-10
8.465e-10
1.545e-10
8.277e-10
1.354e-10
8.108e-10
1.179e-10
7.957e-10
1.017e-10
7.825e-10
8.689e-11
7.712e-10
7.316e-11
7.618e-10
6.041e-11
7.542e-10
4.848e-11
7.484e-10
3.724e-11
7.444e-10
2.657e-11
7.422e-10
1.635e-11
7.417e-10
6.475e-12
7.43e-10
-3.163e-12
7.459e-10
-1.266e-11
7.506e-10
-2.209e-11
7.571e-10
-3.153e-11
7.654e-10
-4.107e-11
7.755e-10
-5.076e-11
7.875e-10
-6.065e-11
8.014e-10
-7.08e-11
8.173e-10
-8.125e-11
8.352e-10
-9.201e-11
8.552e-10
-1.031e-10
8.774e-10
-1.145e-10
9.018e-10
-1.263e-10
9.285e-10
-1.384e-10
9.575e-10
-1.506e-10
9.888e-10
-1.631e-10
1.023e-09
-1.756e-10
1.059e-09
-1.88e-10
1.097e-09
-2.002e-10
1.137e-09
-2.12e-10
1.18e-09
-2.232e-10
1.225e-09
-2.335e-10
1.271e-09
-2.425e-10
1.319e-09
-2.502e-10
1.368e-09
-2.56e-10
1.417e-09
-2.596e-10
1.467e-09
-2.608e-10
1.517e-09
-2.591e-10
1.565e-09
-2.543e-10
1.612e-09
-2.461e-10
1.657e-09
-2.343e-10
1.699e-09
-2.188e-10
1.738e-09
-1.996e-10
1.772e-09
-1.767e-10
1.801e-09
-1.504e-10
1.825e-09
-1.212e-10
1.842e-09
-8.951e-11
1.853e-09
-5.609e-11
1.857e-09
-2.17e-11
1.855e-09
1.285e-11
1.846e-09
4.672e-11
1.831e-09
7.919e-11
1.81e-09
1.096e-10
1.783e-09
1.376e-10
1.752e-09
1.627e-10
1.717e-09
1.847e-10
1.678e-09
2.036e-10
1.636e-09
2.192e-10
1.592e-09
2.316e-10
1.546e-09
2.409e-10
1.499e-09
2.473e-10
1.451e-09
2.509e-10
1.403e-09
2.519e-10
1.355e-09
2.507e-10
1.308e-09
2.473e-10
1.261e-09
2.422e-10
1.216e-09
2.355e-10
1.173e-09
2.276e-10
1.131e-09
2.187e-10
1.09e-09
2.09e-10
1.052e-09
1.987e-10
1.016e-09
1.881e-10
9.813e-10
1.773e-10
9.49e-10
1.664e-10
9.187e-10
1.557e-10
8.905e-10
1.451e-10
8.641e-10
1.349e-10
8.396e-10
1.25e-10
8.17e-10
1.155e-10
7.96e-10
1.065e-10
7.767e-10
9.797e-11
7.589e-10
8.991e-11
7.426e-10
8.234e-11
7.276e-10
7.526e-11
7.139e-10
6.866e-11
7.014e-10
6.253e-11
6.9e-10
5.685e-11
6.796e-10
5.161e-11
6.702e-10
4.678e-11
6.617e-10
4.234e-11
6.539e-10
3.826e-11
6.469e-10
3.453e-11
6.405e-10
3.112e-11
6.348e-10
2.802e-11
6.296e-10
2.519e-11
6.249e-10
2.262e-11
6.207e-10
2.03e-11
6.17e-10
1.82e-11
6.136e-10
1.63e-11
6.106e-10
1.461e-11
6.078e-10
1.309e-11
6.054e-10
1.174e-11
6.032e-10
1.056e-11
6.012e-10
9.524e-12
5.994e-10
8.636e-12
5.978e-10
7.887e-12
5.964e-10
7.273e-12
5.951e-10
6.786e-12
5.939e-10
6.422e-12
5.928e-10
6.17e-12
5.918e-10
6.017e-12
5.908e-10
5.944e-12
5.925e-12
9.472e-10
6.985e-11
9.669e-10
1.794e-10
9.88e-10
2.562e-10
1.005e-09
3.026e-10
1.015e-09
3.248e-10
1.017e-09
3.291e-10
1.013e-09
3.211e-10
1.003e-09
3.053e-10
9.899e-10
2.849e-10
9.74e-10
2.622e-10
9.566e-10
2.387e-10
9.388e-10
2.154e-10
9.211e-10
1.929e-10
9.04e-10
1.715e-10
8.88e-10
1.514e-10
8.733e-10
1.326e-10
8.6e-10
1.15e-10
8.483e-10
9.861e-11
8.382e-10
8.327e-11
8.298e-10
6.886e-11
8.23e-10
5.526e-11
8.179e-10
4.234e-11
8.144e-10
2.999e-11
8.127e-10
1.809e-11
8.127e-10
6.527e-12
8.143e-10
-4.808e-12
8.177e-10
-1.601e-11
8.227e-10
-2.717e-11
8.296e-10
-3.838e-11
8.382e-10
-4.972e-11
8.487e-10
-6.125e-11
8.611e-10
-7.304e-11
8.755e-10
-8.514e-11
8.918e-10
-9.759e-11
9.102e-10
-1.104e-10
9.308e-10
-1.237e-10
9.535e-10
-1.373e-10
9.786e-10
-1.513e-10
1.006e-09
-1.657e-10
1.036e-09
-1.804e-10
1.068e-09
-1.952e-10
1.102e-09
-2.101e-10
1.139e-09
-2.25e-10
1.179e-09
-2.395e-10
1.22e-09
-2.536e-10
1.264e-09
-2.669e-10
1.31e-09
-2.792e-10
1.357e-09
-2.901e-10
1.406e-09
-2.993e-10
1.457e-09
-3.063e-10
1.508e-09
-3.107e-10
1.559e-09
-3.122e-10
1.61e-09
-3.104e-10
1.661e-09
-3.048e-10
1.71e-09
-2.951e-10
1.757e-09
-2.811e-10
1.8e-09
-2.626e-10
1.841e-09
-2.396e-10
1.876e-09
-2.123e-10
1.907e-09
-1.808e-10
1.931e-09
-1.457e-10
1.949e-09
-1.077e-10
1.961e-09
-6.745e-11
1.965e-09
-2.605e-11
1.962e-09
1.551e-11
1.953e-09
5.621e-11
1.937e-09
9.517e-11
1.915e-09
1.316e-10
1.887e-09
1.65e-10
1.855e-09
1.95e-10
1.818e-09
2.213e-10
1.778e-09
2.437e-10
1.735e-09
2.623e-10
1.69e-09
2.772e-10
1.642e-09
2.883e-10
1.594e-09
2.959e-10
1.544e-09
3.002e-10
1.495e-09
3.015e-10
1.445e-09
3e-10
1.397e-09
2.96e-10
1.349e-09
2.899e-10
1.302e-09
2.82e-10
1.257e-09
2.726e-10
1.214e-09
2.619e-10
1.173e-09
2.503e-10
1.133e-09
2.381e-10
1.096e-09
2.254e-10
1.061e-09
2.125e-10
1.028e-09
1.996e-10
9.965e-10
1.868e-10
9.674e-10
1.742e-10
9.403e-10
1.62e-10
9.151e-10
1.502e-10
8.918e-10
1.389e-10
8.702e-10
1.281e-10
8.503e-10
1.179e-10
8.319e-10
1.082e-10
8.151e-10
9.919e-11
7.996e-10
9.071e-11
7.855e-10
8.281e-11
7.725e-10
7.546e-11
7.607e-10
6.865e-11
7.5e-10
6.236e-11
7.402e-10
5.656e-11
7.313e-10
5.122e-11
7.232e-10
4.632e-11
7.159e-10
4.184e-11
7.093e-10
3.774e-11
7.034e-10
3.399e-11
6.98e-10
3.058e-11
6.931e-10
2.749e-11
6.887e-10
2.468e-11
6.848e-10
2.214e-11
6.812e-10
1.984e-11
6.781e-10
1.778e-11
6.752e-10
1.594e-11
6.727e-10
1.43e-11
6.704e-10
1.285e-11
6.683e-10
1.158e-11
6.665e-10
1.048e-11
6.648e-10
9.544e-12
6.633e-10
8.764e-12
6.62e-10
8.131e-12
6.607e-10
7.64e-12
6.596e-10
7.281e-12
6.586e-10
7.042e-12
6.576e-10
6.906e-12
6.855e-12
9.454e-10
6.2e-11
9.625e-10
1.623e-10
9.825e-10
2.362e-10
1.001e-09
2.845e-10
1.014e-09
3.114e-10
1.022e-09
3.215e-10
1.023e-09
3.192e-10
1.02e-09
3.083e-10
1.013e-09
2.919e-10
1.003e-09
2.721e-10
9.915e-10
2.506e-10
9.785e-10
2.284e-10
9.65e-10
2.064e-10
9.516e-10
1.849e-10
9.386e-10
1.643e-10
9.265e-10
1.447e-10
9.154e-10
1.261e-10
9.055e-10
1.085e-10
8.969e-10
9.186e-11
8.897e-10
7.605e-11
8.84e-10
6.099e-11
8.797e-10
4.658e-11
8.77e-10
3.27e-11
8.759e-10
1.924e-11
8.763e-10
6.089e-12
8.784e-10
-6.856e-12
8.821e-10
-1.97e-11
8.874e-10
-3.254e-11
8.945e-10
-4.546e-11
9.033e-10
-5.855e-11
9.14e-10
-7.189e-11
9.265e-10
-8.554e-11
9.409e-10
-9.957e-11
9.573e-10
-1.14e-10
9.758e-10
-1.289e-10
9.964e-10
-1.443e-10
1.019e-09
-1.601e-10
1.044e-09
-1.764e-10
1.072e-09
-1.931e-10
1.101e-09
-2.101e-10
1.134e-09
-2.274e-10
1.168e-09
-2.447e-10
1.205e-09
-2.62e-10
1.245e-09
-2.789e-10
1.286e-09
-2.953e-10
1.33e-09
-3.109e-10
1.376e-09
-3.252e-10
1.424e-09
-3.38e-10
1.474e-09
-3.488e-10
1.524e-09
-3.571e-10
1.576e-09
-3.624e-10
1.628e-09
-3.643e-10
1.68e-09
-3.623e-10
1.731e-09
-3.56e-10
1.781e-09
-3.449e-10
1.829e-09
-3.288e-10
1.874e-09
-3.074e-10
1.915e-09
-2.807e-10
1.951e-09
-2.488e-10
1.982e-09
-2.121e-10
2.008e-09
-1.71e-10
2.026e-09
-1.263e-10
2.038e-09
-7.904e-11
2.042e-09
-3.038e-11
2.039e-09
1.842e-11
2.029e-09
6.615e-11
2.013e-09
1.117e-10
1.99e-09
1.543e-10
1.962e-09
1.932e-10
1.929e-09
2.28e-10
1.892e-09
2.585e-10
1.851e-09
2.845e-10
1.807e-09
3.061e-10
1.761e-09
3.233e-10
1.713e-09
3.362e-10
1.664e-09
3.45e-10
1.614e-09
3.5e-10
1.564e-09
3.515e-10
1.514e-09
3.497e-10
1.465e-09
3.451e-10
1.417e-09
3.38e-10
1.37e-09
3.288e-10
1.325e-09
3.178e-10
1.282e-09
3.054e-10
1.24e-09
2.919e-10
1.2e-09
2.777e-10
1.163e-09
2.63e-10
1.127e-09
2.48e-10
1.094e-09
2.33e-10
1.063e-09
2.181e-10
1.034e-09
2.034e-10
1.006e-09
1.892e-10
9.812e-10
1.755e-10
9.577e-10
1.623e-10
9.36e-10
1.498e-10
9.16e-10
1.379e-10
8.975e-10
1.267e-10
8.806e-10
1.161e-10
8.65e-10
1.063e-10
8.508e-10
9.706e-11
8.377e-10
8.85e-11
8.258e-10
8.056e-11
8.15e-10
7.322e-11
8.051e-10
6.644e-11
7.961e-10
6.021e-11
7.879e-10
5.448e-11
7.805e-10
4.924e-11
7.738e-10
4.444e-11
7.678e-10
4.005e-11
7.623e-10
3.606e-11
7.574e-10
3.243e-11
7.529e-10
2.913e-11
7.489e-10
2.614e-11
7.453e-10
2.345e-11
7.421e-10
2.102e-11
7.392e-10
1.885e-11
7.366e-10
1.691e-11
7.342e-10
1.518e-11
7.321e-10
1.367e-11
7.303e-10
1.235e-11
7.286e-10
1.122e-11
7.271e-10
1.027e-11
7.257e-10
9.48e-12
7.245e-10
8.855e-12
7.234e-10
8.383e-12
7.224e-10
8.052e-12
7.215e-10
7.851e-12
7.766e-12
9.44e-10
5.545e-11
9.591e-10
1.473e-10
9.778e-10
2.175e-10
9.962e-10
2.662e-10
1.012e-09
2.96e-10
1.023e-09
3.103e-10
1.029e-09
3.127e-10
1.031e-09
3.062e-10
1.03e-09
2.936e-10
1.025e-09
2.768e-10
1.018e-09
2.575e-10
1.01e-09
2.369e-10
1e-09
2.158e-10
9.904e-10
1.947e-10
9.807e-10
1.741e-10
9.713e-10
1.541e-10
9.626e-10
1.348e-10
9.547e-10
1.164e-10
9.478e-10
9.874e-11
9.42e-10
8.18e-11
9.375e-10
6.553e-11
9.343e-10
4.983e-11
9.324e-10
3.46e-11
9.319e-10
1.974e-11
9.328e-10
5.149e-12
9.352e-10
-9.282e-12
9.392e-10
-2.365e-11
9.447e-10
-3.806e-11
9.518e-10
-5.261e-11
9.607e-10
-6.737e-11
9.712e-10
-8.244e-11
9.836e-10
-9.788e-11
9.977e-10
-1.138e-10
1.014e-09
-1.301e-10
1.032e-09
-1.47e-10
1.052e-09
-1.644e-10
1.074e-09
-1.824e-10
1.099e-09
-2.009e-10
1.126e-09
-2.199e-10
1.155e-09
-2.392e-10
1.186e-09
-2.588e-10
1.22e-09
-2.786e-10
1.256e-09
-2.982e-10
1.295e-09
-3.176e-10
1.336e-09
-3.363e-10
1.379e-09
-3.541e-10
1.424e-09
-3.705e-10
1.472e-09
-3.852e-10
1.521e-09
-3.976e-10
1.571e-09
-4.073e-10
1.622e-09
-4.136e-10
1.674e-09
-4.16e-10
1.725e-09
-4.14e-10
1.776e-09
-4.07e-10
1.826e-09
-3.946e-10
1.874e-09
-3.765e-10
1.919e-09
-3.523e-10
1.96e-09
-3.22e-10
1.997e-09
-2.856e-10
2.028e-09
-2.435e-10
2.054e-09
-1.964e-10
2.072e-09
-1.45e-10
2.084e-09
-9.062e-11
2.088e-09
-3.455e-11
2.085e-09
2.164e-11
2.075e-09
7.646e-11
2.058e-09
1.286e-10
2.035e-09
1.772e-10
2.006e-09
2.215e-10
1.973e-09
2.61e-10
1.936e-09
2.956e-10
1.896e-09
3.251e-10
1.852e-09
3.496e-10
1.807e-09
3.69e-10
1.759e-09
3.836e-10
1.71e-09
3.936e-10
1.661e-09
3.993e-10
1.612e-09
4.009e-10
1.563e-09
3.989e-10
1.514e-09
3.936e-10
1.467e-09
3.855e-10
1.421e-09
3.749e-10
1.376e-09
3.624e-10
1.333e-09
3.482e-10
1.292e-09
3.329e-10
1.253e-09
3.167e-10
1.216e-09
2.999e-10
1.181e-09
2.828e-10
1.149e-09
2.657e-10
1.118e-09
2.487e-10
1.089e-09
2.321e-10
1.063e-09
2.159e-10
1.038e-09
2.003e-10
1.015e-09
1.854e-10
9.935e-10
1.711e-10
9.739e-10
1.576e-10
9.558e-10
1.448e-10
9.391e-10
1.328e-10
9.238e-10
1.216e-10
9.098e-10
1.111e-10
8.97e-10
1.013e-10
8.853e-10
9.227e-11
8.746e-10
8.391e-11
8.649e-10
7.618e-11
8.56e-10
6.907e-11
8.479e-10
6.254e-11
8.406e-10
5.654e-11
8.34e-10
5.106e-11
8.28e-10
4.605e-11
8.226e-10
4.148e-11
8.177e-10
3.732e-11
8.133e-10
3.354e-11
8.093e-10
3.012e-11
8.058e-10
2.702e-11
8.025e-10
2.423e-11
7.997e-10
2.173e-11
7.971e-10
1.949e-11
7.948e-10
1.75e-11
7.927e-10
1.574e-11
7.908e-10
1.42e-11
7.892e-10
1.287e-11
7.877e-10
1.174e-11
7.864e-10
1.08e-11
7.852e-10
1.004e-11
7.841e-10
9.451e-12
7.832e-10
9.027e-12
7.823e-10
8.76e-12
8.642e-12
9.431e-10
4.987e-11
9.564e-10
1.339e-10
9.738e-10
2.001e-10
9.919e-10
2.481e-10
1.008e-09
2.795e-10
1.022e-09
2.968e-10
1.032e-09
3.028e-10
1.038e-09
3.001e-10
1.041e-09
2.908e-10
1.04e-09
2.77e-10
1.038e-09
2.6e-10
1.034e-09
2.412e-10
1.028e-09
2.213e-10
1.022e-09
2.01e-10
1.015e-09
1.807e-10
1.009e-09
1.607e-10
1.002e-09
1.411e-10
9.966e-10
1.222e-10
9.915e-10
1.038e-10
9.873e-10
8.603e-11
9.84e-10
6.879e-11
9.818e-10
5.203e-11
9.807e-10
3.566e-11
9.809e-10
1.959e-11
9.823e-10
3.728e-12
9.851e-10
-1.203e-11
9.892e-10
-2.778e-11
9.948e-10
-4.363e-11
1.002e-09
-5.966e-11
1.01e-09
-7.597e-11
1.021e-09
-9.265e-11
1.033e-09
-1.098e-10
1.046e-09
-1.274e-10
1.062e-09
-1.456e-10
1.079e-09
-1.643e-10
1.098e-09
-1.837e-10
1.119e-09
-2.037e-10
1.143e-09
-2.243e-10
1.168e-09
-2.454e-10
1.196e-09
-2.67e-10
1.226e-09
-2.889e-10
1.259e-09
-3.109e-10
1.293e-09
-3.329e-10
1.33e-09
-3.546e-10
1.37e-09
-3.756e-10
1.411e-09
-3.956e-10
1.455e-09
-4.141e-10
1.5e-09
-4.307e-10
1.548e-09
-4.448e-10
1.596e-09
-4.559e-10
1.646e-09
-4.632e-10
1.696e-09
-4.662e-10
1.746e-09
-4.643e-10
1.796e-09
-4.568e-10
1.845e-09
-4.433e-10