/*--------------------------------*- C++ -*----------------------------------*\
  =========                 |
  \\      /  F ield         | OpenFOAM: The Open Source CFD Toolbox
   \\    /   O peration     | Website:  https://openfoam.org
    \\  /    A nd           | Version:  7
     \\/     M anipulation  |
\*---------------------------------------------------------------------------*/
FoamFile
{
    version     2.0;
    format      ascii;
    class       volVectorField;
    location    "1139.999473413131";
    object      U;
}
// * * * * * * * * * * * * * * * * * * * * * * * * * * * * * * * * * * * * * //

dimensions      [0 1 -1 0 0 0 0];

internalField   nonuniform List<vector> 
4096
(
(0.001039 0.0001611 0)
(0.0007463 0.0001314 0)
(0.0005302 8.474e-05 0)
(0.0003918 5.358e-05 0)
(0.0003036 3.466e-05 0)
(0.0002457 2.327e-05 0)
(0.0002061 1.632e-05 0)
(0.0001778 1.193e-05 0)
(0.0001569 9.041e-06 0)
(0.0001408 7.05e-06 0)
(0.0001281 5.62e-06 0)
(0.0001179 4.555e-06 0)
(0.0001096 3.737e-06 0)
(0.0001028 3.092e-06 0)
(9.714e-05 2.572e-06 0)
(9.243e-05 2.144e-06 0)
(8.849e-05 1.787e-06 0)
(8.522e-05 1.483e-06 0)
(8.252e-05 1.221e-06 0)
(8.031e-05 9.916e-07 0)
(7.853e-05 7.878e-07 0)
(7.714e-05 6.04e-07 0)
(7.61e-05 4.359e-07 0)
(7.538e-05 2.798e-07 0)
(7.497e-05 1.326e-07 0)
(7.484e-05 -8.252e-09 0)
(7.5e-05 -1.449e-07 0)
(7.542e-05 -2.793e-07 0)
(7.611e-05 -4.132e-07 0)
(7.707e-05 -5.481e-07 0)
(7.831e-05 -6.852e-07 0)
(7.982e-05 -8.258e-07 0)
(8.162e-05 -9.707e-07 0)
(8.371e-05 -1.121e-06 0)
(8.611e-05 -1.277e-06 0)
(8.882e-05 -1.44e-06 0)
(9.187e-05 -1.609e-06 0)
(9.526e-05 -1.784e-06 0)
(9.901e-05 -1.966e-06 0)
(0.0001031 -2.154e-06 0)
(0.0001076 -2.346e-06 0)
(0.0001125 -2.541e-06 0)
(0.0001178 -2.738e-06 0)
(0.0001235 -2.934e-06 0)
(0.0001295 -3.125e-06 0)
(0.000136 -3.309e-06 0)
(0.0001428 -3.481e-06 0)
(0.0001499 -3.637e-06 0)
(0.0001573 -3.771e-06 0)
(0.0001649 -3.877e-06 0)
(0.0001728 -3.951e-06 0)
(0.0001807 -3.985e-06 0)
(0.0001887 -3.975e-06 0)
(0.0001965 -3.914e-06 0)
(0.0002043 -3.798e-06 0)
(0.0002117 -3.624e-06 0)
(0.0002187 -3.389e-06 0)
(0.0002252 -3.092e-06 0)
(0.000231 -2.737e-06 0)
(0.0002361 -2.327e-06 0)
(0.0002403 -1.868e-06 0)
(0.0002435 -1.37e-06 0)
(0.0002457 -8.448e-07 0)
(0.0002469 -3.039e-07 0)
(0.0002469 2.391e-07 0)
(0.0002459 7.708e-07 0)
(0.0002439 1.279e-06 0)
(0.0002408 1.754e-06 0)
(0.0002369 2.188e-06 0)
(0.0002321 2.573e-06 0)
(0.0002266 2.907e-06 0)
(0.0002206 3.188e-06 0)
(0.0002139 3.415e-06 0)
(0.0002069 3.59e-06 0)
(0.0001996 3.714e-06 0)
(0.0001921 3.791e-06 0)
(0.0001845 3.824e-06 0)
(0.0001769 3.817e-06 0)
(0.0001693 3.775e-06 0)
(0.0001618 3.702e-06 0)
(0.0001545 3.602e-06 0)
(0.0001474 3.48e-06 0)
(0.0001406 3.341e-06 0)
(0.0001341 3.188e-06 0)
(0.0001279 3.026e-06 0)
(0.000122 2.857e-06 0)
(0.0001164 2.686e-06 0)
(0.0001112 2.513e-06 0)
(0.0001064 2.343e-06 0)
(0.0001019 2.176e-06 0)
(9.767e-05 2.014e-06 0)
(9.379e-05 1.858e-06 0)
(9.023e-05 1.71e-06 0)
(8.695e-05 1.568e-06 0)
(8.395e-05 1.435e-06 0)
(8.12e-05 1.31e-06 0)
(7.87e-05 1.193e-06 0)
(7.642e-05 1.085e-06 0)
(7.435e-05 9.838e-07 0)
(7.248e-05 8.907e-07 0)
(7.078e-05 8.049e-07 0)
(6.925e-05 7.261e-07 0)
(6.787e-05 6.54e-07 0)
(6.663e-05 5.88e-07 0)
(6.551e-05 5.279e-07 0)
(6.451e-05 4.731e-07 0)
(6.361e-05 4.234e-07 0)
(6.281e-05 3.784e-07 0)
(6.21e-05 3.376e-07 0)
(6.146e-05 3.009e-07 0)
(6.089e-05 2.677e-07 0)
(6.038e-05 2.38e-07 0)
(5.993e-05 2.114e-07 0)
(5.953e-05 1.876e-07 0)
(5.918e-05 1.666e-07 0)
(5.887e-05 1.482e-07 0)
(5.859e-05 1.322e-07 0)
(5.833e-05 1.186e-07 0)
(5.811e-05 1.075e-07 0)
(5.79e-05 9.88e-08 0)
(5.771e-05 9.288e-08 0)
(5.753e-05 9.012e-08 0)
(5.735e-05 9.132e-08 0)
(5.716e-05 9.798e-08 0)
(5.695e-05 1.129e-07 0)
(5.669e-05 1.409e-07 0)
(5.636e-05 1.872e-07 0)
(5.593e-05 2.432e-07 0)
(0.001209 0.0003128 0)
(0.001154 0.0003282 0)
(0.00101 0.000248 0)
(0.0008613 0.0001771 0)
(0.0007345 0.0001262 0)
(0.0006327 9.141e-05 0)
(0.0005526 6.785e-05 0)
(0.0004896 5.169e-05 0)
(0.0004395 4.032e-05 0)
(0.0003993 3.209e-05 0)
(0.0003666 2.596e-05 0)
(0.0003397 2.127e-05 0)
(0.0003174 1.759e-05 0)
(0.0002989 1.464e-05 0)
(0.0002833 1.224e-05 0)
(0.0002702 1.025e-05 0)
(0.0002593 8.566e-06 0)
(0.0002501 7.129e-06 0)
(0.0002425 5.883e-06 0)
(0.0002363 4.787e-06 0)
(0.0002313 3.81e-06 0)
(0.0002273 2.927e-06 0)
(0.0002243 2.117e-06 0)
(0.0002223 1.364e-06 0)
(0.0002211 6.528e-07 0)
(0.0002207 -2.767e-08 0)
(0.0002211 -6.881e-07 0)
(0.0002223 -1.337e-06 0)
(0.0002242 -1.984e-06 0)
(0.0002269 -2.633e-06 0)
(0.0002304 -3.293e-06 0)
(0.0002346 -3.968e-06 0)
(0.0002397 -4.663e-06 0)
(0.0002455 -5.381e-06 0)
(0.0002522 -6.126e-06 0)
(0.0002598 -6.899e-06 0)
(0.0002683 -7.701e-06 0)
(0.0002778 -8.533e-06 0)
(0.0002882 -9.392e-06 0)
(0.0002996 -1.027e-05 0)
(0.0003121 -1.118e-05 0)
(0.0003256 -1.209e-05 0)
(0.0003401 -1.301e-05 0)
(0.0003557 -1.392e-05 0)
(0.0003723 -1.48e-05 0)
(0.0003899 -1.565e-05 0)
(0.0004084 -1.644e-05 0)
(0.0004278 -1.715e-05 0)
(0.0004478 -1.775e-05 0)
(0.0004685 -1.823e-05 0)
(0.0004896 -1.854e-05 0)
(0.000511 -1.868e-05 0)
(0.0005323 -1.86e-05 0)
(0.0005535 -1.829e-05 0)
(0.0005741 -1.773e-05 0)
(0.0005938 -1.69e-05 0)
(0.0006125 -1.579e-05 0)
(0.0006297 -1.439e-05 0)
(0.0006452 -1.273e-05 0)
(0.0006586 -1.082e-05 0)
(0.0006697 -8.694e-06 0)
(0.0006783 -6.387e-06 0)
(0.0006843 -3.953e-06 0)
(0.0006874 -1.449e-06 0)
(0.0006876 1.066e-06 0)
(0.000685 3.531e-06 0)
(0.0006797 5.893e-06 0)
(0.0006718 8.105e-06 0)
(0.0006614 1.013e-05 0)
(0.0006489 1.194e-05 0)
(0.0006344 1.351e-05 0)
(0.0006182 1.484e-05 0)
(0.0006007 1.592e-05 0)
(0.000582 1.676e-05 0)
(0.0005625 1.737e-05 0)
(0.0005424 1.776e-05 0)
(0.0005219 1.794e-05 0)
(0.0005013 1.794e-05 0)
(0.0004808 1.777e-05 0)
(0.0004605 1.745e-05 0)
(0.0004407 1.7e-05 0)
(0.0004214 1.646e-05 0)
(0.0004027 1.582e-05 0)
(0.0003849 1.512e-05 0)
(0.0003678 1.438e-05 0)
(0.0003516 1.36e-05 0)
(0.0003363 1.28e-05 0)
(0.0003219 1.2e-05 0)
(0.0003084 1.12e-05 0)
(0.0002958 1.042e-05 0)
(0.0002841 9.66e-06 0)
(0.0002732 8.927e-06 0)
(0.0002632 8.225e-06 0)
(0.000254 7.557e-06 0)
(0.0002455 6.925e-06 0)
(0.0002378 6.331e-06 0)
(0.0002307 5.775e-06 0)
(0.0002242 5.257e-06 0)
(0.0002183 4.775e-06 0)
(0.0002129 4.33e-06 0)
(0.0002081 3.919e-06 0)
(0.0002037 3.541e-06 0)
(0.0001997 3.194e-06 0)
(0.0001961 2.876e-06 0)
(0.0001929 2.586e-06 0)
(0.00019 2.321e-06 0)
(0.0001874 2.081e-06 0)
(0.000185 1.863e-06 0)
(0.0001829 1.665e-06 0)
(0.0001811 1.486e-06 0)
(0.0001794 1.325e-06 0)
(0.0001779 1.18e-06 0)
(0.0001766 1.051e-06 0)
(0.0001754 9.348e-07 0)
(0.0001743 8.32e-07 0)
(0.0001734 7.417e-07 0)
(0.0001725 6.632e-07 0)
(0.0001718 5.962e-07 0)
(0.0001711 5.408e-07 0)
(0.0001704 4.972e-07 0)
(0.0001699 4.663e-07 0)
(0.0001693 4.494e-07 0)
(0.0001688 4.489e-07 0)
(0.0001682 4.689e-07 0)
(0.0001677 5.159e-07 0)
(0.0001671 5.988e-07 0)
(0.0001664 7.221e-07 0)
(0.0001657 8.509e-07 0)
(0.001226 0.0002775 0)
(0.001243 0.0004027 0)
(0.001194 0.0003664 0)
(0.001102 0.0002982 0)
(0.0009998 0.0002344 0)
(0.0009018 0.000183 0)
(0.0008146 0.0001436 0)
(0.0007396 0.000114 0)
(0.0006761 9.163e-05 0)
(0.0006225 7.456e-05 0)
(0.0005774 6.132e-05 0)
(0.0005394 5.086e-05 0)
(0.0005072 4.247e-05 0)
(0.0004799 3.562e-05 0)
(0.0004568 2.995e-05 0)
(0.0004372 2.519e-05 0)
(0.0004206 2.114e-05 0)
(0.0004067 1.765e-05 0)
(0.000395 1.461e-05 0)
(0.0003854 1.191e-05 0)
(0.0003776 9.498e-06 0)
(0.0003715 7.308e-06 0)
(0.0003669 5.293e-06 0)
(0.0003637 3.414e-06 0)
(0.0003619 1.637e-06 0)
(0.0003613 -6.566e-08 0)
(0.000362 -1.719e-06 0)
(0.0003639 -3.345e-06 0)
(0.0003669 -4.962e-06 0)
(0.0003711 -6.588e-06 0)
(0.0003766 -8.237e-06 0)
(0.0003832 -9.921e-06 0)
(0.0003911 -1.165e-05 0)
(0.0004003 -1.344e-05 0)
(0.0004108 -1.529e-05 0)
(0.0004227 -1.72e-05 0)
(0.000436 -1.919e-05 0)
(0.0004507 -2.124e-05 0)
(0.000467 -2.335e-05 0)
(0.0004848 -2.552e-05 0)
(0.0005041 -2.773e-05 0)
(0.000525 -2.997e-05 0)
(0.0005476 -3.22e-05 0)
(0.0005717 -3.441e-05 0)
(0.0005973 -3.656e-05 0)
(0.0006244 -3.86e-05 0)
(0.0006529 -4.05e-05 0)
(0.0006827 -4.219e-05 0)
(0.0007135 -4.362e-05 0)
(0.0007452 -4.474e-05 0)
(0.0007775 -4.547e-05 0)
(0.0008102 -4.575e-05 0)
(0.0008428 -4.551e-05 0)
(0.000875 -4.472e-05 0)
(0.0009064 -4.33e-05 0)
(0.0009365 -4.123e-05 0)
(0.0009649 -3.85e-05 0)
(0.0009911 -3.509e-05 0)
(0.001015 -3.103e-05 0)
(0.001035 -2.638e-05 0)
(0.001052 -2.12e-05 0)
(0.001065 -1.559e-05 0)
(0.001074 -9.683e-06 0)
(0.001079 -3.605e-06 0)
(0.001079 2.5e-06 0)
(0.001076 8.491e-06 0)
(0.001068 1.424e-05 0)
(0.001056 1.963e-05 0)
(0.00104 2.457e-05 0)
(0.001021 2.9e-05 0)
(0.0009991 3.286e-05 0)
(0.0009746 3.615e-05 0)
(0.0009479 3.883e-05 0)
(0.0009195 4.094e-05 0)
(0.0008897 4.248e-05 0)
(0.000859 4.348e-05 0)
(0.0008278 4.398e-05 0)
(0.0007962 4.403e-05 0)
(0.0007648 4.366e-05 0)
(0.0007337 4.293e-05 0)
(0.0007031 4.19e-05 0)
(0.0006734 4.06e-05 0)
(0.0006446 3.908e-05 0)
(0.000617 3.741e-05 0)
(0.0005905 3.561e-05 0)
(0.0005654 3.372e-05 0)
(0.0005416 3.179e-05 0)
(0.0005192 2.983e-05 0)
(0.0004981 2.789e-05 0)
(0.0004785 2.598e-05 0)
(0.0004602 2.411e-05 0)
(0.0004432 2.231e-05 0)
(0.0004275 2.058e-05 0)
(0.000413 1.893e-05 0)
(0.0003996 1.737e-05 0)
(0.0003874 1.59e-05 0)
(0.0003761 1.453e-05 0)
(0.0003659 1.324e-05 0)
(0.0003565 1.204e-05 0)
(0.000348 1.093e-05 0)
(0.0003403 9.907e-06 0)
(0.0003333 8.963e-06 0)
(0.0003269 8.095e-06 0)
(0.0003212 7.299e-06 0)
(0.000316 6.572e-06 0)
(0.0003113 5.908e-06 0)
(0.0003071 5.304e-06 0)
(0.0003034 4.755e-06 0)
(0.0003 4.257e-06 0)
(0.0002969 3.806e-06 0)
(0.0002942 3.399e-06 0)
(0.0002918 3.032e-06 0)
(0.0002896 2.704e-06 0)
(0.0002877 2.41e-06 0)
(0.0002859 2.149e-06 0)
(0.0002844 1.919e-06 0)
(0.000283 1.718e-06 0)
(0.0002817 1.546e-06 0)
(0.0002806 1.403e-06 0)
(0.0002796 1.288e-06 0)
(0.0002786 1.204e-06 0)
(0.0002778 1.151e-06 0)
(0.0002769 1.134e-06 0)
(0.0002761 1.157e-06 0)
(0.0002752 1.227e-06 0)
(0.0002744 1.346e-06 0)
(0.0002735 1.506e-06 0)
(0.0002726 1.646e-06 0)
(0.001224 0.0002275 0)
(0.00126 0.0004003 0)
(0.001258 0.0004193 0)
(0.001216 0.0003788 0)
(0.001149 0.0003228 0)
(0.001074 0.0002684 0)
(0.0009978 0.0002213 0)
(0.0009267 0.0001824 0)
(0.0008624 0.000151 0)
(0.0008054 0.0001257 0)
(0.0007555 0.0001052 0)
(0.0007121 8.844e-05 0)
(0.0006746 7.465e-05 0)
(0.0006421 6.316e-05 0)
(0.0006142 5.348e-05 0)
(0.0005902 4.524e-05 0)
(0.0005697 3.814e-05 0)
(0.0005524 3.197e-05 0)
(0.0005378 2.653e-05 0)
(0.0005257 2.169e-05 0)
(0.0005159 1.732e-05 0)
(0.0005081 1.334e-05 0)
(0.0005023 9.662e-06 0)
(0.0004983 6.22e-06 0)
(0.000496 2.957e-06 0)
(0.0004954 -1.767e-07 0)
(0.0004964 -3.224e-06 0)
(0.0004989 -6.223e-06 0)
(0.0005029 -9.208e-06 0)
(0.0005086 -1.221e-05 0)
(0.0005158 -1.525e-05 0)
(0.0005245 -1.835e-05 0)
(0.000535 -2.153e-05 0)
(0.000547 -2.482e-05 0)
(0.0005608 -2.821e-05 0)
(0.0005764 -3.172e-05 0)
(0.0005938 -3.535e-05 0)
(0.0006131 -3.91e-05 0)
(0.0006343 -4.295e-05 0)
(0.0006575 -4.69e-05 0)
(0.0006827 -5.091e-05 0)
(0.0007099 -5.496e-05 0)
(0.0007392 -5.9e-05 0)
(0.0007705 -6.299e-05 0)
(0.0008037 -6.685e-05 0)
(0.0008388 -7.052e-05 0)
(0.0008757 -7.392e-05 0)
(0.0009141 -7.693e-05 0)
(0.0009538 -7.948e-05 0)
(0.0009947 -8.144e-05 0)
(0.001036 -8.269e-05 0)
(0.001078 -8.314e-05 0)
(0.00112 -8.266e-05 0)
(0.001162 -8.115e-05 0)
(0.001202 -7.854e-05 0)
(0.00124 -7.475e-05 0)
(0.001277 -6.976e-05 0)
(0.00131 -6.357e-05 0)
(0.001341 -5.622e-05 0)
(0.001367 -4.779e-05 0)
(0.001389 -3.843e-05 0)
(0.001405 -2.83e-05 0)
(0.001417 -1.762e-05 0)
(0.001423 -6.644e-06 0)
(0.001424 4.386e-06 0)
(0.001419 1.522e-05 0)
(0.001409 2.561e-05 0)
(0.001394 3.537e-05 0)
(0.001374 4.434e-05 0)
(0.00135 5.238e-05 0)
(0.001322 5.942e-05 0)
(0.00129 6.542e-05 0)
(0.001256 7.035e-05 0)
(0.00122 7.423e-05 0)
(0.001182 7.709e-05 0)
(0.001142 7.899e-05 0)
(0.001102 7.998e-05 0)
(0.001061 8.014e-05 0)
(0.001021 7.955e-05 0)
(0.0009807 7.831e-05 0)
(0.0009413 7.649e-05 0)
(0.0009028 7.42e-05 0)
(0.0008656 7.151e-05 0)
(0.0008297 6.851e-05 0)
(0.0007953 6.529e-05 0)
(0.0007626 6.19e-05 0)
(0.0007316 5.841e-05 0)
(0.0007024 5.488e-05 0)
(0.0006749 5.136e-05 0)
(0.0006491 4.789e-05 0)
(0.0006252 4.45e-05 0)
(0.0006028 4.122e-05 0)
(0.0005822 3.807e-05 0)
(0.0005631 3.506e-05 0)
(0.0005454 3.221e-05 0)
(0.0005293 2.952e-05 0)
(0.0005144 2.699e-05 0)
(0.0005008 2.462e-05 0)
(0.0004884 2.242e-05 0)
(0.0004771 2.038e-05 0)
(0.0004668 1.849e-05 0)
(0.0004574 1.675e-05 0)
(0.0004489 1.514e-05 0)
(0.0004413 1.367e-05 0)
(0.0004343 1.232e-05 0)
(0.0004281 1.109e-05 0)
(0.0004224 9.969e-06 0)
(0.0004173 8.948e-06 0)
(0.0004128 8.021e-06 0)
(0.0004087 7.181e-06 0)
(0.000405 6.422e-06 0)
(0.0004017 5.738e-06 0)
(0.0003987 5.123e-06 0)
(0.0003961 4.572e-06 0)
(0.0003937 4.083e-06 0)
(0.0003916 3.65e-06 0)
(0.0003897 3.272e-06 0)
(0.000388 2.946e-06 0)
(0.0003865 2.671e-06 0)
(0.0003851 2.448e-06 0)
(0.0003838 2.277e-06 0)
(0.0003826 2.16e-06 0)
(0.0003815 2.1e-06 0)
(0.0003804 2.1e-06 0)
(0.0003793 2.163e-06 0)
(0.0003783 2.283e-06 0)
(0.0003773 2.438e-06 0)
(0.0003763 2.562e-06 0)
(0.001219 0.0001846 0)
(0.001255 0.0003712 0)
(0.001275 0.00043 0)
(0.001265 0.0004209 0)
(0.001229 0.0003825 0)
(0.001179 0.0003351 0)
(0.001121 0.0002883 0)
(0.001061 0.000246 0)
(0.001004 0.0002092 0)
(0.0009502 0.000178 0)
(0.0009014 0.0001516 0)
(0.0008576 0.0001293 0)
(0.0008186 0.0001104 0)
(0.0007842 9.425e-05 0)
(0.0007541 8.042e-05 0)
(0.0007279 6.846e-05 0)
(0.0007053 5.801e-05 0)
(0.000686 4.882e-05 0)
(0.0006696 4.065e-05 0)
(0.000656 3.331e-05 0)
(0.0006448 2.664e-05 0)
(0.0006361 2.053e-05 0)
(0.0006295 1.485e-05 0)
(0.000625 9.514e-06 0)
(0.0006225 4.437e-06 0)
(0.000622 -4.53e-07 0)
(0.0006233 -5.218e-06 0)
(0.0006264 -9.914e-06 0)
(0.0006314 -1.459e-05 0)
(0.0006383 -1.929e-05 0)
(0.000647 -2.406e-05 0)
(0.0006576 -2.892e-05 0)
(0.0006701 -3.391e-05 0)
(0.0006846 -3.904e-05 0)
(0.0007012 -4.434e-05 0)
(0.0007199 -4.982e-05 0)
(0.0007407 -5.548e-05 0)
(0.0007638 -6.131e-05 0)
(0.0007891 -6.73e-05 0)
(0.0008168 -7.342e-05 0)
(0.0008468 -7.964e-05 0)
(0.0008793 -8.59e-05 0)
(0.0009141 -9.215e-05 0)
(0.0009512 -9.829e-05 0)
(0.0009907 -0.0001042 0)
(0.001032 -0.0001099 0)
(0.001076 -0.0001151 0)
(0.001121 -0.0001197 0)
(0.001169 -0.0001236 0)
(0.001217 -0.0001265 0)
(0.001266 -0.0001284 0)
(0.001316 -0.000129 0)
(0.001365 -0.0001282 0)
(0.001414 -0.0001258 0)
(0.001461 -0.0001217 0)
(0.001507 -0.0001158 0)
(0.00155 -0.0001081 0)
(0.00159 -9.847e-05 0)
(0.001625 -8.709e-05 0)
(0.001656 -7.405e-05 0)
(0.001682 -5.957e-05 0)
(0.001702 -4.391e-05 0)
(0.001716 -2.741e-05 0)
(0.001723 -1.044e-05 0)
(0.001724 6.614e-06 0)
(0.001718 2.336e-05 0)
(0.001706 3.944e-05 0)
(0.001689 5.455e-05 0)
(0.001665 6.844e-05 0)
(0.001637 8.092e-05 0)
(0.001604 9.186e-05 0)
(0.001567 0.0001012 0)
(0.001527 0.0001089 0)
(0.001484 0.000115 0)
(0.001439 0.0001195 0)
(0.001392 0.0001225 0)
(0.001345 0.0001241 0)
(0.001297 0.0001245 0)
(0.001249 0.0001237 0)
(0.001201 0.0001219 0)
(0.001155 0.0001191 0)
(0.001109 0.0001157 0)
(0.001065 0.0001116 0)
(0.001022 0.000107 0)
(0.0009814 0.000102 0)
(0.0009424 9.683e-05 0)
(0.0009054 9.146e-05 0)
(0.0008705 8.602e-05 0)
(0.0008376 8.058e-05 0)
(0.0008068 7.521e-05 0)
(0.0007781 6.995e-05 0)
(0.0007513 6.486e-05 0)
(0.0007264 5.996e-05 0)
(0.0007034 5.527e-05 0)
(0.0006822 5.083e-05 0)
(0.0006627 4.662e-05 0)
(0.0006448 4.267e-05 0)
(0.0006283 3.898e-05 0)
(0.0006133 3.553e-05 0)
(0.0005995 3.232e-05 0)
(0.000587 2.936e-05 0)
(0.0005756 2.661e-05 0)
(0.0005653 2.409e-05 0)
(0.0005559 2.177e-05 0)
(0.0005475 1.965e-05 0)
(0.0005398 1.77e-05 0)
(0.0005329 1.593e-05 0)
(0.0005266 1.431e-05 0)
(0.000521 1.285e-05 0)
(0.000516 1.151e-05 0)
(0.0005114 1.031e-05 0)
(0.0005073 9.221e-06 0)
(0.0005037 8.242e-06 0)
(0.0005004 7.365e-06 0)
(0.0004975 6.583e-06 0)
(0.0004949 5.89e-06 0)
(0.0004925 5.283e-06 0)
(0.0004904 4.756e-06 0)
(0.0004885 4.308e-06 0)
(0.0004868 3.938e-06 0)
(0.0004852 3.646e-06 0)
(0.0004837 3.432e-06 0)
(0.0004824 3.297e-06 0)
(0.0004811 3.243e-06 0)
(0.0004799 3.265e-06 0)
(0.0004788 3.353e-06 0)
(0.0004777 3.478e-06 0)
(0.0004766 3.576e-06 0)
(0.001214 0.000152 0)
(0.001246 0.0003353 0)
(0.001274 0.000418 0)
(0.001282 0.0004351 0)
(0.001269 0.0004165 0)
(0.00124 0.0003811 0)
(0.0012 0.00034 0)
(0.001155 0.0002989 0)
(0.001108 0.0002607 0)
(0.001062 0.0002263 0)
(0.001018 0.000196 0)
(0.0009774 0.0001695 0)
(0.0009401 0.0001464 0)
(0.0009065 0.0001262 0)
(0.0008765 0.0001085 0)
(0.00085 9.3e-05 0)
(0.0008268 7.924e-05 0)
(0.0008068 6.697e-05 0)
(0.0007898 5.594e-05 0)
(0.0007755 4.595e-05 0)
(0.0007638 3.681e-05 0)
(0.0007546 2.836e-05 0)
(0.0007477 2.046e-05 0)
(0.0007431 1.301e-05 0)
(0.0007406 5.886e-06 0)
(0.0007403 -9.964e-07 0)
(0.000742 -7.72e-06 0)
(0.0007458 -1.436e-05 0)
(0.0007516 -2.098e-05 0)
(0.0007595 -2.764e-05 0)
(0.0007695 -3.44e-05 0)
(0.0007816 -4.129e-05 0)
(0.0007959 -4.835e-05 0)
(0.0008124 -5.562e-05 0)
(0.0008312 -6.312e-05 0)
(0.0008523 -7.086e-05 0)
(0.0008759 -7.885e-05 0)
(0.000902 -8.707e-05 0)
(0.0009306 -9.551e-05 0)
(0.0009618 -0.0001041 0)
(0.0009957 -0.0001129 0)
(0.001032 -0.0001217 0)
(0.001071 -0.0001304 0)
(0.001113 -0.000139 0)
(0.001158 -0.0001473 0)
(0.001204 -0.0001552 0)
(0.001253 -0.0001624 0)
(0.001305 -0.0001689 0)
(0.001357 -0.0001742 0)
(0.001412 -0.0001783 0)
(0.001467 -0.0001809 0)
(0.001522 -0.0001817 0)
(0.001578 -0.0001805 0)
(0.001633 -0.0001771 0)
(0.001686 -0.0001714 0)
(0.001737 -0.000163 0)
(0.001786 -0.0001521 0)
(0.00183 -0.0001386 0)
(0.00187 -0.0001226 0)
(0.001905 -0.0001043 0)
(0.001934 -8.394e-05 0)
(0.001957 -6.193e-05 0)
(0.001972 -3.873e-05 0)
(0.001981 -1.486e-05 0)
(0.001982 9.12e-06 0)
(0.001975 3.267e-05 0)
(0.001962 5.528e-05 0)
(0.001942 7.653e-05 0)
(0.001916 9.606e-05 0)
(0.001884 0.0001136 0)
(0.001847 0.000129 0)
(0.001806 0.0001422 0)
(0.001761 0.0001531 0)
(0.001713 0.0001617 0)
(0.001662 0.0001682 0)
(0.00161 0.0001725 0)
(0.001557 0.0001749 0)
(0.001503 0.0001755 0)
(0.001449 0.0001745 0)
(0.001396 0.000172 0)
(0.001343 0.0001683 0)
(0.001292 0.0001635 0)
(0.001242 0.0001578 0)
(0.001194 0.0001514 0)
(0.001148 0.0001445 0)
(0.001104 0.0001373 0)
(0.001062 0.0001298 0)
(0.001023 0.0001221 0)
(0.0009856 0.0001145 0)
(0.0009508 0.000107 0)
(0.0009182 9.956e-05 0)
(0.0008878 9.239e-05 0)
(0.0008596 8.548e-05 0)
(0.0008334 7.888e-05 0)
(0.0008093 7.259e-05 0)
(0.000787 6.665e-05 0)
(0.0007666 6.106e-05 0)
(0.0007478 5.582e-05 0)
(0.0007306 5.092e-05 0)
(0.0007149 4.637e-05 0)
(0.0007005 4.216e-05 0)
(0.0006875 3.826e-05 0)
(0.0006756 3.466e-05 0)
(0.0006648 3.135e-05 0)
(0.000655 2.832e-05 0)
(0.0006462 2.554e-05 0)
(0.0006382 2.301e-05 0)
(0.000631 2.069e-05 0)
(0.0006245 1.859e-05 0)
(0.0006186 1.668e-05 0)
(0.0006133 1.495e-05 0)
(0.0006086 1.339e-05 0)
(0.0006044 1.198e-05 0)
(0.0006005 1.071e-05 0)
(0.0005971 9.583e-06 0)
(0.0005941 8.58e-06 0)
(0.0005913 7.697e-06 0)
(0.0005888 6.927e-06 0)
(0.0005866 6.268e-06 0)
(0.0005846 5.715e-06 0)
(0.0005828 5.267e-06 0)
(0.0005811 4.924e-06 0)
(0.0005796 4.682e-06 0)
(0.0005782 4.541e-06 0)
(0.0005769 4.493e-06 0)
(0.0005756 4.523e-06 0)
(0.0005744 4.6e-06 0)
(0.0005733 4.667e-06 0)
(0.00121 0.0001278 0)
(0.001237 0.0003006 0)
(0.001267 0.0003954 0)
(0.001285 0.0004316 0)
(0.001287 0.0004306 0)
(0.001274 0.0004085 0)
(0.001251 0.0003759 0)
(0.001219 0.0003393 0)
(0.001184 0.0003026 0)
(0.001147 0.0002677 0)
(0.00111 0.0002355 0)
(0.001074 0.0002064 0)
(0.001041 0.0001803 0)
(0.00101 0.0001569 0)
(0.0009819 0.000136 0)
(0.0009566 0.0001173 0)
(0.0009343 0.0001005 0)
(0.0009147 8.527e-05 0)
(0.000898 7.147e-05 0)
(0.0008839 5.884e-05 0)
(0.0008723 4.718e-05 0)
(0.0008632 3.632e-05 0)
(0.0008564 2.612e-05 0)
(0.000852 1.642e-05 0)
(0.0008498 7.119e-06 0)
(0.0008498 -1.904e-06 0)
(0.000852 -1.075e-05 0)
(0.0008564 -1.95e-05 0)
(0.0008629 -2.824e-05 0)
(0.0008717 -3.704e-05 0)
(0.0008827 -4.597e-05 0)
(0.000896 -5.509e-05 0)
(0.0009116 -6.444e-05 0)
(0.0009296 -7.405e-05 0)
(0.0009501 -8.397e-05 0)
(0.0009731 -9.419e-05 0)
(0.0009988 -0.0001047 0)
(0.001027 -0.0001156 0)
(0.001058 -0.0001267 0)
(0.001092 -0.000138 0)
(0.001129 -0.0001495 0)
(0.001168 -0.0001611 0)
(0.001211 -0.0001726 0)
(0.001256 -0.0001839 0)
(0.001304 -0.0001948 0)
(0.001355 -0.0002051 0)
(0.001408 -0.0002146 0)
(0.001463 -0.000223 0)
(0.00152 -0.0002301 0)
(0.001579 -0.0002354 0)
(0.001639 -0.0002388 0)
(0.001699 -0.0002398 0)
(0.001759 -0.0002382 0)
(0.001819 -0.0002337 0)
(0.001877 -0.0002261 0)
(0.001932 -0.0002152 0)
(0.001985 -0.0002008 0)
(0.002033 -0.000183 0)
(0.002077 -0.000162 0)
(0.002115 -0.0001378 0)
(0.002147 -0.000111 0)
(0.002171 -8.191e-05 0)
(0.002188 -5.129e-05 0)
(0.002197 -1.978e-05 0)
(0.002198 1.188e-05 0)
(0.002192 4.295e-05 0)
(0.002177 7.278e-05 0)
(0.002155 0.0001008 0)
(0.002127 0.0001265 0)
(0.002092 0.0001497 0)
(0.002052 0.00017 0)
(0.002007 0.0001874 0)
(0.001959 0.0002018 0)
(0.001907 0.0002132 0)
(0.001852 0.0002217 0)
(0.001795 0.0002276 0)
(0.001738 0.0002308 0)
(0.001679 0.0002317 0)
(0.001621 0.0002304 0)
(0.001563 0.0002273 0)
(0.001506 0.0002224 0)
(0.001451 0.0002162 0)
(0.001397 0.0002088 0)
(0.001345 0.0002005 0)
(0.001295 0.0001915 0)
(0.001247 0.000182 0)
(0.001202 0.0001721 0)
(0.001159 0.0001621 0)
(0.001118 0.0001521 0)
(0.00108 0.0001422 0)
(0.001045 0.0001324 0)
(0.001012 0.000123 0)
(0.000981 0.0001139 0)
(0.0009525 0.0001052 0)
(0.0009261 9.685e-05 0)
(0.0009018 8.899e-05 0)
(0.0008794 8.159e-05 0)
(0.0008588 7.465e-05 0)
(0.0008399 6.816e-05 0)
(0.0008227 6.212e-05 0)
(0.0008069 5.651e-05 0)
(0.0007925 5.133e-05 0)
(0.0007794 4.654e-05 0)
(0.0007675 4.214e-05 0)
(0.0007568 3.81e-05 0)
(0.000747 3.439e-05 0)
(0.0007381 3.1e-05 0)
(0.0007301 2.791e-05 0)
(0.0007229 2.51e-05 0)
(0.0007164 2.254e-05 0)
(0.0007106 2.022e-05 0)
(0.0007053 1.812e-05 0)
(0.0007005 1.623e-05 0)
(0.0006963 1.453e-05 0)
(0.0006925 1.3e-05 0)
(0.0006891 1.165e-05 0)
(0.000686 1.045e-05 0)
(0.0006832 9.401e-06 0)
(0.0006808 8.495e-06 0)
(0.0006785 7.727e-06 0)
(0.0006765 7.093e-06 0)
(0.0006747 6.59e-06 0)
(0.000673 6.213e-06 0)
(0.0006715 5.957e-06 0)
(0.0006701 5.813e-06 0)
(0.0006688 5.763e-06 0)
(0.0006675 5.779e-06 0)
(0.0006663 5.812e-06 0)
(0.001208 0.0001097 0)
(0.00123 0.0002695 0)
(0.001259 0.0003687 0)
(0.001281 0.0004177 0)
(0.001293 0.0004309 0)
(0.001292 0.0004212 0)
(0.001281 0.0003978 0)
(0.001262 0.0003675 0)
(0.001238 0.0003342 0)
(0.00121 0.0003008 0)
(0.001181 0.0002685 0)
(0.001152 0.0002383 0)
(0.001123 0.0002103 0)
(0.001097 0.0001847 0)
(0.001072 0.0001613 0)
(0.001049 0.00014 0)
(0.001028 0.0001206 0)
(0.00101 0.0001028 0)
(0.0009944 8.642e-05 0)
(0.0009811 7.128e-05 0)
(0.0009702 5.72e-05 0)
(0.0009617 4.397e-05 0)
(0.0009554 3.146e-05 0)
(0.0009514 1.95e-05 0)
(0.0009497 7.974e-06 0)
(0.0009502 -3.254e-06 0)
(0.0009529 -1.429e-05 0)
(0.0009578 -2.525e-05 0)
(0.000965 -3.621e-05 0)
(0.0009744 -4.727e-05 0)
(0.0009862 -5.85e-05 0)
(0.001 -6.997e-05 0)
(0.001017 -8.173e-05 0)
(0.001036 -9.383e-05 0)
(0.001058 -0.0001063 0)
(0.001082 -0.0001192 0)
(0.001109 -0.0001324 0)
(0.001139 -0.000146 0)
(0.001171 -0.00016 0)
(0.001207 -0.0001743 0)
(0.001246 -0.0001887 0)
(0.001287 -0.0002032 0)
(0.001332 -0.0002176 0)
(0.001379 -0.0002318 0)
(0.00143 -0.0002455 0)
(0.001483 -0.0002584 0)
(0.001539 -0.0002703 0)
(0.001597 -0.0002808 0)
(0.001657 -0.0002896 0)
(0.001719 -0.0002964 0)
(0.001782 -0.0003006 0)
(0.001846 -0.0003019 0)
(0.001909 -0.0003 0)
(0.001972 -0.0002944 0)
(0.002034 -0.0002848 0)
(0.002093 -0.0002711 0)
(0.002148 -0.0002531 0)
(0.0022 -0.0002308 0)
(0.002246 -0.0002043 0)
(0.002287 -0.0001739 0)
(0.002321 -0.0001401 0)
(0.002347 -0.0001035 0)
(0.002365 -6.482e-05 0)
(0.002374 -2.506e-05 0)
(0.002376 1.488e-05 0)
(0.002368 5.406e-05 0)
(0.002353 9.163e-05 0)
(0.00233 0.0001269 0)
(0.002299 0.0001593 0)
(0.002263 0.0001883 0)
(0.00222 0.0002139 0)
(0.002173 0.0002357 0)
(0.002121 0.0002538 0)
(0.002066 0.0002682 0)
(0.002009 0.000279 0)
(0.001949 0.0002863 0)
(0.001888 0.0002905 0)
(0.001827 0.0002917 0)
(0.001765 0.0002902 0)
(0.001704 0.0002863 0)
(0.001644 0.0002803 0)
(0.001586 0.0002726 0)
(0.001529 0.0002634 0)
(0.001474 0.000253 0)
(0.001421 0.0002417 0)
(0.001371 0.0002298 0)
(0.001323 0.0002175 0)
(0.001278 0.0002049 0)
(0.001235 0.0001923 0)
(0.001195 0.0001799 0)
(0.001158 0.0001677 0)
(0.001123 0.0001558 0)
(0.00109 0.0001444 0)
(0.00106 0.0001334 0)
(0.001032 0.0001229 0)
(0.001007 0.000113 0)
(0.0009828 0.0001037 0)
(0.000961 9.494e-05 0)
(0.0009409 8.675e-05 0)
(0.0009226 7.912e-05 0)
(0.0009058 7.204e-05 0)
(0.0008905 6.548e-05 0)
(0.0008766 5.942e-05 0)
(0.0008639 5.384e-05 0)
(0.0008524 4.871e-05 0)
(0.0008419 4.401e-05 0)
(0.0008325 3.97e-05 0)
(0.0008239 3.577e-05 0)
(0.0008162 3.219e-05 0)
(0.0008092 2.893e-05 0)
(0.0008029 2.598e-05 0)
(0.0007972 2.33e-05 0)
(0.0007921 2.088e-05 0)
(0.0007876 1.87e-05 0)
(0.0007835 1.675e-05 0)
(0.0007798 1.501e-05 0)
(0.0007765 1.347e-05 0)
(0.0007735 1.211e-05 0)
(0.0007708 1.093e-05 0)
(0.0007684 9.92e-06 0)
(0.0007663 9.073e-06 0)
(0.0007643 8.385e-06 0)
(0.0007626 7.848e-06 0)
(0.000761 7.455e-06 0)
(0.0007595 7.195e-06 0)
(0.0007581 7.05e-06 0)
(0.0007569 6.995e-06 0)
(0.0007557 6.99e-06 0)
(0.001206 9.56e-05 0)
(0.001225 0.0002423 0)
(0.001251 0.0003414 0)
(0.001275 0.0003981 0)
(0.001292 0.000422 0)
(0.0013 0.0004227 0)
(0.001299 0.0004083 0)
(0.00129 0.0003847 0)
(0.001276 0.0003561 0)
(0.001257 0.0003254 0)
(0.001236 0.0002944 0)
(0.001213 0.0002642 0)
(0.00119 0.0002356 0)
(0.001168 0.0002086 0)
(0.001147 0.0001836 0)
(0.001127 0.0001603 0)
(0.001109 0.0001387 0)
(0.001093 0.0001187 0)
(0.001079 0.0001001 0)
(0.001067 8.273e-05 0)
(0.001058 6.639e-05 0)
(0.00105 5.093e-05 0)
(0.001045 3.62e-05 0)
(0.001041 2.205e-05 0)
(0.00104 8.321e-06 0)
(0.001041 -5.102e-06 0)
(0.001044 -1.835e-05 0)
(0.00105 -3.153e-05 0)
(0.001057 -4.475e-05 0)
(0.001067 -5.81e-05 0)
(0.00108 -7.168e-05 0)
(0.001094 -8.556e-05 0)
(0.001111 -9.98e-05 0)
(0.001131 -0.0001145 0)
(0.001153 -0.0001296 0)
(0.001178 -0.0001451 0)
(0.001206 -0.0001612 0)
(0.001237 -0.0001777 0)
(0.00127 -0.0001946 0)
(0.001307 -0.0002118 0)
(0.001346 -0.0002293 0)
(0.001389 -0.0002469 0)
(0.001435 -0.0002643 0)
(0.001483 -0.0002815 0)
(0.001535 -0.000298 0)
(0.00159 -0.0003137 0)
(0.001647 -0.0003281 0)
(0.001707 -0.0003409 0)
(0.001769 -0.0003516 0)
(0.001832 -0.0003598 0)
(0.001897 -0.000365 0)
(0.001963 -0.0003667 0)
(0.002029 -0.0003645 0)
(0.002094 -0.0003578 0)
(0.002157 -0.0003464 0)
(0.002219 -0.0003299 0)
(0.002277 -0.0003081 0)
(0.00233 -0.0002811 0)
(0.002379 -0.0002489 0)
(0.002421 -0.000212 0)
(0.002456 -0.0001708 0)
(0.002483 -0.0001262 0)
(0.002502 -7.907e-05 0)
(0.002512 -3.056e-05 0)
(0.002513 1.815e-05 0)
(0.002506 6.588e-05 0)
(0.002489 0.0001116 0)
(0.002465 0.0001544 0)
(0.002433 0.0001937 0)
(0.002395 0.0002289 0)
(0.002351 0.0002598 0)
(0.002302 0.0002863 0)
(0.002249 0.0003082 0)
(0.002192 0.0003256 0)
(0.002132 0.0003387 0)
(0.002071 0.0003476 0)
(0.002008 0.0003527 0)
(0.001945 0.0003542 0)
(0.001882 0.0003524 0)
(0.001819 0.0003477 0)
(0.001757 0.0003406 0)
(0.001697 0.0003312 0)
(0.001638 0.0003201 0)
(0.001582 0.0003076 0)
(0.001528 0.0002939 0)
(0.001476 0.0002795 0)
(0.001427 0.0002646 0)
(0.00138 0.0002495 0)
(0.001337 0.0002343 0)
(0.001295 0.0002192 0)
(0.001257 0.0002044 0)
(0.001221 0.00019 0)
(0.001187 0.0001761 0)
(0.001156 0.0001628 0)
(0.001128 0.0001502 0)
(0.001101 0.0001381 0)
(0.001077 0.0001268 0)
(0.001054 0.0001162 0)
(0.001033 0.0001062 0)
(0.001014 9.694e-05 0)
(0.0009971 8.832e-05 0)
(0.0009813 8.033e-05 0)
(0.0009669 7.294e-05 0)
(0.0009537 6.614e-05 0)
(0.0009418 5.988e-05 0)
(0.0009309 5.413e-05 0)
(0.0009211 4.888e-05 0)
(0.0009122 4.407e-05 0)
(0.0009041 3.969e-05 0)
(0.0008968 3.569e-05 0)
(0.0008903 3.207e-05 0)
(0.0008844 2.878e-05 0)
(0.000879 2.581e-05 0)
(0.0008743 2.314e-05 0)
(0.00087 2.073e-05 0)
(0.0008661 1.858e-05 0)
(0.0008626 1.667e-05 0)
(0.0008595 1.498e-05 0)
(0.0008567 1.351e-05 0)
(0.0008542 1.223e-05 0)
(0.000852 1.116e-05 0)
(0.00085 1.026e-05 0)
(0.0008482 9.547e-06 0)
(0.0008465 9e-06 0)
(0.000845 8.609e-06 0)
(0.0008437 8.357e-06 0)
(0.0008424 8.224e-06 0)
(0.0008412 8.179e-06 0)
(0.001205 8.438e-05 0)
(0.001221 0.0002187 0)
(0.001245 0.0003151 0)
(0.001269 0.0003758 0)
(0.001289 0.0004071 0)
(0.001303 0.0004163 0)
(0.001309 0.0004098 0)
(0.001308 0.0003927 0)
(0.001302 0.0003691 0)
(0.001291 0.0003419 0)
(0.001277 0.0003131 0)
(0.001261 0.000284 0)
(0.001244 0.0002555 0)
(0.001227 0.0002281 0)
(0.00121 0.0002021 0)
(0.001194 0.0001775 0)
(0.001179 0.0001543 0)
(0.001165 0.0001326 0)
(0.001154 0.0001121 0)
(0.001143 9.274e-05 0)
(0.001135 7.44e-05 0)
(0.001129 5.691e-05 0)
(0.001124 4.012e-05 0)
(0.001122 2.389e-05 0)
(0.001121 8.074e-06 0)
(0.001123 -7.465e-06 0)
(0.001127 -2.285e-05 0)
(0.001132 -3.821e-05 0)
(0.00114 -5.366e-05 0)
(0.001151 -6.929e-05 0)
(0.001163 -8.521e-05 0)
(0.001178 -0.0001015 0)
(0.001195 -0.0001182 0)
(0.001215 -0.0001354 0)
(0.001237 -0.0001532 0)
(0.001262 -0.0001715 0)
(0.00129 -0.0001903 0)
(0.001321 -0.0002097 0)
(0.001354 -0.0002296 0)
(0.001391 -0.0002499 0)
(0.00143 -0.0002704 0)
(0.001473 -0.0002911 0)
(0.001519 -0.0003116 0)
(0.001568 -0.0003318 0)
(0.00162 -0.0003513 0)
(0.001674 -0.0003698 0)
(0.001732 -0.0003869 0)
(0.001792 -0.000402 0)
(0.001854 -0.0004148 0)
(0.001919 -0.0004245 0)
(0.001984 -0.0004308 0)
(0.002051 -0.000433 0)
(0.002117 -0.0004305 0)
(0.002183 -0.0004229 0)
(0.002248 -0.0004096 0)
(0.00231 -0.0003903 0)
(0.002369 -0.0003648 0)
(0.002424 -0.000333 0)
(0.002474 -0.0002951 0)
(0.002517 -0.0002514 0)
(0.002554 -0.0002027 0)
(0.002582 -0.0001497 0)
(0.002601 -9.375e-05 0)
(0.002611 -3.612e-05 0)
(0.002612 2.172e-05 0)
(0.002604 7.831e-05 0)
(0.002587 0.0001324 0)
(0.002562 0.000183 0)
(0.002529 0.0002293 0)
(0.00249 0.0002707 0)
(0.002445 0.0003071 0)
(0.002395 0.0003381 0)
(0.002341 0.0003638 0)
(0.002284 0.0003843 0)
(0.002223 0.0003997 0)
(0.002161 0.0004102 0)
(0.002098 0.0004161 0)
(0.002034 0.0004179 0)
(0.00197 0.0004158 0)
(0.001907 0.0004103 0)
(0.001845 0.0004019 0)
(0.001784 0.0003909 0)
(0.001725 0.0003778 0)
(0.001668 0.0003631 0)