/*--------------------------------*- C++ -*----------------------------------*\
  =========                 |
  \\      /  F ield         | OpenFOAM: The Open Source CFD Toolbox
   \\    /   O peration     | Website:  https://openfoam.org
    \\  /    A nd           | Version:  7
     \\/     M anipulation  |
\*---------------------------------------------------------------------------*/
FoamFile
{
    version     2.0;
    format      ascii;
    class       volScalarField;
    location    "1139.999473413131";
    object      Y.K;
}
// * * * * * * * * * * * * * * * * * * * * * * * * * * * * * * * * * * * * * //

dimensions      [0 0 0 0 0 0 0];

internalField   nonuniform List<scalar> 
4096
(
2.245e-69
-1.315e-70
2.918e-68
-1.77e-68
-2.402e-69
5.457e-69
-2.858e-69
-2.008e-69
4.121e-70
6.212e-69
-7.509e-68
1.18e-66
-1.66e-65
2.405e-64
-3.152e-63
3.991e-62
-4.769e-61
5.549e-60
-6.183e-59
6.771e-58
-7.069e-57
7.262e-56
-7.35e-55
7.182e-54
-6.66e-53
6.029e-52
-5.037e-51
4.222e-50
-3.455e-49
2.769e-48
-2.163e-47
1.642e-46
-1.189e-45
8.312e-45
-5.517e-44
3.49e-43
-2.061e-42
1.129e-41
-5.854e-41
2.988e-40
-1.582e-39
9.41e-39
-6.209e-38
4.372e-37
-2.71e-36
1.503e-35
-6.868e-35
2.225e-34
-2.837e-34
-9.175e-34
6.75e-33
6.814e-32
-1.001e-30
1.387e-29
-6.026e-29
5.191e-28
-1.143e-27
1.2e-26
1.683e-26
2.357e-25
9.922e-25
2.601e-24
2.16e-23
6.939e-23
2.102e-22
1.474e-21
6.691e-21
8.936e-20
1.265e-18
3.734e-18
8.155e-18
1.581e-17
2.872e-17
5.001e-17
8.424e-17
1.38e-16
2.207e-16
3.45e-16
5.283e-16
7.933e-16
1.169e-15
1.694e-15
2.415e-15
3.388e-15
4.685e-15
6.39e-15
8.604e-15
1.145e-14
1.505e-14
1.959e-14
2.524e-14
3.222e-14
4.077e-14
5.118e-14
6.376e-14
7.888e-14
9.694e-14
1.184e-13
1.438e-13
1.737e-13
2.087e-13
2.496e-13
2.972e-13
3.525e-13
4.163e-13
4.9e-13
5.746e-13
6.717e-13
7.828e-13
9.095e-13
1.054e-12
1.218e-12
1.403e-12
1.614e-12
1.851e-12
2.119e-12
2.421e-12
2.759e-12
3.139e-12
3.564e-12
4.039e-12
4.568e-12
5.156e-12
5.803e-12
6.508e-12
7.252e-12
7.983e-12
8.554e-12
5.276e-68
-3.004e-67
3.475e-67
-5.008e-68
-2.544e-67
2.296e-67
-6.185e-69
-1.277e-67
-1.233e-68
3.726e-67
-4.417e-66
6.413e-65
-9.465e-64
1.317e-62
-1.733e-61
2.165e-60
-2.589e-59
2.98e-58
-3.319e-57
3.59e-56
-3.78e-55
3.875e-54
-3.865e-53
3.74e-52
-3.492e-51
3.14e-50
-2.633e-49
2.186e-48
-1.787e-47
1.431e-46
-1.118e-45
8.462e-45
-6.173e-44
4.313e-43
-2.866e-42
1.798e-41
-1.059e-40
5.833e-40
-3.022e-39
1.515e-38
-7.837e-38
4.52e-37
-2.919e-36
2.057e-35
-1.267e-34
7.23e-34
-3.376e-33
1.133e-32
-1.719e-32
-2.046e-32
4.305e-31
1.983e-30
-3.044e-29
5.809e-28
-2.264e-27
2.289e-26
-3.399e-26
5.41e-25
1.188e-24
1.178e-23
4.821e-23
1.392e-22
9.718e-22
3.153e-21
9.206e-21
5.55e-20
1.975e-19
1.234e-18
3.515e-18
7.661e-18
1.491e-17
2.718e-17
4.735e-17
7.968e-17
1.302e-16
2.074e-16
3.228e-16
4.917e-16
7.343e-16
1.077e-15
1.552e-15
2.2e-15
3.073e-15
4.233e-15
5.752e-15
7.721e-15
1.025e-14
1.345e-14
1.747e-14
2.248e-14
2.868e-14
3.628e-14
4.554e-14
5.675e-14
7.024e-14
8.638e-14
1.056e-13
1.284e-13
1.552e-13
1.867e-13
2.237e-13
2.667e-13
3.167e-13
3.746e-13
4.416e-13
5.186e-13
6.071e-13
7.085e-13
8.244e-13
9.566e-13
1.107e-12
1.278e-12
1.471e-12
1.69e-12
1.937e-12
2.216e-12
2.529e-12
2.881e-12
3.275e-12
3.717e-12
4.21e-12
4.76e-12
5.371e-12
6.048e-12
6.792e-12
7.598e-12
8.441e-12
9.235e-12
-1.218e-66
8.484e-66
-2.138e-65
2.887e-65
-2.037e-65
3.444e-66
6.911e-66
-6.189e-66
-3.082e-66
2.139e-65
-2.387e-64
3.393e-63
-4.981e-62
6.89e-61
-8.99e-60
1.114e-58
-1.32e-57
1.506e-56
-1.663e-55
1.785e-54
-1.865e-53
1.9e-52
-1.883e-51
1.812e-50
-1.684e-49
1.506e-48
-1.265e-47
1.051e-46
-8.6e-46
6.894e-45
-5.387e-44
4.081e-43
-2.981e-42
2.085e-41
-1.388e-40
8.732e-40
-5.157e-39
2.844e-38
-1.468e-37
7.248e-37
-3.62e-36
1.983e-35
-1.236e-34
8.758e-34
-5.392e-33
3.198e-32
-1.56e-31
5.607e-31
-1.032e-30
9.605e-31
2.682e-29
-1.473e-29
-1.288e-28
2.104e-26
-5.389e-26
9.227e-25
-1.153e-25
2.216e-23
8.019e-23
5.955e-22
2.32e-21
7.185e-21
4.167e-20
1.324e-19
3.635e-19
1.705e-18
4.673e-18
1.008e-17
1.968e-17
3.613e-17
6.338e-17
1.071e-16
1.752e-16
2.783e-16
4.303e-16
6.494e-16
9.58e-16
1.384e-15
1.962e-15
2.732e-15
3.744e-15
5.054e-15
6.732e-15
8.857e-15
1.152e-14
1.484e-14
1.892e-14
2.394e-14
3.004e-14
3.744e-14
4.634e-14
5.702e-14
6.977e-14
8.493e-14
1.029e-13
1.241e-13
1.489e-13
1.781e-13
2.122e-13
2.518e-13
2.979e-13
3.513e-13
4.129e-13
4.838e-13
5.654e-13
6.589e-13
7.659e-13
8.881e-13
1.027e-12
1.185e-12
1.365e-12
1.568e-12
1.798e-12
2.057e-12
2.349e-12
2.678e-12
3.047e-12
3.46e-12
3.923e-12
4.439e-12
5.016e-12
5.657e-12
6.37e-12
7.16e-12
8.033e-12
8.993e-12
1.004e-11
1.121e-11
1.997e-65
-1.588e-64
5.609e-64
-1.219e-63
1.73e-63
-1.626e-63
9.341e-64
-1.995e-64
-2.146e-64
1.127e-63
-1.229e-62
1.685e-61
-2.447e-60
3.344e-59
-4.304e-58
5.257e-57
-6.142e-56
6.913e-55
-7.539e-54
7.997e-53
-8.269e-52
8.342e-51
-8.2e-50
7.833e-49
-7.242e-48
6.444e-47
-5.424e-46
4.518e-45
-3.705e-44
2.977e-43
-2.332e-42
1.772e-41
-1.298e-40
9.124e-40
-6.107e-39
3.865e-38
-2.298e-37
1.274e-36
-6.571e-36
3.189e-35
-1.518e-34
7.654e-34
-4.468e-33
3.194e-32
-1.957e-31
1.245e-30
-6.472e-30
2.545e-29
-5.707e-29
1.275e-28
1.233e-27
-4.154e-27
4.194e-26
6.038e-25
2.891e-25
3.304e-23
6.063e-23
1.062e-21
4.312e-21
2.773e-20
1.006e-19
3.139e-19
1.41e-18
4.136e-18
9.605e-18
2.02e-17
3.983e-17
7.46e-17
1.336e-16
2.297e-16
3.807e-16
6.096e-16
9.456e-16
1.424e-15
2.087e-15
2.984e-15
4.169e-15
5.703e-15
7.653e-15
1.009e-14
1.311e-14
1.679e-14
2.123e-14
2.655e-14
3.288e-14
4.037e-14
4.92e-14
5.957e-14
7.171e-14
8.589e-14
1.024e-13
1.216e-13
1.44e-13
1.699e-13
1.999e-13
2.345e-13
2.746e-13
3.208e-13
3.739e-13
4.35e-13
5.052e-13
5.855e-13
6.774e-13
7.824e-13
9.022e-13
1.038e-12
1.193e-12
1.369e-12
1.568e-12
1.793e-12
2.048e-12
2.334e-12
2.657e-12
3.019e-12
3.426e-12
3.882e-12
4.392e-12
4.961e-12
5.596e-12
6.303e-12
7.089e-12
7.961e-12
8.927e-12
9.995e-12
1.117e-11
1.247e-11
1.391e-11
1.572e-11
-2.83e-64
2.444e-63
-1.069e-62
3.104e-62
-6.326e-62
9.368e-62
-1.016e-61
7.825e-62
-3.994e-62
5.516e-62
-6.09e-61
7.847e-60
-1.116e-58
1.494e-57
-1.88e-56
2.245e-55
-2.566e-54
2.829e-53
-3.027e-52
3.156e-51
-3.214e-50
3.199e-49
-3.11e-48
2.944e-47
-2.704e-46
2.395e-45
-2.024e-44
1.692e-43
-1.393e-42
1.124e-41
-8.845e-41
6.759e-40
-4.987e-39
3.532e-38
-2.387e-37
1.528e-36
-9.202e-36
5.162e-35
-2.68e-34
1.287e-33
-5.824e-33
2.608e-32
-1.346e-31
9.533e-31
-5.647e-30
4.053e-29
-2.272e-28
9.882e-28
-2.605e-27
1.224e-26
2.206e-26
4.997e-26
3.231e-24
1.215e-23
1.223e-22
1.08e-21
5.713e-21
4.649e-20
2.029e-19
1.005e-18
3.326e-18
8.75e-18
2.074e-17
4.579e-17
9.519e-17
1.874e-16
3.509e-16
6.267e-16
1.071e-15
1.756e-15
2.77e-15
4.216e-15
6.206e-15
8.859e-15
1.23e-14
1.663e-14
2.197e-14
2.842e-14
3.608e-14
4.503e-14
5.536e-14
6.719e-14
8.063e-14
9.582e-14
1.13e-13
1.322e-13
1.54e-13
1.784e-13
2.059e-13
2.37e-13
2.72e-13
3.117e-13
3.566e-13
4.075e-13
4.653e-13
5.308e-13
6.053e-13
6.898e-13
7.858e-13
8.948e-13
1.019e-12
1.159e-12
1.318e-12
1.498e-12
1.701e-12
1.931e-12
2.191e-12
2.483e-12
2.812e-12
3.183e-12
3.599e-12
4.065e-12
4.587e-12
5.172e-12
5.825e-12
6.553e-12
7.363e-12
8.265e-12
9.267e-12
1.038e-11
1.161e-11
1.296e-11
1.446e-11
1.611e-11
1.793e-11
1.992e-11
2.212e-11
2.509e-11
3.683e-63
-3.357e-62
1.702e-61
-6.081e-61
1.596e-60
-3.182e-60
4.901e-60
-5.794e-60
4.995e-60
-1.875e-61
-2.858e-59
3.4e-58
-4.68e-57
6.053e-56
-7.352e-55
8.48e-54
-9.381e-53
1.004e-51
-1.045e-50
1.064e-49
-1.061e-48
1.037e-47
-9.935e-47
9.299e-46
-8.478e-45
7.481e-44
-6.356e-43
5.344e-42
-4.426e-41
3.595e-40
-2.852e-39
2.199e-38
-1.64e-37
1.177e-36
-8.077e-36
5.264e-35
-3.239e-34
1.858e-33
-9.844e-33
4.771e-32
-2.104e-31
8.351e-31
-3.591e-30
2.18e-29
-1.027e-28
9.858e-28
-5.693e-27
2.742e-26
-6.128e-26
8.262e-25
-4.801e-25
1.017e-23
1.517e-22
1.019e-21
7.642e-21
5.596e-20
3.041e-19
1.622e-18
5.824e-18
1.683e-17
4.382e-17
1.058e-16
2.392e-16
5.088e-16
1.021e-15
1.937e-15
3.485e-15
5.964e-15
9.74e-15
1.522e-14
2.283e-14
3.297e-14
4.598e-14
6.21e-14
8.147e-14
1.041e-13
1.299e-13
1.586e-13
1.901e-13
2.242e-13
2.607e-13
2.996e-13
3.409e-13
3.848e-13
4.316e-13
4.816e-13
5.354e-13
5.937e-13
6.571e-13
7.266e-13
8.032e-13
8.88e-13
9.822e-13
1.087e-12
1.205e-12
1.337e-12
1.485e-12
1.651e-12
1.838e-12
2.049e-12
2.286e-12
2.553e-12
2.853e-12
3.19e-12
3.569e-12
3.995e-12
4.473e-12
5.008e-12
5.608e-12
6.279e-12
7.029e-12
7.865e-12
8.798e-12
9.837e-12
1.099e-11
1.227e-11
1.37e-11
1.527e-11
1.702e-11
1.894e-11
2.106e-11
2.34e-11
2.596e-11
2.878e-11
3.186e-11
3.522e-11
3.891e-11
4.413e-11
-4.533e-62
4.283e-61
-2.418e-60
1.01e-59
-3.221e-59
8.06e-59
-1.609e-58
2.565e-58
-3.214e-58
3.381e-58
-1.333e-57
1.353e-56
-1.763e-55
2.163e-54
-2.492e-53
2.733e-52
-2.887e-51
2.963e-50
-2.974e-49
2.932e-48
-2.844e-47
2.717e-46
-2.554e-45
2.359e-44
-2.132e-43
1.877e-42
-1.607e-41
1.362e-40
-1.139e-39
9.346e-39
-7.503e-38
5.866e-37
-4.447e-36
3.253e-35
-2.284e-34
1.53e-33
-9.729e-33
5.784e-32
-3.191e-31
1.613e-30
-7.334e-30
2.839e-29
-1.143e-28
3.734e-28
-6.015e-28
8.601e-27
-2.7e-26
1.517e-25
3.71e-25
3.156e-23
-5.605e-24
9.9e-22
8.415e-21
5.84e-20
3.736e-19
2.216e-18
8.86e-18
2.88e-17
8.434e-17
2.284e-16
5.755e-16
1.354e-15
2.981e-15
6.154e-15
1.194e-14
2.182e-14
3.768e-14
6.169e-14
9.606e-14
1.428e-13
2.032e-13
2.78e-13
3.667e-13
4.678e-13
5.791e-13
6.98e-13
8.211e-13
9.459e-13
1.07e-12
1.191e-12
1.31e-12
1.424e-12
1.537e-12
1.647e-12
1.758e-12
1.87e-12
1.986e-12
2.108e-12
2.238e-12
2.378e-12
2.532e-12
2.702e-12
2.89e-12
3.101e-12
3.336e-12
3.6e-12
3.896e-12
4.229e-12
4.602e-12
5.022e-12
5.493e-12
6.022e-12
6.615e-12
7.28e-12
8.024e-12
8.857e-12
9.788e-12
1.083e-11
1.199e-11
1.328e-11
1.471e-11
1.631e-11
1.808e-11
2.005e-11
2.223e-11
2.464e-11
2.731e-11
3.024e-11
3.348e-11
3.704e-11
4.095e-11
4.524e-11
4.993e-11
5.506e-11
6.065e-11
6.674e-11
7.334e-11
8.299e-11
5.343e-61
-5.169e-60
3.165e-59
-1.496e-58
5.577e-58
-1.679e-57
4.142e-57
-8.372e-57
1.345e-56
-1.451e-56
-3.778e-56
4.777e-55
-5.741e-54
6.498e-53
-6.927e-52
7.077e-51
-7.016e-50
6.814e-49
-6.52e-48
6.168e-47
-5.78e-46
5.366e-45
-4.934e-44
4.484e-43
-4.016e-42
3.535e-41
-3.061e-40
2.626e-39
-2.225e-38
1.855e-37
-1.517e-36
1.211e-35
-9.408e-35
7.08e-34
-5.141e-33
3.583e-32
-2.394e-31
1.498e-30
-8.78e-30
4.774e-29
-2.37e-28
1.03e-27
-4.737e-27
1.289e-26
-1.086e-26
5.982e-26
2.131e-24
-1.325e-23
1.04e-22
3.494e-22
1.745e-21
5.281e-20
3.533e-19
2.346e-18
1.072e-17
4.007e-17
1.351e-16
4.195e-16
1.206e-15
3.218e-15
7.97e-15
1.835e-14
3.936e-14
7.878e-14
1.474e-13
2.589e-13
4.281e-13
6.688e-13
9.909e-13
1.398e-12
1.884e-12
2.437e-12
3.035e-12
3.652e-12
4.263e-12
4.84e-12
5.363e-12
5.825e-12
6.212e-12
6.53e-12
6.788e-12
6.994e-12
7.159e-12
7.295e-12
7.412e-12
7.523e-12
7.638e-12
7.766e-12
7.915e-12
8.093e-12
8.304e-12
8.561e-12
8.865e-12
9.224e-12
9.641e-12
1.013e-11
1.068e-11
1.132e-11
1.206e-11
1.289e-11
1.382e-11
1.488e-11
1.608e-11
1.741e-11
1.891e-11
2.059e-11
2.246e-11
2.455e-11
2.687e-11
2.946e-11
3.232e-11
3.55e-11
3.901e-11
4.29e-11
4.719e-11
5.193e-11
5.713e-11
6.286e-11
6.915e-11
7.604e-11
8.359e-11
9.183e-11
1.008e-10
1.106e-10
1.212e-10
1.328e-10
1.452e-10
1.637e-10
-6.047e-60
5.945e-59
-3.874e-58
2.023e-57
-8.593e-57
3.027e-56
-8.951e-56
2.229e-55
-4.642e-55
8.173e-55
-2.318e-54
1.408e-53
-1.481e-52
1.494e-51
-1.423e-50
1.318e-49
-1.203e-48
1.089e-47
-9.817e-47
8.83e-46
-7.932e-45
7.114e-44
-6.367e-43
5.678e-42
-5.029e-41
4.443e-40
-3.908e-39
3.416e-38
-2.956e-37
2.523e-36
-2.124e-35
1.753e-34
-1.415e-33
1.111e-32
-8.482e-32
6.258e-31
-4.473e-30
2.984e-29
-1.897e-28
1.125e-27
-6.198e-27
3.204e-26
-1.525e-25
6.484e-25
-2.336e-24
5.737e-24
2.077e-24
-1.806e-22
3.24e-21
3.832e-21
1.94e-19
1.766e-18
9.511e-18
4.185e-17
1.658e-16
6.03e-16
2.022e-15
6.253e-15
1.784e-14
4.698e-14
1.143e-13
2.572e-13
5.36e-13
1.037e-12
1.868e-12
3.143e-12
4.962e-12
7.377e-12
1.037e-11
1.385e-11
1.766e-11
2.155e-11
2.532e-11
2.868e-11
3.156e-11
3.37e-11
3.513e-11
3.602e-11
3.618e-11
3.595e-11
3.541e-11
3.461e-11
3.366e-11
3.264e-11
3.162e-11
3.066e-11
2.98e-11
2.906e-11
2.848e-11
2.806e-11
2.777e-11
2.773e-11
2.783e-11
2.811e-11
2.857e-11
2.924e-11
3.011e-11
3.12e-11
3.252e-11
3.407e-11
3.588e-11
3.796e-11
4.034e-11
4.303e-11
4.608e-11
4.95e-11
5.333e-11
5.76e-11
6.236e-11
6.765e-11
7.351e-11
8e-11
8.717e-11
9.508e-11
1.038e-10
1.134e-10
1.239e-10
1.354e-10
1.48e-10
1.618e-10
1.768e-10
1.932e-10
2.11e-10
2.303e-10
2.512e-10
2.739e-10
2.979e-10
3.346e-10
6.55e-59
-6.507e-58
4.454e-57
-2.525e-56
1.199e-55
-4.838e-55
1.678e-54
-5.01e-54
1.259e-53
-2.411e-53
-9.311e-54
2.917e-52
-2.648e-51
2.13e-50
-1.698e-49
1.388e-48
-1.15e-47
9.603e-47
-8.078e-46
6.839e-45
-5.826e-44
4.99e-43
-4.293e-42
3.71e-41
-3.206e-40
2.813e-39
-2.423e-38
2.093e-37
-1.803e-36
1.54e-35
-1.317e-34
1.105e-33
-9.18e-33
7.385e-32
-5.8e-31
4.416e-30
-3.258e-29
2.295e-28
-1.583e-27
1.038e-26
-6.629e-26
4.043e-25
-2.358e-24
1.3e-23
-6.904e-23
3.428e-22
-1.573e-21
3.871e-21
5.257e-20
6.038e-19
5.288e-18
3.029e-17
1.45e-16
6.291e-16
2.504e-15
9.154e-15
3.073e-14
9.469e-14
2.677e-13
6.949e-13
1.657e-12
3.633e-12
7.339e-12
1.369e-11
2.365e-11
3.802e-11
5.714e-11
8.062e-11
1.074e-10
1.354e-10
1.63e-10
1.874e-10
2.075e-10
2.206e-10
2.292e-10
2.287e-10
2.251e-10
2.178e-10
2.075e-10
1.953e-10
1.822e-10
1.691e-10
1.564e-10
1.445e-10
1.338e-10
1.242e-10
1.158e-10
1.086e-10
1.025e-10
9.749e-11
9.343e-11
9.028e-11
8.797e-11
8.646e-11
8.552e-11
8.561e-11
8.616e-11
8.734e-11
8.92e-11
9.171e-11
9.489e-11
9.875e-11
1.033e-10
1.087e-10
1.148e-10
1.217e-10
1.296e-10
1.384e-10
1.483e-10
1.592e-10
1.714e-10
1.849e-10
1.998e-10
2.162e-10
2.343e-10
2.541e-10
2.757e-10
2.995e-10
3.253e-10
3.536e-10
3.843e-10
4.176e-10
4.537e-10
4.928e-10
5.35e-10
5.806e-10
6.285e-10
7.027e-10
-6.729e-58
6.724e-57
-4.787e-56
2.908e-55
-1.52e-54
6.919e-54
-2.776e-53
9.882e-53
-3.124e-52
8.696e-52
-2.087e-51
4.227e-51
-9.708e-51
4.786e-50
-4.328e-49
4.171e-48
-3.548e-47
2.861e-46
-2.261e-45
1.776e-44
-1.389e-43
1.077e-42
-8.166e-42
6.038e-41
-3.835e-40
3.506e-39
-1.47e-38
2.928e-38
3.002e-37
-5.508e-36
4.888e-35
-4.698e-34
4.176e-33
-3.538e-32
2.089e-31
-1.059e-30
2.948e-30
2.337e-29
-4.797e-28
5.666e-27
-5.234e-26
4.244e-25
-3.214e-24
2.134e-23
-1.409e-22
9.45e-22
-2.396e-21
1.845e-19
2.171e-18
1.495e-17
8.586e-17
4.474e-16
2.139e-15
9.384e-15
3.771e-14
1.386e-13
4.653e-13
1.426e-12
3.988e-12
1.018e-11
2.372e-11
5.055e-11
9.867e-11
1.768e-10
2.921e-10
4.471e-10
6.376e-10
8.516e-10
1.071e-09
1.273e-09
1.448e-09
1.562e-09
1.628e-09
1.618e-09
1.575e-09
1.497e-09
1.392e-09
1.272e-09
1.146e-09
1.022e-09
9.06e-10
7.999e-10
7.056e-10
6.233e-10
5.525e-10
4.923e-10
4.416e-10
3.992e-10
3.641e-10
3.351e-10
3.114e-10
2.923e-10
2.772e-10
2.655e-10
2.567e-10
2.507e-10
2.47e-10
2.456e-10
2.465e-10
2.49e-10
2.534e-10
2.597e-10
2.678e-10
2.778e-10
2.898e-10
3.037e-10
3.197e-10
3.378e-10
3.583e-10
3.812e-10
4.068e-10
4.351e-10
4.664e-10
5.009e-10
5.388e-10
5.803e-10
6.258e-10
6.754e-10
7.294e-10
7.882e-10
8.519e-10
9.21e-10
9.957e-10
1.076e-09
1.163e-09
1.257e-09
1.354e-09
1.507e-09
6.454e-57
-6.461e-56
4.746e-55
-3.057e-54
1.736e-53
-8.783e-53
4e-52
-1.652e-51
6.194e-51
-2.095e-50
6.207e-50
-1.475e-49
9.972e-50
1.145e-48
-9.111e-48
6.445e-47
-3.741e-46
2.168e-45
-1.392e-44
1.038e-43
-8.912e-43
8.234e-42
-7.827e-41
7.555e-40
-6.869e-39
6.222e-38
-5.14e-37
4.009e-36
-2.865e-35
2.03e-34
-1.816e-33
5.623e-33
-7.416e-33
-1.865e-31
3.22e-30
-3.653e-29
3.488e-28
-2.994e-27
2.375e-26
-1.762e-25
1.233e-24
-8.192e-24
5.109e-23
-3.083e-22
1.857e-21
-6.234e-21
3.314e-19
4.258e-18
3.216e-17
2.051e-16
1.189e-15
6.323e-15
3.079e-14
1.37e-13
5.554e-13
2.049e-12
6.869e-12
2.09e-11
5.767e-11
1.443e-10
3.279e-10
6.768e-10
1.272e-09
2.182e-09
3.432e-09
4.985e-09
6.724e-09
8.477e-09
1.005e-08
1.124e-08
1.21e-08
1.209e-08
1.18e-08
1.118e-08
1.027e-08
9.211e-09
8.093e-09
6.999e-09
5.983e-09
5.073e-09
4.283e-09
3.61e-09
3.046e-09
2.58e-09
2.198e-09
1.886e-09
1.633e-09
1.427e-09
1.261e-09
1.127e-09
1.018e-09
9.312e-10
8.615e-10
8.062e-10
7.629e-10
7.299e-10
7.056e-10
6.89e-10
6.788e-10
6.756e-10
6.78e-10
6.85e-10
6.972e-10
7.143e-10
7.363e-10
7.632e-10
7.951e-10
8.321e-10
8.744e-10
9.222e-10
9.758e-10
1.036e-09
1.102e-09
1.175e-09
1.255e-09
1.343e-09
1.439e-09
1.544e-09
1.658e-09
1.782e-09
1.917e-09
2.062e-09
2.218e-09
2.386e-09
2.567e-09
2.762e-09
2.963e-09
3.281e-09
-5.653e-56
5.648e-55
-4.252e-54
2.877e-53
-1.757e-52
9.768e-52
-4.992e-51
2.364e-50
-1.044e-49
4.304e-49
-1.647e-48
5.716e-48
-1.675e-47
3.156e-47
1.45e-46
-1.576e-45
1.301e-44
-9.597e-44
6.881e-43
-4.941e-42
3.528e-41
-2.573e-40
1.876e-39
-1.284e-38
8.912e-38
-4.612e-37
1.246e-36
7.808e-36
-1.979e-34
2.566e-33
-2.713e-32
2.572e-31
-2.264e-30
1.881e-29
-1.489e-28
1.128e-27
-8.2e-27
5.731e-26
-3.85e-25
2.491e-24
-1.547e-23
9.25e-23
-5.286e-22
3.052e-21
-1.158e-20
4.95e-19
6.988e-18
5.811e-17
4.122e-16
2.667e-15
1.583e-14
8.595e-14
4.257e-13
1.917e-12
7.829e-12
2.894e-11
9.661e-11
2.91e-10
7.903e-10
1.934e-09
4.267e-09
8.5e-09
1.532e-08
2.505e-08
3.737e-08
5.129e-08
6.524e-08
7.75e-08
8.63e-08
9.114e-08
9.005e-08
8.615e-08
7.947e-08
7.093e-08
6.156e-08
5.221e-08
4.349e-08
3.573e-08
2.907e-08
2.352e-08
1.898e-08
1.533e-08
1.243e-08
1.013e-08
8.328e-09
6.908e-09
5.793e-09
4.915e-09
4.222e-09
3.674e-09
3.239e-09
2.894e-09
2.62e-09
2.402e-09
2.23e-09
2.095e-09
1.991e-09
1.914e-09
1.858e-09
1.823e-09
1.8e-09
1.802e-09
1.812e-09
1.836e-09
1.873e-09
1.922e-09
1.983e-09
2.057e-09
2.143e-09
2.242e-09
2.354e-09
2.48e-09
2.62e-09
2.776e-09
2.947e-09
3.134e-09
3.339e-09
3.563e-09
3.806e-09
4.069e-09
4.354e-09
4.662e-09
4.992e-09
5.348e-09
5.728e-09
6.137e-09
6.558e-09
7.225e-09
4.366e-55
-4.338e-54
3.325e-53
-2.344e-52
1.522e-51
-9.175e-51
5.181e-50
-2.765e-49
1.406e-48
-6.865e-48
3.235e-47
-1.475e-46
6.49e-46
-2.726e-45
1.064e-44
-3.584e-44
7.952e-44
1.565e-43
-3.594e-42
2.899e-41
-1.492e-40
1.686e-40
8.34e-39
-1.491e-37
1.895e-36
-1.89e-35
1.725e-34
-1.485e-33
1.224e-32
-9.755e-32
7.539e-31
-5.666e-30
4.146e-29
-2.955e-28
2.051e-27
-1.385e-26
9.104e-26
-5.813e-25
3.607e-24
-2.163e-23
1.266e-22
-7.054e-22
4.032e-21
-1.61e-20
6.055e-19
9.406e-18
8.62e-17
6.808e-16
4.923e-15
3.269e-14
1.986e-13
1.1e-12
5.529e-12
2.514e-11
1.032e-10
3.809e-10
1.263e-09
3.755e-09
9.996e-09
2.382e-08
5.084e-08
9.729e-08
1.674e-07
2.597e-07
3.657e-07
4.727e-07
5.659e-07
6.322e-07
6.595e-07
6.461e-07
6.085e-07
5.5e-07
4.791e-07
4.045e-07
3.327e-07
2.681e-07
2.126e-07
1.667e-07
1.297e-07
1.006e-07
7.799e-08
6.065e-08
4.744e-08
3.74e-08
2.978e-08
2.399e-08
1.956e-08
1.617e-08
1.356e-08
1.153e-08
9.953e-09
8.716e-09
7.743e-09
6.975e-09
6.37e-09
5.893e-09
5.52e-09
5.233e-09
5.016e-09
4.859e-09
4.753e-09
4.688e-09
4.674e-09
4.692e-09
4.741e-09
4.823e-09
4.935e-09
5.078e-09
5.251e-09
5.454e-09
5.687e-09
5.952e-09
6.249e-09
6.579e-09
6.944e-09
7.345e-09
7.783e-09
8.262e-09
8.781e-09
9.344e-09
9.952e-09
1.061e-08
1.131e-08
1.207e-08
1.287e-08
1.374e-08
1.462e-08
1.603e-08
-2.835e-54
2.795e-53
-2.169e-52
1.578e-51
-1.076e-50
6.92e-50
-4.231e-49
2.48e-48
-1.406e-47
7.787e-47
-4.255e-46
2.318e-45
-1.273e-44
7.112e-44
-4.075e-43
2.406e-42
-1.467e-41
9.214e-41
-5.95e-40
3.937e-39
-2.662e-38
1.837e-37
-1.293e-36
9.284e-36
-6.789e-35
4.903e-34
-3.52e-33
2.507e-32
-1.769e-31
1.234e-30
-8.496e-30
5.769e-29
-3.856e-28
2.534e-27
-1.635e-26
1.034e-25
-6.402e-25
3.876e-24
-2.286e-23
1.326e-22
-7.308e-22
4.201e-21
-1.714e-20
5.985e-19
1.022e-17
1.031e-16
9.066e-16
7.325e-15
5.445e-14
3.707e-13
2.3e-12
1.295e-11
6.586e-11
3.015e-10
1.238e-09
4.547e-09
1.491e-08
4.353e-08
1.13e-07
2.609e-07
5.358e-07
9.801e-07
1.601e-06
2.346e-06
3.107e-06
3.772e-06
4.255e-06
4.425e-06
4.314e-06
4.022e-06
3.583e-06
3.065e-06
2.532e-06
2.033e-06
1.594e-06
1.228e-06
9.324e-07
7.016e-07
5.252e-07
3.927e-07
2.942e-07
2.215e-07
1.68e-07
1.288e-07
9.983e-08
7.842e-08
6.249e-08
5.054e-08
4.153e-08
3.466e-08
2.939e-08
2.531e-08
2.214e-08
1.966e-08
1.771e-08
1.617e-08
1.497e-08
1.402e-08
1.33e-08
1.275e-08
1.235e-08
1.208e-08
1.192e-08
1.187e-08
1.191e-08
1.202e-08
1.221e-08
1.248e-08
1.281e-08
1.322e-08
1.371e-08
1.426e-08
1.489e-08
1.559e-08
1.637e-08
1.722e-08
1.816e-08
1.919e-08
2.03e-08
2.15e-08
2.28e-08
2.42e-08
2.571e-08
2.732e-08
2.903e-08
3.087e-08
3.274e-08
3.573e-08
1.471e-53
-1.439e-52
1.125e-51
-8.372e-51
5.916e-50
-3.986e-49
2.575e-48
-1.603e-47
9.675e-47
-5.695e-46
3.287e-45
-1.87e-44
1.054e-43
-5.92e-43
3.332e-42
-1.894e-41
1.096e-40
-6.525e-40
4.025e-39
-2.587e-38
1.731e-37
-1.202e-36
8.582e-36
-6.26e-35
4.589e-34
-3.275e-33
2.303e-32
-1.597e-31
1.092e-30
-7.365e-30
4.898e-29
-3.21e-28
2.073e-27
-1.317e-26
8.231e-26
-5.054e-25
3.047e-24
-1.799e-23
1.047e-22
-5.778e-22
3.423e-21
-1.409e-20
4.73e-19
8.852e-18
9.819e-17
9.583e-16
8.635e-15
7.177e-14
5.473e-13
3.807e-12
2.403e-11
1.37e-10
7.014e-10
3.214e-09
1.313e-08
4.77e-08
1.536e-07
4.372e-07
1.099e-06
2.439e-06
4.788e-06
8.319e-06
1.285e-05
1.769e-05
2.197e-05
2.515e-05
2.641e-05
2.572e-05
2.389e-05
2.113e-05
1.788e-05
1.458e-05
1.152e-05
8.862e-06
6.678e-06
4.951e-06
3.629e-06
2.64e-06
1.915e-06
1.389e-06
1.012e-06
7.419e-07
5.492e-07
4.112e-07
3.12e-07
2.403e-07
1.879e-07
1.494e-07
1.208e-07
9.933e-08
8.305e-08
7.061e-08
6.1e-08
5.354e-08
4.771e-08
4.313e-08
3.953e-08
3.671e-08
3.451e-08
3.282e-08
3.155e-08
3.062e-08
3.001e-08
2.963e-08
2.954e-08
2.965e-08
2.994e-08
3.041e-08
3.105e-08
3.187e-08
3.286e-08
3.401e-08
3.532e-08
3.681e-08
3.846e-08
4.029e-08
4.23e-08
4.45e-08
4.688e-08
4.946e-08
5.225e-08
5.524e-08
5.845e-08
6.189e-08
6.554e-08
6.945e-08
7.341e-08
7.977e-08
-5.994e-53
5.784e-52
-4.534e-51
3.434e-50
-2.502e-49
1.758e-48
-1.198e-47
7.948e-47
-5.169e-46
3.314e-45
-2.106e-44
1.333e-43
-8.433e-43
5.341e-42
-3.39e-41
2.156e-40
-1.374e-39
8.764e-39
-5.596e-38
3.575e-37
-2.285e-36
1.463e-35
-9.383e-35
6.04e-34
-3.893e-33
2.493e-32
-1.59e-31
1.009e-30
-6.37e-30
3.995e-29
-2.487e-28
1.535e-27
-9.391e-27
5.685e-26
-3.402e-25
2.011e-24
-1.172e-23
6.741e-23
-3.746e-22
2.296e-21
-8.967e-21
2.964e-19
6.061e-18
7.365e-17
7.951e-16
7.962e-15
7.377e-14
6.287e-13
4.898e-12
3.466e-11
2.214e-10
1.27e-09
6.505e-09
2.962e-08
1.194e-07
4.247e-07
1.328e-06
3.646e-06
8.774e-06
1.855e-05
3.447e-05
5.647e-05
8.201e-05
0.0001058
0.000124
0.0001332
0.0001303
0.0001215
0.0001077
9.105e-05
7.399e-05
5.811e-05
4.435e-05
3.306e-05
2.418e-05
1.743e-05
1.243e-05
8.82e-06
6.244e-06
4.429e-06
3.158e-06
2.27e-06
1.649e-06
1.214e-06
9.066e-07
6.879e-07
5.307e-07
4.166e-07
3.329e-07
2.707e-07
2.241e-07
1.887e-07
1.616e-07
1.406e-07
1.243e-07
1.115e-07
1.015e-07
9.363e-08
8.745e-08
8.264e-08
7.896e-08
7.621e-08
7.424e-08
7.299e-08
7.217e-08
7.221e-08
7.256e-08
7.334e-08
7.454e-08
7.615e-08
7.814e-08
8.052e-08
8.328e-08
8.642e-08
8.993e-08
9.383e-08
9.812e-08
1.028e-07
1.079e-07
1.134e-07
1.194e-07
1.258e-07
1.327e-07
1.4e-07
1.478e-07
1.561e-07
1.645e-07
1.78e-07
1.49e-52
-1.464e-51
1.161e-50
-8.848e-50
6.464e-49
-4.528e-48
3.044e-47
-1.965e-46
1.218e-45
-7.255e-45
4.154e-44
-2.286e-43
1.208e-42
-6.125e-42
2.982e-41
-1.399e-40
6.423e-40
-3.015e-39
1.574e-38
-9.986e-38
7.667e-37
-6.513e-36
5.651e-35
-4.838e-34
3.937e-33
-3.015e-32
2.208e-31
-1.565e-30
1.08e-29
-7.288e-29
4.825e-28
-3.14e-27
2.01e-26
-1.268e-25
7.875e-25
-4.821e-24
2.91e-23
-1.718e-22
1.063e-21
-3.416e-21
1.456e-19
3.26e-18
4.331e-17
5.148e-16
5.7e-15
5.862e-14
5.564e-13
4.841e-12
3.833e-11
2.743e-10
1.762e-09
1.009e-08
5.124e-08
2.294e-07
9.013e-07
3.097e-06
9.275e-06
2.416e-05
5.489e-05
0.000109
0.0001893
0.00029
0.0003942
0.000478
0.0005354
0.0005293
0.0005003
0.0004489
0.000384
0.0003151
0.0002495
0.0001915
0.0001431
0.0001047
7.516e-05
5.323e-05
3.735e-05
2.606e-05
1.817e-05
1.27e-05
8.926e-06
6.332e-06
4.545e-06
3.308e-06
2.444e-06
1.837e-06
1.405e-06
1.094e-06
8.674e-07
7.006e-07
5.761e-07
4.822e-07
4.106e-07
3.555e-07
3.127e-07
2.792e-07
2.529e-07
2.323e-07
2.16e-07
2.032e-07
1.934e-07
1.859e-07
1.803e-07
1.765e-07
1.742e-07
1.73e-07
1.734e-07
1.747e-07
1.769e-07
1.8e-07
1.84e-07
1.889e-07
1.947e-07
2.013e-07
2.088e-07
2.17e-07
2.262e-07
2.362e-07
2.471e-07
2.589e-07
2.717e-07
2.854e-07
3e-07
3.156e-07
3.322e-07
3.499e-07
3.676e-07
3.963e-07
-6.094e-52
5.525e-51
-4.216e-50
3.24e-49
-2.482e-48
1.886e-47
-1.416e-46
1.046e-45
-7.582e-45
5.393e-44
-3.763e-43
2.577e-42
-1.735e-41
1.15e-40
-7.514e-40
4.851e-39
-3.098e-38
1.961e-37
-1.231e-36
7.674e-36
-4.756e-35
2.931e-34
-1.797e-33
1.096e-32
-6.651e-32
4.01e-31
-2.403e-30
1.432e-29
-8.487e-29
5.001e-28
-2.93e-27
1.707e-26
-9.892e-26
5.698e-25
-3.263e-24
1.858e-23
-1.048e-22
6.054e-22
-2.66e-21
4.144e-20
1.336e-18
1.99e-17
2.598e-16
3.163e-15
3.591e-14
3.778e-13
3.657e-12
3.231e-11
2.586e-10
1.859e-09
1.191e-08
6.75e-08
3.359e-07
1.459e-06
5.505e-06
1.796e-05
5.054e-05
0.0001228
0.0002589
0.0004737
0.0007592
0.001079
0.001367
0.001588
0.001635
0.001578
0.001449
0.001269
0.001068
0.0008659
0.0006798
0.0005185
0.0003856
0.0002804
0.0002003
0.000141
9.827e-05
6.811e-05
4.714e-05
3.271e-05
2.284e-05
1.61e-05
1.149e-05
8.314e-06
6.114e-06
4.574e-06
3.484e-06
2.703e-06
2.137e-06
1.721e-06
1.411e-06
1.178e-06
1.001e-06
8.645e-07
7.586e-07
6.759e-07
6.109e-07
5.597e-07
5.192e-07
4.874e-07
4.626e-07
4.436e-07
4.294e-07
4.191e-07
4.127e-07
4.082e-07
4.084e-07
4.103e-07
4.142e-07
4.203e-07
4.285e-07
4.386e-07
4.506e-07
4.646e-07
4.803e-07
4.98e-07
5.174e-07
5.388e-07
5.621e-07
5.873e-07
6.144e-07
6.436e-07
6.747e-07
7.079e-07
7.431e-07
7.806e-07
8.182e-07
8.789e-07
-1.802e-51
1.764e-50
-1.412e-49
1.102e-48
-8.333e-48
6.111e-47
-4.349e-46
3.009e-45
-2.028e-44
1.335e-43
-8.61e-43
5.457e-42
-3.412e-41
2.111e-40
-1.297e-39
7.947e-39
-4.867e-38
2.988e-37
-1.843e-36
1.144e-35
-7.156e-35
4.509e-34
-2.862e-33
1.832e-32
-1.17e-31
7.422e-31
-4.679e-30
2.931e-29
-1.826e-28
1.131e-27
-6.976e-27
4.281e-26
-2.615e-25
1.591e-24
-9.644e-24
5.826e-23
-3.487e-22
2.185e-21
-8.291e-21
2.769e-19
6.921e-18
1.024e-16
1.364e-15
1.7e-14
1.971e-13
2.112e-12
2.075e-11
1.852e-10
1.489e-09
1.068e-08
6.769e-08
3.757e-07
1.81e-06
7.517e-06
2.674e-05
8.125e-05
0.0002108
0.0004693
0.0009031
0.001494
0.0022
0.002877
0.003408
0.003739
0.003679
0.00347
0.003142
0.002746
0.002321
0.001899
0.001506
0.001161
0.0008712
0.0006389
0.0004592
0.0003249
0.0002272
0.0001578
0.0001093
7.591e-05
5.301e-05
3.737e-05
2.667e-05
1.93e-05
1.42e-05
1.063e-05
8.101e-06
6.291e-06
4.977e-06
4.011e-06
3.293e-06
2.751e-06
2.339e-06
2.022e-06
1.775e-06
1.582e-06
1.43e-06
1.31e-06
1.215e-06
1.14e-06
1.081e-06
1.035e-06
1.001e-06
9.76e-07
9.594e-07
9.487e-07
9.461e-07
9.489e-07
9.563e-07
9.684e-07
9.851e-07
1.006e-06
1.031e-06
1.061e-06
1.094e-06
1.132e-06
1.173e-06
1.219e-06
1.268e-06
1.322e-06
1.38e-06
1.441e-06
1.508e-06
1.578e-06
1.652e-06
1.732e-06
1.811e-06
1.939e-06
4.3e-51
-3.974e-50
3.069e-49
-2.363e-48
1.801e-47
-1.354e-46
1.002e-45
-7.29e-45
5.21e-44
-3.656e-43
2.519e-42
-1.706e-41
1.136e-40
-7.452e-40
4.819e-39
-3.077e-38
1.942e-37
-1.214e-36
7.519e-36
-4.622e-35
2.822e-34
-1.713e-33
1.035e-32
-6.226e-32
3.722e-31
-2.214e-30
1.312e-29
-7.745e-29
4.56e-28
-2.679e-27
1.572e-26
-9.21e-26
5.395e-25
-3.161e-24
1.855e-23
-1.086e-22
6.583e-22
-2.924e-21
5.897e-20
1.962e-18
3.184e-17
4.609e-16
6.257e-15
7.947e-14
9.377e-13
1.019e-11
1.012e-10
9.081e-10
7.292e-09
5.181e-08
3.222e-07
1.733e-06
7.984e-06
3.121e-05
0.0001029
0.0002856
0.0006722
0.001355
0.002346
0.003472
0.004774
0.005756
0.006371
0.006813
0.00649
0.005917
0.005365
0.00479
0.004138
0.003449
0.00279
0.002195
0.00168
0.001254
0.0009157
0.0006567
0.0004646
0.0003258
0.0002277
0.0001593
0.000112
7.942e-05
5.7e-05
4.15e-05
3.069e-05
2.31e-05
1.77e-05
1.381e-05
1.098e-05
8.889e-06
7.328e-06
6.148e-06
5.246e-06
4.549e-06
4.006e-06
3.579e-06
3.243e-06
2.976e-06
2.764e-06
2.597e-06
2.465e-06
2.363e-06
2.285e-06
2.228e-06
2.189e-06
2.165e-06
2.156e-06
2.161e-06
2.175e-06
2.2e-06
2.235e-06
2.28e-06
2.333e-06
2.396e-06
2.467e-06
2.546e-06
2.634e-06
2.731e-06
2.836e-06
2.95e-06
3.072e-06
3.203e-06
3.343e-06
3.491e-06
3.648e-06
3.814e-06
3.98e-06
4.247e-06
7.065e-51
-6.923e-50
5.582e-49
-4.409e-48
3.392e-47
-2.54e-46
1.852e-45
-1.317e-44
9.133e-44
-6.195e-43
4.118e-42
-2.689e-41
1.73e-40
-1.098e-39
6.905e-39
-4.309e-38
2.674e-37
-1.655e-36
1.022e-35
-6.316e-35
3.907e-34
-2.423e-33
1.507e-32
-9.408e-32
5.864e-31
-3.636e-30
2.245e-29
-1.381e-28
8.475e-28
-5.193e-27
3.18e-26
-1.948e-25
1.195e-24
-7.343e-24
4.529e-23
-2.788e-22
1.828e-21
-6.36e-21
2.788e-19
7.595e-18
1.229e-16
1.809e-15
2.499e-14
3.226e-13
3.859e-12
4.24e-11
4.236e-10
3.806e-09
3.037e-08
2.126e-07
1.287e-06
6.648e-06
2.894e-05
0.0001049
0.0003152
0.0007882
0.001667
0.003037
0.004683
0.00631
0.008474
0.01036
0.01026
0.009984
0.0101
0.01037
0.01015
0.008163
0.006538
0.005459
0.004517
0.003635
0.002844
0.002168
0.001615
0.00118
0.0008491
0.0006049
0.0004287
0.0003038
0.0002163
0.0001552
0.0001126
8.286e-05
6.192e-05
4.706e-05
3.639e-05
2.866e-05
2.298e-05
1.875e-05
1.558e-05
1.316e-05
1.13e-05
9.86e-06
8.73e-06
7.839e-06
7.133e-06
6.571e-06
6.124e-06
5.769e-06
5.49e-06
5.272e-06
5.107e-06
4.986e-06
4.903e-06
4.851e-06
4.832e-06
4.843e-06
4.875e-06
4.928e-06
5.003e-06
5.098e-06
5.213e-06
5.346e-06
5.498e-06
5.668e-06
5.855e-06
6.06e-06
6.283e-06
6.524e-06
6.781e-06
7.057e-06
7.349e-06
7.659e-06
7.985e-06
8.33e-06
8.672e-06
9.222e-06
-1.447e-50
1.332e-49
-1.026e-48
7.897e-48
-6.018e-47
4.531e-46
-3.361e-45
2.454e-44
-1.76e-43
1.241e-42
-8.588e-42
5.84e-41
-3.904e-40
2.567e-39
-1.662e-38
1.06e-37
-6.675e-37
4.152e-36
-2.554e-35
1.556e-34
-9.396e-34
5.632e-33
-3.354e-32
1.988e-31
-1.17e-30
6.86e-30
-4.015e-29
2.348e-28
-1.373e-27
8.036e-27
-4.716e-26
2.777e-25
-1.643e-24
9.776e-24
-5.846e-23
3.628e-22
-1.632e-21
4.246e-20
1.491e-18
2.624e-17
4.154e-16
6.2e-15
8.695e-14
1.137e-12
1.375e-11
1.523e-10
1.526e-09
1.368e-08
1.081e-07
7.412e-07
4.343e-06
2.138e-05
8.705e-05
0.0002895
0.0007825
0.001746
0.003327
0.005549
0.007638
0.01022
0.009985
0.01145
0.01019
0.009996
0.01005
0.01171
0.01457
0.0101
0.01034
0.009001
0.006835
0.00549
0.004358
0.003384
0.002571
0.001916
0.001406
0.001021
0.0007365
0.0005311
0.0003844
0.0002804
0.0002067
0.0001544
0.0001171
9.021e-05
7.07e-05
5.638e-05
4.575e-05
3.777e-05
3.171e-05
2.705e-05
2.344e-05
2.062e-05
1.84e-05
1.664e-05
1.523e-05
1.411e-05
1.322e-05
1.251e-05
1.195e-05
1.151e-05