/*--------------------------------*- C++ -*----------------------------------*\
  =========                 |
  \\      /  F ield         | OpenFOAM: The Open Source CFD Toolbox
   \\    /   O peration     | Website:  https://openfoam.org
    \\  /    A nd           | Version:  7
     \\/     M anipulation  |
\*---------------------------------------------------------------------------*/
FoamFile
{
    version     2.0;
    format      ascii;
    class       volScalarField;
    location    "2699.99947344718248";
    object      p;
}
// * * * * * * * * * * * * * * * * * * * * * * * * * * * * * * * * * * * * * //

dimensions      [0 2 -2 0 0 0 0];

internalField   nonuniform List<scalar> 
4096
(
0.000542
0.0003711
0.0002869
0.0002447
0.0002213
0.0002074
0.0001985
0.0001924
0.000188
0.0001847
0.0001821
0.0001801
0.0001784
0.0001771
0.0001759
0.0001749
0.000174
0.0001732
0.0001725
0.0001718
0.0001712
0.0001706
0.0001701
0.0001696
0.0001691
0.0001686
0.0001681
0.0001676
0.0001672
0.0001667
0.0001663
0.0001658
0.0001653
0.0001648
0.0001643
0.0001638
0.0001633
0.0001627
0.0001621
0.0001614
0.0001607
0.0001599
0.0001591
0.0001581
0.0001571
0.0001559
0.0001546
0.0001531
0.0001514
0.0001496
0.0001475
0.0001452
0.0001426
0.0001398
0.0001366
0.0001332
0.0001295
0.0001255
0.0001213
0.0001168
0.0001121
0.0001072
0.0001021
9.696e-05
9.177e-05
8.658e-05
8.143e-05
7.638e-05
7.146e-05
6.671e-05
6.217e-05
5.785e-05
5.378e-05
4.996e-05
4.64e-05
4.311e-05
4.008e-05
3.731e-05
3.478e-05
3.249e-05
3.041e-05
2.854e-05
2.685e-05
2.534e-05
2.397e-05
2.275e-05
2.164e-05
2.065e-05
1.974e-05
1.892e-05
1.817e-05
1.747e-05
1.682e-05
1.622e-05
1.565e-05
1.51e-05
1.458e-05
1.408e-05
1.359e-05
1.311e-05
1.264e-05
1.218e-05
1.172e-05
1.127e-05
1.081e-05
1.036e-05
9.902e-06
9.448e-06
8.992e-06
8.534e-06
8.075e-06
7.613e-06
7.149e-06
6.683e-06
6.215e-06
5.744e-06
5.27e-06
4.794e-06
4.315e-06
3.834e-06
3.351e-06
2.866e-06
2.38e-06
1.894e-06
1.412e-06
9.383e-07
4.835e-07
1.099e-07
0.0003976
0.0003338
0.000284
0.000252
0.000231
0.0002167
0.0002067
0.0001993
0.0001938
0.0001896
0.0001863
0.0001836
0.0001814
0.0001796
0.000178
0.0001767
0.0001756
0.0001745
0.0001736
0.0001728
0.000172
0.0001713
0.0001706
0.00017
0.0001694
0.0001688
0.0001682
0.0001677
0.0001671
0.0001665
0.000166
0.0001654
0.0001649
0.0001643
0.0001637
0.0001631
0.0001625
0.0001618
0.0001611
0.0001603
0.0001595
0.0001586
0.0001577
0.0001566
0.0001555
0.0001542
0.0001528
0.0001512
0.0001495
0.0001476
0.0001455
0.0001431
0.0001406
0.0001378
0.0001347
0.0001313
0.0001278
0.0001239
0.0001198
0.0001155
0.000111
0.0001063
0.0001015
9.663e-05
9.169e-05
8.675e-05
8.186e-05
7.705e-05
7.236e-05
6.783e-05
6.348e-05
5.933e-05
5.54e-05
5.17e-05
4.824e-05
4.502e-05
4.204e-05
3.929e-05
3.676e-05
3.445e-05
3.235e-05
3.043e-05
2.869e-05
2.711e-05
2.568e-05
2.437e-05
2.319e-05
2.211e-05
2.112e-05
2.021e-05
1.937e-05
1.859e-05
1.786e-05
1.718e-05
1.653e-05
1.592e-05
1.533e-05
1.476e-05
1.421e-05
1.368e-05
1.316e-05
1.265e-05
1.215e-05
1.165e-05
1.116e-05
1.067e-05
1.018e-05
9.7e-06
9.218e-06
8.737e-06
8.256e-06
7.775e-06
7.294e-06
6.813e-06
6.331e-06
5.847e-06
5.363e-06
4.878e-06
4.392e-06
3.904e-06
3.416e-06
2.927e-06
2.439e-06
1.952e-06
1.469e-06
9.921e-07
5.282e-07
1.285e-07
0.0003141
0.0002924
0.000267
0.0002462
0.0002307
0.0002189
0.0002099
0.0002029
0.0001973
0.0001929
0.0001892
0.0001862
0.0001838
0.0001817
0.0001799
0.0001783
0.0001769
0.0001757
0.0001746
0.0001737
0.0001727
0.0001719
0.0001711
0.0001704
0.0001697
0.000169
0.0001683
0.0001677
0.000167
0.0001664
0.0001657
0.0001651
0.0001644
0.0001638
0.0001631
0.0001624
0.0001617
0.0001609
0.0001601
0.0001592
0.0001583
0.0001574
0.0001563
0.0001552
0.0001539
0.0001526
0.0001511
0.0001495
0.0001477
0.0001458
0.0001436
0.0001413
0.0001387
0.000136
0.0001329
0.0001297
0.0001262
0.0001225
0.0001185
0.0001144
0.0001101
0.0001056
0.000101
9.632e-05
9.161e-05
8.689e-05
8.222e-05
7.762e-05
7.314e-05
6.879e-05
6.461e-05
6.062e-05
5.682e-05
5.323e-05
4.987e-05
4.672e-05
4.379e-05
4.107e-05
3.856e-05
3.625e-05
3.413e-05
3.218e-05
3.04e-05
2.877e-05
2.727e-05
2.59e-05
2.465e-05
2.349e-05
2.243e-05
2.144e-05
2.053e-05
1.967e-05
1.887e-05
1.811e-05
1.74e-05
1.671e-05
1.606e-05
1.544e-05
1.483e-05
1.425e-05
1.367e-05
1.312e-05
1.257e-05
1.203e-05
1.151e-05
1.098e-05
1.047e-05
9.956e-06
9.448e-06
8.944e-06
8.442e-06
7.942e-06
7.443e-06
6.946e-06
6.45e-06
5.955e-06
5.46e-06
4.965e-06
4.471e-06
3.976e-06
3.482e-06
2.988e-06
2.495e-06
2.004e-06
1.515e-06
1.03e-06
5.517e-07
1.314e-07
0.0002694
0.0002623
0.000249
0.0002358
0.0002249
0.0002161
0.000209
0.0002031
0.0001982
0.0001941
0.0001906
0.0001877
0.0001851
0.000183
0.0001811
0.0001794
0.0001779
0.0001766
0.0001754
0.0001743
0.0001733
0.0001724
0.0001715
0.0001707
0.0001699
0.0001691
0.0001684
0.0001676
0.0001669
0.0001662
0.0001655
0.0001648
0.000164
0.0001633
0.0001625
0.0001618
0.000161
0.0001601
0.0001592
0.0001583
0.0001573
0.0001563
0.0001552
0.0001539
0.0001526
0.0001512
0.0001497
0.0001481
0.0001462
0.0001443
0.0001421
0.0001398
0.0001373
0.0001345
0.0001316
0.0001284
0.000125
0.0001214
0.0001175
0.0001135
0.0001093
0.000105
0.0001006
9.607e-05
9.152e-05
8.698e-05
8.247e-05
7.804e-05
7.372e-05
6.952e-05
6.548e-05
6.161e-05
5.793e-05
5.445e-05
5.116e-05
4.808e-05
4.52e-05
4.252e-05
4.003e-05
3.773e-05
3.56e-05
3.364e-05
3.183e-05
3.017e-05
2.863e-05
2.722e-05
2.591e-05
2.47e-05
2.357e-05
2.252e-05
2.155e-05
2.063e-05
1.976e-05
1.895e-05
1.817e-05
1.743e-05
1.673e-05
1.605e-05
1.539e-05
1.476e-05
1.415e-05
1.355e-05
1.296e-05
1.239e-05
1.183e-05
1.128e-05
1.073e-05
1.02e-05
9.664e-06
9.138e-06
8.616e-06
8.099e-06
7.584e-06
7.073e-06
6.564e-06
6.057e-06
5.552e-06
5.048e-06
4.545e-06
4.043e-06
3.542e-06
3.042e-06
2.543e-06
2.045e-06
1.549e-06
1.054e-06
5.624e-07
1.29e-07
0.0002425
0.0002415
0.0002345
0.0002259
0.0002181
0.0002115
0.000206
0.0002013
0.0001973
0.0001938
0.0001907
0.000188
0.0001856
0.0001835
0.0001817
0.00018
0.0001785
0.0001771
0.0001759
0.0001748
0.0001737
0.0001727
0.0001718
0.0001709
0.00017
0.0001692
0.0001684
0.0001676
0.0001668
0.000166
0.0001653
0.0001645
0.0001637
0.0001629
0.0001621
0.0001612
0.0001603
0.0001594
0.0001585
0.0001575
0.0001565
0.0001553
0.0001542
0.0001529
0.0001516
0.0001501
0.0001485
0.0001469
0.000145
0.0001431
0.0001409
0.0001386
0.0001361
0.0001334
0.0001305
0.0001274
0.000124
0.0001205
0.0001168
0.0001129
0.0001088
0.0001046
0.0001003
9.586e-05
9.144e-05
8.702e-05
8.264e-05
7.834e-05
7.414e-05
7.006e-05
6.613e-05
6.237e-05
5.878e-05
5.538e-05
5.217e-05
4.915e-05
4.632e-05
4.368e-05
4.122e-05
3.893e-05
3.681e-05
3.484e-05
3.302e-05
3.133e-05
2.977e-05
2.832e-05
2.697e-05
2.572e-05
2.455e-05
2.345e-05
2.243e-05
2.146e-05
2.054e-05
1.968e-05
1.885e-05
1.807e-05
1.732e-05
1.659e-05
1.59e-05
1.522e-05
1.457e-05
1.393e-05
1.332e-05
1.271e-05
1.212e-05
1.154e-05
1.097e-05
1.041e-05
9.86e-06
9.314e-06
8.775e-06
8.242e-06
7.713e-06
7.188e-06
6.668e-06
6.15e-06
5.635e-06
5.123e-06
4.612e-06
4.104e-06
3.596e-06
3.09e-06
2.585e-06
2.08e-06
1.576e-06
1.072e-06
5.689e-07
1.262e-07
0.0002251
0.0002266
0.0002233
0.0002176
0.0002119
0.0002068
0.0002025
0.0001987
0.0001955
0.0001925
0.0001899
0.0001876
0.0001854
0.0001835
0.0001818
0.0001802
0.0001787
0.0001774
0.0001761
0.000175
0.0001739
0.0001729
0.0001719
0.000171
0.0001701
0.0001692
0.0001683
0.0001675
0.0001667
0.0001659
0.000165
0.0001642
0.0001634
0.0001625
0.0001616
0.0001607
0.0001598
0.0001589
0.0001579
0.0001568
0.0001557
0.0001546
0.0001533
0.000152
0.0001507
0.0001492
0.0001476
0.0001459
0.0001441
0.0001421
0.00014
0.0001377
0.0001352
0.0001325
0.0001297
0.0001266
0.0001233
0.0001199
0.0001162
0.0001124
0.0001084
0.0001042
0.0001
9.569e-05
9.136e-05
8.703e-05
8.274e-05
7.853e-05
7.442e-05
7.043e-05
6.66e-05
6.292e-05
5.941e-05
5.608e-05
5.293e-05
4.997e-05
4.718e-05
4.458e-05
4.215e-05
3.988e-05
3.777e-05
3.581e-05
3.398e-05
3.228e-05
3.07e-05
2.923e-05
2.786e-05
2.657e-05
2.537e-05
2.423e-05
2.317e-05
2.216e-05
2.121e-05
2.03e-05
1.944e-05
1.861e-05
1.782e-05
1.706e-05
1.633e-05
1.562e-05
1.493e-05
1.427e-05
1.362e-05
1.299e-05
1.238e-05
1.177e-05
1.118e-05
1.06e-05
1.003e-05
9.469e-06
8.914e-06
8.367e-06
7.826e-06
7.29e-06
6.759e-06
6.232e-06
5.709e-06
5.189e-06
4.671e-06
4.156e-06
3.643e-06
3.131e-06
2.619e-06
2.109e-06
1.598e-06
1.087e-06
5.741e-07
1.242e-07
0.0002132
0.0002157
0.0002144
0.0002107
0.0002065
0.0002026
0.000199
0.000196
0.0001933
0.0001909
0.0001886
0.0001866
0.0001848
0.0001831
0.0001815
0.00018
0.0001786
0.0001773
0.0001761
0.000175
0.0001739
0.0001729
0.0001719
0.000171
0.0001701
0.0001692
0.0001683
0.0001674
0.0001666
0.0001657
0.0001648
0.000164
0.0001631
0.0001622
0.0001613
0.0001604
0.0001594
0.0001584
0.0001573
0.0001563
0.0001551
0.0001539
0.0001527
0.0001514
0.00015
0.0001485
0.0001469
0.0001451
0.0001433
0.0001413
0.0001392
0.000137
0.0001345
0.0001319
0.0001291
0.0001261
0.0001228
0.0001194
0.0001158
0.000112
0.0001081
0.000104
9.981e-05
9.555e-05
9.127e-05
8.7e-05
8.277e-05
7.862e-05
7.458e-05
7.066e-05
6.689e-05
6.328e-05
5.984e-05
5.657e-05
5.347e-05
5.056e-05
4.781e-05
4.524e-05
4.284e-05
4.059e-05
3.85e-05
3.655e-05
3.472e-05
3.302e-05
3.144e-05
2.995e-05
2.856e-05
2.725e-05
2.603e-05
2.487e-05
2.377e-05
2.273e-05
2.175e-05
2.081e-05
1.992e-05
1.906e-05
1.824e-05
1.745e-05
1.668e-05
1.595e-05
1.524e-05
1.455e-05
1.388e-05
1.322e-05
1.259e-05
1.196e-05
1.136e-05
1.076e-05
1.017e-05
9.597e-06
9.03e-06
8.471e-06
7.92e-06
7.374e-06
6.835e-06
6.3e-06
5.77e-06
5.243e-06
4.72e-06
4.2e-06
3.681e-06
3.164e-06
2.648e-06
2.133e-06
1.616e-06
1.099e-06
5.791e-07
1.233e-07
0.0002046
0.0002073
0.0002072
0.000205
0.0002019
0.0001988
0.0001959
0.0001934
0.0001911
0.000189
0.0001872
0.0001854
0.0001838
0.0001823
0.0001809
0.0001796
0.0001783
0.0001771
0.000176
0.0001749
0.0001738
0.0001728
0.0001719
0.0001709
0.00017
0.0001691
0.0001682
0.0001673
0.0001664
0.0001655
0.0001647
0.0001638
0.0001629
0.0001619
0.000161
0.00016
0.000159
0.000158
0.0001569
0.0001558
0.0001547
0.0001535
0.0001522
0.0001508
0.0001494
0.0001479
0.0001463
0.0001446
0.0001428
0.0001408
0.0001387
0.0001365
0.000134
0.0001315
0.0001287
0.0001257
0.0001225
0.0001192
0.0001156
0.0001118
0.0001079
0.0001038
9.967e-05
9.543e-05
9.117e-05
8.693e-05
8.274e-05
7.863e-05
7.463e-05
7.076e-05
6.704e-05
6.348e-05
6.009e-05
5.686e-05
5.381e-05
5.094e-05
4.823e-05
4.57e-05
4.332e-05
4.11e-05
3.902e-05
3.708e-05
3.527e-05
3.357e-05
3.198e-05
3.049e-05
2.909e-05
2.777e-05
2.653e-05
2.535e-05
2.424e-05
2.318e-05
2.217e-05
2.121e-05
2.029e-05
1.941e-05
1.856e-05
1.775e-05
1.697e-05
1.621e-05
1.548e-05
1.477e-05
1.408e-05
1.341e-05
1.275e-05
1.212e-05
1.149e-05
1.088e-05
1.028e-05
9.698e-06
9.121e-06
8.553e-06
7.992e-06
7.44e-06
6.893e-06
6.353e-06
5.817e-06
5.286e-06
4.758e-06
4.234e-06
3.711e-06
3.191e-06
2.671e-06
2.152e-06
1.632e-06
1.11e-06
5.844e-07
1.238e-07
0.0001981
0.0002008
0.0002014
0.0002001
0.0001979
0.0001955
0.0001931
0.000191
0.000189
0.0001873
0.0001856
0.0001842
0.0001828
0.0001814
0.0001802
0.000179
0.0001778
0.0001767
0.0001756
0.0001746
0.0001736
0.0001727
0.0001717
0.0001708
0.0001699
0.000169
0.0001681
0.0001672
0.0001663
0.0001654
0.0001645
0.0001636
0.0001627
0.0001617
0.0001608
0.0001598
0.0001588
0.0001577
0.0001567
0.0001555
0.0001543
0.0001531
0.0001518
0.0001505
0.000149
0.0001475
0.0001459
0.0001442
0.0001424
0.0001405
0.0001384
0.0001362
0.0001338
0.0001312
0.0001285
0.0001255
0.0001224
0.000119
0.0001155
0.0001117
0.0001078
0.0001037
9.957e-05
9.533e-05
9.107e-05
8.683e-05
8.264e-05
7.855e-05
7.458e-05
7.074e-05
6.706e-05
6.353e-05
6.017e-05
5.699e-05
5.397e-05
5.113e-05
4.845e-05
4.594e-05
4.359e-05
4.14e-05
3.934e-05
3.742e-05
3.562e-05
3.393e-05
3.235e-05
3.086e-05
2.946e-05
2.813e-05
2.688e-05
2.569e-05
2.457e-05
2.349e-05
2.247e-05
2.149e-05
2.056e-05
1.966e-05
1.88e-05
1.797e-05
1.717e-05
1.639e-05
1.565e-05
1.492e-05
1.422e-05
1.354e-05
1.287e-05
1.222e-05
1.159e-05
1.097e-05
1.036e-05
9.768e-06
9.183e-06
8.609e-06
8.043e-06
7.485e-06
6.934e-06
6.389e-06
5.85e-06
5.315e-06
4.784e-06
4.257e-06
3.732e-06
3.21e-06
2.688e-06
2.166e-06
1.644e-06
1.119e-06
5.903e-07
1.257e-07
0.0001931
0.0001956
0.0001965
0.0001959
0.0001945
0.0001926
0.0001907
0.0001888
0.0001871
0.0001856
0.0001842
0.0001829
0.0001816
0.0001805
0.0001794
0.0001783
0.0001772
0.0001762
0.0001752
0.0001743
0.0001733
0.0001724
0.0001715
0.0001706
0.0001697
0.0001688
0.0001679
0.0001671
0.0001662
0.0001653
0.0001644
0.0001635
0.0001626
0.0001616
0.0001606
0.0001597
0.0001586
0.0001576
0.0001565
0.0001553
0.0001542
0.0001529
0.0001516
0.0001503
0.0001488
0.0001473
0.0001457
0.000144
0.0001422
0.0001403
0.0001383
0.0001361
0.0001337
0.0001312
0.0001284
0.0001255
0.0001224
0.0001191
0.0001155
0.0001118
0.0001078
0.0001037
9.952e-05
9.524e-05
9.095e-05
8.669e-05
8.249e-05
7.84e-05
7.443e-05
7.061e-05
6.694e-05
6.344e-05
6.01e-05
5.694e-05
5.395e-05
5.113e-05
4.848e-05
4.6e-05
4.367e-05
4.15e-05
3.946e-05
3.756e-05
3.578e-05
3.411e-05
3.253e-05
3.105e-05
2.966e-05
2.834e-05
2.708e-05
2.59e-05
2.476e-05
2.368e-05
2.265e-05
2.167e-05
2.072e-05
1.981e-05
1.894e-05
1.81e-05
1.729e-05
1.651e-05
1.575e-05
1.501e-05
1.43e-05
1.361e-05
1.294e-05
1.228e-05
1.164e-05
1.102e-05
1.041e-05
9.806e-06
9.217e-06
8.638e-06
8.069e-06
7.508e-06
6.955e-06
6.408e-06
5.866e-06
5.33e-06
4.798e-06
4.27e-06
3.745e-06
3.221e-06
2.699e-06
2.176e-06
1.653e-06
1.127e-06
5.97e-07
1.293e-07
0.000189
0.0001913
0.0001925
0.0001924
0.0001914
0.00019
0.0001884
0.0001869
0.0001854
0.0001841
0.0001828
0.0001817
0.0001806
0.0001795
0.0001785
0.0001776
0.0001766
0.0001757
0.0001748
0.0001739
0.000173
0.0001721
0.0001713
0.0001704
0.0001695
0.0001687
0.0001678
0.000167
0.0001661
0.0001652
0.0001643
0.0001634
0.0001625
0.0001615
0.0001606
0.0001596
0.0001586
0.0001575
0.0001564
0.0001553
0.0001541
0.0001529
0.0001516
0.0001502
0.0001488
0.0001473
0.0001457
0.000144
0.0001423
0.0001404
0.0001383
0.0001362
0.0001338
0.0001313
0.0001286
0.0001257
0.0001226
0.0001192
0.0001157
0.0001119
0.0001079
0.0001038
9.951e-05
9.517e-05
9.082e-05
8.651e-05
8.228e-05
7.816e-05
7.419e-05
7.036e-05
6.67e-05
6.32e-05
5.988e-05
5.673e-05
5.375e-05
5.095e-05
4.832e-05
4.586e-05
4.356e-05
4.141e-05
3.94e-05
3.752e-05
3.576e-05
3.41e-05
3.255e-05
3.108e-05
2.97e-05
2.839e-05
2.714e-05
2.596e-05
2.483e-05
2.375e-05
2.271e-05
2.173e-05
2.078e-05
1.987e-05
1.899e-05
1.814e-05
1.733e-05
1.654e-05
1.578e-05
1.504e-05
1.433e-05
1.363e-05
1.296e-05
1.23e-05
1.165e-05
1.103e-05
1.041e-05
9.811e-06
9.221e-06
8.641e-06
8.071e-06
7.509e-06
6.956e-06
6.408e-06
5.867e-06
5.331e-06
4.8e-06
4.272e-06
3.748e-06
3.225e-06
2.703e-06
2.182e-06
1.659e-06
1.134e-06
6.045e-07
1.346e-07
0.0001857
0.0001878
0.0001891
0.0001893
0.0001887
0.0001877
0.0001865
0.0001852
0.0001839
0.0001827
0.0001816
0.0001806
0.0001796
0.0001786
0.0001777
0.0001768
0.000176
0.0001751
0.0001743
0.0001735
0.0001726
0.0001718
0.000171
0.0001702
0.0001694
0.0001685
0.0001677
0.0001669
0.000166
0.0001651
0.0001643
0.0001634
0.0001625
0.0001615
0.0001606
0.0001596
0.0001586
0.0001575
0.0001565
0.0001553
0.0001542
0.0001529
0.0001517
0.0001503
0.0001489
0.0001474
0.0001459
0.0001442
0.0001425
0.0001406
0.0001386
0.0001364
0.0001341
0.0001316
0.0001289
0.000126
0.0001229
0.0001196
0.000116
0.0001121
0.0001081
0.0001039
9.953e-05
9.51e-05
9.067e-05
8.628e-05
8.2e-05
7.784e-05
7.384e-05
7e-05
6.633e-05
6.282e-05
5.949e-05
5.634e-05
5.337e-05
5.058e-05
4.797e-05
4.552e-05
4.324e-05
4.112e-05
3.914e-05
3.728e-05
3.555e-05
3.392e-05
3.239e-05
3.095e-05
2.958e-05
2.829e-05
2.705e-05
2.588e-05
2.476e-05
2.369e-05
2.266e-05
2.168e-05
2.073e-05
1.982e-05
1.895e-05
1.81e-05
1.729e-05
1.65e-05
1.574e-05
1.501e-05
1.429e-05
1.36e-05
1.292e-05
1.226e-05
1.162e-05
1.1e-05
1.038e-05
9.784e-06
9.195e-06
8.617e-06
8.049e-06
7.489e-06
6.936e-06
6.391e-06
5.852e-06
5.318e-06
4.789e-06
4.264e-06
3.741e-06
3.221e-06
2.702e-06
2.183e-06
1.663e-06
1.14e-06
6.13e-07
1.415e-07
0.0001829
0.0001849
0.0001862
0.0001866
0.0001863
0.0001856
0.0001847
0.0001836
0.0001825
0.0001815
0.0001805
0.0001795
0.0001786
0.0001778
0.000177
0.0001762
0.0001754
0.0001746
0.0001738
0.0001731
0.0001723
0.0001715
0.0001707
0.00017
0.0001692
0.0001684
0.0001676
0.0001668
0.000166
0.0001651
0.0001643
0.0001634
0.0001625
0.0001616
0.0001607
0.0001597
0.0001587
0.0001577
0.0001566
0.0001555
0.0001543
0.0001531
0.0001519
0.0001506
0.0001492
0.0001477
0.0001462
0.0001446
0.0001428
0.000141
0.000139
0.0001369
0.0001346
0.0001321
0.0001295
0.0001266
0.0001234
0.0001201
0.0001164
0.0001125
0.0001084
0.0001041
9.96e-05
9.505e-05
9.05e-05
8.601e-05
8.165e-05
7.744e-05
7.339e-05
6.952e-05
6.582e-05
6.229e-05
5.894e-05
5.578e-05
5.28e-05
5.001e-05
4.74e-05
4.498e-05
4.272e-05
4.063e-05
3.868e-05
3.686e-05
3.516e-05
3.356e-05
3.206e-05
3.065e-05
2.931e-05
2.803e-05
2.682e-05
2.567e-05
2.456e-05
2.35e-05
2.249e-05
2.152e-05
2.058e-05
1.968e-05
1.881e-05
1.798e-05
1.717e-05
1.639e-05
1.564e-05
1.491e-05
1.42e-05
1.351e-05
1.284e-05
1.219e-05
1.155e-05
1.093e-05
1.032e-05
9.724e-06
9.14e-06
8.566e-06
8.002e-06
7.446e-06
6.898e-06
6.357e-06
5.821e-06
5.291e-06
4.766e-06
4.245e-06
3.726e-06
3.21e-06
2.695e-06
2.18e-06
1.664e-06
1.145e-06
6.225e-07
1.501e-07
0.0001805
0.0001824
0.0001837
0.0001842
0.0001842
0.0001838
0.0001831
0.0001822
0.0001813
0.0001804
0.0001795
0.0001786
0.0001778
0.000177
0.0001763
0.0001755
0.0001748
0.0001741
0.0001734
0.0001727
0.0001719
0.0001712
0.0001705
0.0001698
0.000169
0.0001683
0.0001675
0.0001667
0.0001659
0.0001651
0.0001643
0.0001635
0.0001626
0.0001617
0.0001608
0.0001599
0.0001589
0.0001579
0.0001569
0.0001558
0.0001547
0.0001535
0.0001523
0.000151
0.0001496
0.0001482
0.0001467
0.0001451
0.0001434
0.0001416
0.0001397
0.0001376
0.0001353
0.0001329
0.0001302
0.0001273
0.0001242
0.0001207
0.000117
0.0001131
0.0001088
0.0001044
9.972e-05
9.5e-05
9.03e-05
8.569e-05
8.123e-05
7.694e-05
7.283e-05
6.89e-05
6.515e-05
6.159e-05
5.82e-05
5.501e-05
5.202e-05
4.922e-05
4.662e-05
4.421e-05
4.199e-05
3.992e-05
3.801e-05
3.623e-05
3.458e-05
3.302e-05
3.156e-05
3.018e-05
2.888e-05
2.763e-05
2.645e-05
2.532e-05
2.424e-05
2.32e-05
2.221e-05
2.125e-05
2.033e-05
1.945e-05
1.86e-05
1.777e-05
1.698e-05
1.621e-05
1.547e-05
1.475e-05
1.405e-05
1.337e-05
1.271e-05
1.207e-05
1.144e-05
1.082e-05
1.022e-05
9.634e-06
9.057e-06
8.49e-06
7.932e-06
7.382e-06
6.84e-06
6.305e-06
5.775e-06
5.251e-06
4.731e-06
4.215e-06
3.702e-06
3.191e-06
2.682e-06
2.173e-06
1.662e-06
1.15e-06
6.328e-07
1.603e-07
0.0001786
0.0001803
0.0001815
0.0001822
0.0001824
0.0001821
0.0001816
0.0001809
0.0001802
0.0001794
0.0001786
0.0001778
0.0001771
0.0001764
0.0001757
0.000175
0.0001743
0.0001736
0.000173
0.0001723
0.0001716
0.000171
0.0001703
0.0001696
0.0001689
0.0001682
0.0001674
0.0001667
0.000166
0.0001652
0.0001644
0.0001636
0.0001628
0.0001619
0.000161
0.0001601
0.0001592
0.0001582
0.0001572
0.0001562
0.0001551
0.000154
0.0001528
0.0001516
0.0001503
0.0001489
0.0001474
0.0001459
0.0001442
0.0001425
0.0001406
0.0001385
0.0001363
0.0001339
0.0001312
0.0001283
0.0001251
0.0001217
0.0001179
0.0001138
0.0001094
0.0001047
9.989e-05
9.497e-05
9.007e-05
8.531e-05
8.072e-05
7.633e-05
7.214e-05
6.813e-05
6.432e-05
6.069e-05
5.725e-05
5.402e-05
5.099e-05
4.819e-05
4.559e-05
4.321e-05
4.101e-05
3.899e-05
3.713e-05
3.541e-05
3.38e-05
3.23e-05
3.089e-05
2.955e-05
2.829e-05
2.709e-05
2.594e-05
2.484e-05
2.379e-05
2.278e-05
2.181e-05
2.088e-05
1.999e-05
1.912e-05
1.829e-05
1.749e-05
1.671e-05
1.596e-05
1.524e-05
1.453e-05
1.385e-05
1.318e-05
1.253e-05
1.19e-05
1.129e-05
1.068e-05
1.009e-05
9.515e-06
8.947e-06
8.389e-06
7.84e-06
7.299e-06
6.765e-06
6.237e-06
5.715e-06
5.198e-06
4.686e-06
4.177e-06
3.67e-06
3.166e-06
2.664e-06
2.161e-06
1.658e-06
1.153e-06
6.441e-07
1.721e-07
0.0001768
0.0001784
0.0001797
0.0001804
0.0001807
0.0001806
0.0001803
0.0001798
0.0001791
0.0001785
0.0001778
0.0001771
0.0001764
0.0001757
0.0001751
0.0001745
0.0001738
0.0001732
0.0001726
0.000172
0.0001714
0.0001707
0.0001701
0.0001694
0.0001688
0.0001681
0.0001674
0.0001667
0.000166
0.0001653
0.0001645
0.0001638
0.000163
0.0001622
0.0001614
0.0001605
0.0001596
0.0001587
0.0001577
0.0001567
0.0001557
0.0001546
0.0001535
0.0001523
0.000151
0.0001497
0.0001483
0.0001469
0.0001453
0.0001436
0.0001417
0.0001397
0.0001376
0.0001352
0.0001325
0.0001296
0.0001264
0.0001228
0.0001189
0.0001147
0.0001101
0.0001052
0.0001001
9.495e-05
8.982e-05
8.485e-05
8.01e-05
7.559e-05
7.129e-05
6.718e-05
6.327e-05
5.955e-05
5.604e-05
5.275e-05
4.969e-05
4.687e-05
4.429e-05
4.193e-05
3.978e-05
3.782e-05
3.602e-05
3.437e-05
3.283e-05
3.139e-05
3.004e-05
2.876e-05
2.755e-05
2.639e-05
2.529e-05
2.424e-05
2.322e-05
2.225e-05
2.132e-05
2.042e-05
1.955e-05
1.872e-05
1.791e-05
1.713e-05
1.638e-05
1.565e-05
1.495e-05
1.426e-05
1.36e-05
1.295e-05
1.232e-05
1.17e-05
1.11e-05
1.051e-05
9.935e-06
9.369e-06
8.813e-06
8.267e-06
7.728e-06
7.197e-06
6.673e-06
6.155e-06
5.642e-06
5.134e-06
4.63e-06
4.129e-06
3.631e-06
3.135e-06
2.641e-06
2.147e-06
1.652e-06
1.156e-06
6.561e-07
1.852e-07
0.0001754
0.0001769
0.0001781
0.0001789
0.0001792
0.0001793
0.0001791
0.0001787
0.0001782
0.0001777
0.0001771
0.0001764
0.0001758
0.0001752
0.0001746
0.000174
0.0001734
0.0001729
0.0001723
0.0001717
0.0001711
0.0001705
0.0001699
0.0001693
0.0001687
0.0001681
0.0001675
0.0001668
0.0001661
0.0001654
0.0001647
0.000164
0.0001633
0.0001625
0.0001617
0.0001609
0.0001601
0.0001592
0.0001583
0.0001574
0.0001564
0.0001554
0.0001543
0.0001532
0.000152
0.0001507
0.0001494
0.000148
0.0001465
0.0001449
0.0001432
0.0001413
0.0001391
0.0001368
0.0001342
0.0001312
0.000128
0.0001243
0.0001203
0.0001159
0.0001111
0.0001059
0.0001005
9.496e-05
8.952e-05
8.43e-05
7.936e-05
7.468e-05
7.023e-05
6.599e-05
6.194e-05
5.811e-05
5.45e-05
5.115e-05
4.805e-05
4.523e-05
4.267e-05
4.036e-05
3.828e-05
3.639e-05
3.468e-05
3.31e-05
3.165e-05
3.029e-05
2.901e-05
2.781e-05
2.666e-05
2.556e-05
2.451e-05
2.351e-05
2.254e-05
2.161e-05
2.072e-05
1.986e-05
1.903e-05
1.823e-05
1.745e-05
1.671e-05
1.598e-05
1.528e-05
1.46e-05
1.394e-05
1.33e-05
1.267e-05
1.206e-05
1.147e-05
1.088e-05
1.031e-05
9.75e-06
9.199e-06
8.658e-06
8.124e-06
7.599e-06
7.08e-06
6.567e-06
6.06e-06
5.557e-06
5.059e-06
4.565e-06
4.074e-06
3.585e-06
3.099e-06
2.613e-06
2.129e-06
1.644e-06
1.158e-06
6.689e-07
1.995e-07
0.0001741
0.0001755
0.0001767
0.0001775
0.000178
0.0001781
0.000178
0.0001778
0.0001774
0.0001769
0.0001764
0.0001759
0.0001753
0.0001748
0.0001742
0.0001737
0.0001731
0.0001726
0.000172
0.0001715
0.0001709
0.0001704
0.0001698
0.0001693
0.0001687
0.0001681
0.0001675
0.0001669
0.0001663
0.0001656
0.000165
0.0001643
0.0001636
0.0001629
0.0001622
0.0001614
0.0001606
0.0001598
0.000159
0.0001581
0.0001572
0.0001562
0.0001552
0.0001542
0.0001531
0.000152
0.0001507
0.0001494
0.000148
0.0001465
0.0001449
0.0001431
0.0001411
0.0001388
0.0001363
0.0001333
0.00013
0.0001263
0.0001222
0.0001175
0.0001124
0.0001069
0.000101
9.502e-05
8.916e-05
8.362e-05
7.843e-05
7.353e-05
6.889e-05
6.446e-05
6.025e-05
5.628e-05
5.257e-05
4.914e-05
4.602e-05
4.321e-05
4.07e-05
3.846e-05
3.647e-05
3.469e-05
3.308e-05
3.162e-05
3.026e-05
2.9e-05
2.782e-05
2.669e-05
2.562e-05
2.459e-05
2.361e-05
2.266e-05
2.175e-05
2.088e-05
2.003e-05
1.922e-05
1.843e-05
1.767e-05
1.693e-05
1.622e-05
1.553e-05
1.486e-05
1.421e-05
1.358e-05
1.296e-05
1.236e-05
1.177e-05
1.12e-05
1.064e-05
1.008e-05
9.542e-06
9.008e-06
8.483e-06
7.965e-06
7.454e-06
6.948e-06
6.448e-06
5.953e-06
5.463e-06
4.976e-06
4.492e-06
4.012e-06
3.534e-06
3.057e-06
2.582e-06
2.108e-06
1.634e-06
1.159e-06
6.821e-07
2.148e-07
0.000173
0.0001744
0.0001755
0.0001763
0.0001768
0.0001771
0.0001771
0.0001769
0.0001766
0.0001763
0.0001758
0.0001754
0.0001749
0.0001744
0.0001738
0.0001733
0.0001728
0.0001723
0.0001718
0.0001713
0.0001708
0.0001703
0.0001698
0.0001692
0.0001687
0.0001682
0.0001676
0.000167
0.0001665
0.0001659
0.0001653
0.0001646
0.000164
0.0001633
0.0001627
0.000162
0.0001613
0.0001605
0.0001597
0.0001589
0.0001581
0.0001572
0.0001563
0.0001554
0.0001544
0.0001533
0.0001522
0.0001511
0.0001498
0.0001484
0.000147
0.0001453
0.0001434
0.0001413
0.0001389
0.000136
0.0001327
0.0001289
0.0001246
0.0001197
0.0001142
0.0001082
0.0001017
9.514e-05
8.874e-05
8.276e-05
7.722e-05
7.203e-05
6.712e-05
6.246e-05
5.805e-05
5.393e-05
5.012e-05
4.665e-05
4.353e-05
4.076e-05
3.833e-05
3.62e-05
3.434e-05
3.27e-05
3.123e-05
2.99e-05
2.868e-05
2.754e-05
2.646e-05
2.543e-05
2.445e-05
2.35e-05
2.259e-05
2.171e-05
2.087e-05
2.005e-05
1.926e-05
1.85e-05
1.776e-05
1.704e-05
1.635e-05
1.568e-05
1.503e-05
1.44e-05
1.378e-05
1.318e-05
1.259e-05
1.202e-05
1.146e-05
1.091e-05
1.037e-05
9.837e-06
9.315e-06
8.8e-06
8.293e-06
7.792e-06
7.296e-06
6.806e-06
6.32e-06
5.838e-06
5.36e-06
4.885e-06
4.414e-06
3.944e-06
3.477e-06
3.012e-06
2.548e-06
2.085e-06
1.623e-06
1.16e-06
6.957e-07
2.309e-07
0.0001721
0.0001733
0.0001745
0.0001753
0.0001758
0.0001761
0.0001762
0.0001762
0.000176
0.0001757
0.0001753
0.0001749
0.0001745
0.000174
0.0001735
0.0001731
0.0001726
0.0001721
0.0001716
0.0001712
0.0001707
0.0001702
0.0001697
0.0001692
0.0001687
0.0001682
0.0001677
0.0001672
0.0001667
0.0001661
0.0001656
0.000165
0.0001644
0.0001638
0.0001632
0.0001626
0.0001619
0.0001613
0.0001606
0.0001598
0.0001591
0.0001583
0.0001575
0.0001567
0.0001558
0.0001549
0.0001539
0.0001529
0.0001518
0.0001506
0.0001493
0.0001479
0.0001462
0.0001443
0.0001421
0.0001394
0.0001361
0.0001323
0.0001279
0.0001227
0.0001168
0.0001102
0.0001029
9.541e-05
8.819e-05
8.157e-05
7.552e-05
6.992e-05
6.468e-05
5.976e-05
5.516e-05
5.092e-05
4.705e-05
4.357e-05
4.049e-05
3.782e-05
3.552e-05
3.356e-05
3.188e-05
3.043e-05
2.914e-05
2.798e-05
2.69e-05
2.59e-05
2.494e-05
2.403e-05
2.315e-05
2.229e-05
2.147e-05
2.067e-05
1.99e-05
1.915e-05
1.842e-05
1.771e-05
1.703e-05
1.637e-05
1.572e-05
1.51e-05
1.449e-05
1.39e-05
1.332e-05
1.275e-05
1.22e-05
1.165e-05
1.112e-05
1.06e-05
1.008e-05
9.574e-06
9.074e-06
8.58e-06
8.091e-06
7.608e-06
7.129e-06
6.654e-06
6.183e-06
5.716e-06
5.251e-06
4.79e-06
4.33e-06
3.873e-06
3.418e-06
2.964e-06
2.512e-06
2.061e-06
1.61e-06
1.16e-06
7.095e-07
2.475e-07
0.0001712
0.0001725
0.0001735
0.0001744
0.000175
0.0001753
0.0001755
0.0001755
0.0001754
0.0001751
0.0001748
0.0001745
0.0001741
0.0001737
0.0001733
0.0001728
0.0001724
0.000172
0.0001715
0.0001711
0.0001706
0.0001702
0.0001697
0.0001693
0.0001688
0.0001684
0.0001679
0.0001674
0.0001669
0.0001664
0.0001659
0.0001654
0.0001649
0.0001644
0.0001638
0.0001632
0.0001627
0.0001621
0.0001615
0.0001608
0.0001602
0.0001595
0.0001588
0.0001581
0.0001573
0.0001566
0.0001558
0.0001549
0.000154
0.0001531
0.000152
0.0001509
0.0001495
0.0001479
0.000146
0.0001435
0.0001405
0.0001369
0.0001324
0.0001271
0.0001207
0.0001133
0.0001048
9.595e-05
8.738e-05
7.97e-05
7.29e-05
6.677e-05
6.117e-05
5.605e-05
5.133e-05
4.705e-05
4.321e-05
3.981e-05
3.686e-05
3.436e-05
3.227e-05
3.054e-05
2.91e-05
2.788e-05
2.681e-05
2.585e-05
2.495e-05
2.41e-05
2.329e-05
2.25e-05
2.173e-05
2.099e-05
2.026e-05
1.954e-05
1.885e-05
1.818e-05
1.752e-05
1.688e-05
1.626e-05
1.565e-05
1.506e-05
1.448e-05
1.392e-05
1.337e-05
1.283e-05
1.23e-05
1.178e-05
1.127e-05
1.077e-05
1.027e-05
9.784e-06
9.301e-06
8.823e-06
8.351e-06
7.882e-06
7.417e-06
6.956e-06
6.498e-06
6.042e-06
5.589e-06
5.139e-06
4.69e-06
4.244e-06
3.799e-06
3.356e-06
2.914e-06
2.474e-06
2.035e-06
1.597e-06
1.16e-06
7.234e-07
2.643e-07
0.0001705
0.0001717
0.0001728
0.0001736
0.0001742
0.0001746
0.0001748
0.0001749
0.0001748
0.0001747
0.0001744
0.0001741
0.0001738
0.0001734
0.0001731
0.0001727
0.0001722
0.0001718
0.0001714
0.000171
0.0001706
0.0001702
0.0001698
0.0001693
0.0001689
0.0001685
0.0001681
0.0001676
0.0001672
0.0001667
0.0001663
0.0001658
0.0001654
0.0001649
0.0001644
0.0001639
0.0001634
0.0001629
0.0001624
0.0001619
0.0001613
0.0001607
0.0001602
0.0001596
0.000159
0.0001584
0.0001577
0.0001571
0.0001564
0.0001557
0.000155
0.0001542
0.0001532
0.000152
0.0001505
0.0001486
0.000146
0.0001427
0.0001386
0.0001335
0.000127
0.0001187
0.0001085
9.706e-05
8.586e-05
7.63e-05
6.837e-05
6.171e-05
5.596e-05
5.09e-05
4.63e-05
4.218e-05
3.852e-05
3.533e-05
3.262e-05
3.038e-05
2.858e-05
2.716e-05
2.602e-05
2.509e-05
2.428e-05
2.354e-05
2.285e-05
2.218e-05
2.153e-05
2.088e-05
2.023e-05
1.96e-05
1.897e-05
1.836e-05
1.775e-05
1.716e-05
1.657e-05
1.601e-05
1.545e-05
1.49e-05
1.437e-05
1.384e-05
1.333e-05
1.282e-05
1.233e-05
1.184e-05
1.136e-05
1.088e-05
1.041e-05
9.941e-06
9.48e-06
9.022e-06
8.568e-06
8.117e-06
7.669e-06
7.224e-06
6.78e-06
6.339e-06
5.899e-06
5.461e-06
5.025e-06
4.59e-06
4.156e-06
3.724e-06
3.293e-06
2.864e-06
2.436e-06
2.009e-06
1.583e-06
1.159e-06
7.37e-07
2.811e-07
0.0001699
0.0001711
0.0001721
0.0001729
0.0001735
0.000174
0.0001743
0.0001744
0.0001744
0.0001743
0.0001741
0.0001738
0.0001735
0.0001732
0.0001729
0.0001725
0.0001721
0.0001717
0.0001714
0.000171
0.0001706
0.0001702
0.0001698
0.0001694
0.000169
0.0001686
0.0001683
0.0001679
0.0001675
0.0001671
0.0001667
0.0001663
0.0001659
0.0001655
0.0001651
0.0001646
0.0001642
0.0001638
0.0001634
0.0001629
0.0001625
0.000162
0.0001616
0.0001611
0.0001607
0.0001602
0.0001598
0.0001593
0.0001589
0.0001585
0.0001581
0.0001577
0.0001572
0.0001565
0.0001557
0.0001544
0.0001526
0.0001501
0.0001469
0.0001427
0.0001372
0.0001294
0.0001167
9.931e-05
8.191e-05
6.903e-05
5.993e-05
5.346e-05
4.834e-05
4.39e-05
3.986e-05
3.624e-05
3.3e-05
3.016e-05
2.779e-05
2.591e-05
2.45e-05
2.346e-05
2.269e-05
2.21e-05
2.158e-05
2.111e-05
2.064e-05
2.017e-05
1.968e-05
1.918e-05
1.867e-05
1.816e-05
1.764e-05
1.713e-05
1.661e-05
1.611e-05
1.561e-05
1.511e-05
1.462e-05
1.414e-05
1.367e-05
1.32e-05
1.273e-05
1.228e-05
1.182e-05
1.137e-05
1.093e-05
1.049e-05
1.005e-05
9.61e-06
9.176e-06
8.744e-06
8.314e-06
7.885e-06
7.458e-06
7.031e-06
6.606e-06
6.181e-06
5.757e-06
5.334e-06
4.912e-06
4.49e-06
4.069e-06
3.65e-06
3.231e-06
2.813e-06
2.397e-06
1.982e-06
1.569e-06
1.159e-06
7.502e-07
2.976e-07
0.0001694
0.0001705
0.0001715
0.0001723
0.000173
0.0001734
0.0001738
0.0001739
0.000174
0.0001739
0.0001738
0.0001736
0.0001733
0.000173
0.0001727
0.0001724
0.000172