/*--------------------------------*- C++ -*----------------------------------*\
  =========                 |
  \\      /  F ield         | OpenFOAM: The Open Source CFD Toolbox
   \\    /   O peration     | Website:  https://openfoam.org
    \\  /    A nd           | Version:  7
     \\/     M anipulation  |
\*---------------------------------------------------------------------------*/
FoamFile
{
    version     2.0;
    format      ascii;
    class       surfaceScalarField;
    location    "2699.99947344718248";
    object      phi;
}
// * * * * * * * * * * * * * * * * * * * * * * * * * * * * * * * * * * * * * //

dimensions      [0 3 -1 0 0 0 0];

internalField   nonuniform List<scalar> 
8032
(
6.857e-10
2.518e-10
4.804e-10
2.053e-10
3.48e-10
1.324e-10
2.643e-10
8.373e-11
2.101e-10
5.417e-11
1.737e-10
3.639e-11
1.482e-10
2.554e-11
1.295e-10
1.869e-11
1.153e-10
1.418e-11
1.043e-10
1.108e-11
9.539e-11
8.858e-12
8.819e-11
7.203e-12
8.225e-11
5.935e-12
7.732e-11
4.937e-12
7.318e-11
4.136e-12
6.97e-11
3.481e-12
6.676e-11
2.937e-12
6.428e-11
2.478e-12
6.22e-11
2.086e-12
6.045e-11
1.747e-12
5.9e-11
1.45e-12
5.781e-11
1.188e-12
5.686e-11
9.52e-13
5.612e-11
7.38e-13
5.558e-11
5.413e-13
5.522e-11
3.58e-13
5.504e-11
1.85e-13
5.502e-11
1.936e-14
5.516e-11
-1.412e-13
5.546e-11
-2.987e-13
5.592e-11
-4.551e-13
5.653e-11
-6.12e-13
5.73e-11
-7.709e-13
5.823e-11
-9.329e-13
5.933e-11
-1.099e-12
6.06e-11
-1.27e-12
6.205e-11
-1.447e-12
6.368e-11
-1.63e-12
6.55e-11
-1.819e-12
6.751e-11
-2.014e-12
6.972e-11
-2.214e-12
7.214e-11
-2.418e-12
7.477e-11
-2.625e-12
7.76e-11
-2.833e-12
8.064e-11
-3.04e-12
8.388e-11
-3.241e-12
8.732e-11
-3.433e-12
9.093e-11
-3.612e-12
9.47e-11
-3.773e-12
9.861e-11
-3.91e-12
1.026e-10
-4.017e-12
1.067e-10
-4.088e-12
1.108e-10
-4.115e-12
1.149e-10
-4.093e-12
1.189e-10
-4.017e-12
1.228e-10
-3.881e-12
1.265e-10
-3.682e-12
1.299e-10
-3.418e-12
1.33e-10
-3.091e-12
1.357e-10
-2.702e-12
1.38e-10
-2.259e-12
1.397e-10
-1.769e-12
1.41e-10
-1.242e-12
1.417e-10
-6.923e-13
1.418e-10
-1.317e-13
1.414e-10
4.26e-13
1.404e-10
9.679e-13
1.389e-10
1.483e-12
1.37e-10
1.96e-12
1.346e-10
2.393e-12
1.318e-10
2.776e-12
1.287e-10
3.105e-12
1.253e-10
3.378e-12
1.217e-10
3.595e-12
1.18e-10
3.758e-12
1.141e-10
3.868e-12
1.102e-10
3.93e-12
1.062e-10
3.946e-12
1.023e-10
3.923e-12
9.844e-11
3.864e-12
9.466e-11
3.774e-12
9.1e-11
3.659e-12
8.748e-11
3.524e-12
8.411e-11
3.372e-12
8.09e-11
3.208e-12
7.786e-11
3.037e-12
7.5e-11
2.86e-12
7.232e-11
2.682e-12
6.981e-11
2.505e-12
6.748e-11
2.33e-12
6.532e-11
2.16e-12
6.333e-11
1.996e-12
6.149e-11
1.839e-12
5.98e-11
1.69e-12
5.825e-11
1.548e-12
5.683e-11
1.415e-12
5.554e-11
1.291e-12
5.437e-11
1.175e-12
5.33e-11
1.067e-12
5.234e-11
9.668e-13
5.146e-11
8.747e-13
5.067e-11
7.899e-13
4.996e-11
7.121e-13
4.932e-11
6.409e-13
4.874e-11
5.759e-13
4.823e-11
5.166e-13
4.776e-11
4.628e-13
4.735e-11
4.139e-13
4.698e-11
3.696e-13
4.665e-11
3.296e-13
4.636e-11
2.935e-13
4.609e-11
2.611e-13
4.586e-11
2.321e-13
4.566e-11
2.062e-13
4.547e-11
1.833e-13
4.531e-11
1.631e-13
4.516e-11
1.456e-13
4.503e-11
1.308e-13
4.492e-11
1.186e-13
4.481e-11
1.092e-13
4.47e-11
1.028e-13
4.46e-11
9.992e-14
4.45e-11
1.014e-13
4.439e-11
1.09e-13
4.427e-11
1.257e-13
4.411e-11
1.569e-13
4.39e-11
2.085e-13
2.71e-13
9.523e-10
2.37e-10
8.501e-10
3.075e-10
7.275e-10
2.55e-10
6.182e-10
1.93e-10
5.293e-10
1.431e-10
4.591e-10
1.066e-10
4.04e-10
8.068e-11
3.603e-10
6.231e-11
3.254e-10
4.911e-11
2.971e-10
3.94e-11
2.739e-10
3.209e-11
2.546e-10
2.645e-11
2.386e-10
2.202e-11
2.25e-10
1.847e-11
2.136e-10
1.557e-11
2.039e-10
1.317e-11
1.957e-10
1.116e-11
1.887e-10
9.45e-12
1.828e-10
7.981e-12
1.779e-10
6.703e-12
1.737e-10
5.579e-12
1.703e-10
4.58e-12
1.676e-10
3.681e-12
1.655e-10
2.862e-12
1.639e-10
2.108e-12
1.629e-10
1.405e-12
1.623e-10
7.399e-13
1.622e-10
1.036e-13
1.626e-10
-5.129e-13
1.634e-10
-1.118e-12
1.647e-10
-1.717e-12
1.664e-10
-2.317e-12
1.685e-10
-2.924e-12
1.711e-10
-3.541e-12
1.742e-10
-4.172e-12
1.778e-10
-4.82e-12
1.818e-10
-5.488e-12
1.864e-10
-6.177e-12
1.914e-10
-6.886e-12
1.97e-10
-7.614e-12
2.032e-10
-8.36e-12
2.099e-10
-9.119e-12
2.171e-10
-9.886e-12
2.249e-10
-1.065e-11
2.333e-10
-1.141e-11
2.422e-10
-1.214e-11
2.516e-10
-1.284e-11
2.615e-10
-1.349e-11
2.718e-10
-1.406e-11
2.824e-10
-1.455e-11
2.933e-10
-1.492e-11
3.044e-10
-1.516e-11
3.155e-10
-1.523e-11
3.266e-10
-1.513e-11
3.374e-10
-1.482e-11
3.478e-10
-1.43e-11
3.576e-10
-1.355e-11
3.668e-10
-1.257e-11
3.751e-10
-1.135e-11
3.823e-10
-9.923e-12
3.883e-10
-8.296e-12
3.93e-10
-6.502e-12
3.964e-10
-4.578e-12
3.983e-10
-2.569e-12
3.987e-10
-5.21e-13
3.976e-10
1.518e-12
3.95e-10
3.503e-12
3.911e-10
5.393e-12
3.859e-10
7.152e-12
3.796e-10
8.752e-12
3.722e-10
1.017e-11
3.639e-10
1.14e-11
3.548e-10
1.242e-11
3.452e-10
1.325e-11
3.351e-10
1.387e-11
3.246e-10
1.431e-11
3.14e-10
1.456e-11
3.033e-10
1.465e-11
2.926e-10
1.459e-11
2.821e-10
1.44e-11
2.718e-10
1.409e-11
2.618e-10
1.368e-11
2.521e-10
1.32e-11
2.428e-10
1.266e-11
2.339e-10
1.206e-11
2.255e-10
1.144e-11
2.176e-10
1.079e-11
2.101e-10
1.014e-11
2.032e-10
9.488e-12
1.966e-10
8.843e-12
1.906e-10
8.214e-12
1.85e-10
7.604e-12
1.798e-10
7.018e-12
1.75e-10
6.459e-12
1.707e-10
5.929e-12
1.666e-10
5.43e-12
1.63e-10
4.96e-12
1.596e-10
4.522e-12
1.566e-10
4.114e-12
1.538e-10
3.736e-12
1.513e-10
3.386e-12
1.49e-10
3.063e-12
1.47e-10
2.767e-12
1.451e-10
2.495e-12
1.434e-10
2.246e-12
1.419e-10
2.019e-12
1.406e-10
1.812e-12
1.394e-10
1.624e-12
1.383e-10
1.454e-12
1.373e-10
1.299e-12
1.365e-10
1.16e-12
1.357e-10
1.034e-12
1.35e-10
9.219e-13
1.344e-10
8.213e-13
1.338e-10
7.321e-13
1.333e-10
6.535e-13
1.329e-10
5.851e-13
1.325e-10
5.268e-13
1.321e-10
4.785e-13
1.318e-10
4.405e-13
1.315e-10
4.134e-13
1.312e-10
3.983e-13
1.309e-10
3.97e-13
1.306e-10
4.124e-13
1.303e-10
4.485e-13
1.299e-10
5.099e-13
1.295e-10
5.959e-13
6.77e-13
9.779e-10
1.966e-10
9.637e-10
3.217e-10
9.013e-10
3.175e-10
8.211e-10
2.731e-10
7.408e-10
2.235e-10
6.677e-10
1.797e-10
6.042e-10
1.442e-10
5.501e-10
1.164e-10
5.044e-10
9.48e-11
4.658e-10
7.795e-11
4.332e-10
6.468e-11
4.056e-10
5.41e-11
3.821e-10
4.554e-11
3.62e-10
3.853e-11
3.449e-10
3.271e-11
3.302e-10
2.783e-11
3.177e-10
2.37e-11
3.07e-10
2.015e-11
2.979e-10
1.707e-11
2.902e-10
1.438e-11
2.838e-10
1.2e-11
2.785e-10
9.871e-12
2.742e-10
7.95e-12
2.709e-10
6.195e-12
2.684e-10
4.573e-12
2.668e-10
3.056e-12
2.659e-10
1.621e-12
2.658e-10
2.456e-13
2.663e-10
-1.088e-12
2.676e-10
-2.395e-12
2.696e-10
-3.691e-12
2.723e-10
-4.988e-12
2.756e-10
-6.297e-12
2.797e-10
-7.626e-12
2.845e-10
-8.985e-12
2.901e-10
-1.038e-11
2.964e-10
-1.181e-11
3.035e-10
-1.328e-11
3.114e-10
-1.48e-11
3.202e-10
-1.635e-11
3.297e-10
-1.794e-11
3.402e-10
-1.955e-11
3.515e-10
-2.117e-11
3.636e-10
-2.279e-11
3.766e-10
-2.439e-11
3.904e-10
-2.593e-11
4.049e-10
-2.74e-11
4.202e-10
-2.875e-11
4.361e-10
-2.995e-11
4.525e-10
-3.095e-11
4.693e-10
-3.171e-11
4.863e-10
-3.218e-11
5.034e-10
-3.232e-11
5.203e-10
-3.207e-11
5.369e-10
-3.14e-11
5.529e-10
-3.027e-11
5.68e-10
-2.867e-11
5.82e-10
-2.658e-11
5.946e-10
-2.401e-11
6.057e-10
-2.098e-11
6.149e-10
-1.754e-11
6.222e-10
-1.376e-11
6.273e-10
-9.705e-12
6.302e-10
-5.47e-12
6.309e-10
-1.154e-12
6.292e-10
3.146e-12
6.254e-10
7.336e-12
6.195e-10
1.133e-11
6.116e-10
1.505e-11
6.019e-10
1.844e-11
5.906e-10
2.146e-11
5.779e-10
2.407e-11
5.641e-10
2.627e-11
5.493e-10
2.804e-11
5.338e-10
2.939e-11
5.177e-10
3.034e-11
5.014e-10
3.091e-11
4.849e-10
3.113e-11
4.685e-10
3.104e-11
4.522e-10
3.066e-11
4.362e-10
3.004e-11
4.207e-10
2.921e-11
4.057e-10
2.821e-11
3.913e-10
2.707e-11
3.775e-10
2.584e-11
3.644e-10
2.453e-11
3.521e-10
2.317e-11
3.404e-10
2.179e-11
3.295e-10
2.041e-11
3.193e-10
1.905e-11
3.098e-10
1.771e-11
3.01e-10
1.642e-11
2.928e-10
1.517e-11
2.853e-10
1.398e-11
2.784e-10
1.285e-11
2.72e-10
1.178e-11
2.662e-10
1.078e-11
2.609e-10
9.835e-12
2.56e-10
8.959e-12
2.516e-10
8.145e-12
2.476e-10
7.391e-12
2.44e-10
6.696e-12
2.407e-10
6.056e-12
2.377e-10
5.468e-12
2.351e-10
4.93e-12
2.326e-10
4.437e-12
2.305e-10
3.989e-12
2.285e-10
3.58e-12
2.267e-10
3.209e-12
2.252e-10
2.873e-12
2.238e-10
2.569e-12
2.225e-10
2.295e-12
2.214e-10
2.049e-12
2.204e-10
1.829e-12
2.195e-10
1.633e-12
2.187e-10
1.46e-12
2.179e-10
1.309e-12
2.173e-10
1.179e-12
2.167e-10
1.071e-12
2.161e-10
9.843e-13
2.156e-10
9.195e-13
2.152e-10
8.782e-13
2.147e-10
8.623e-13
2.142e-10
8.742e-13
2.138e-10
9.163e-13
2.133e-10
9.886e-13
2.128e-10
1.081e-12
1.157e-12
9.752e-10
1.589e-10
9.93e-10
3.039e-10
9.727e-10
3.378e-10
9.267e-10
3.191e-10
8.687e-10
2.815e-10
8.079e-10
2.404e-10
7.496e-10
2.025e-10
6.962e-10
1.698e-10
6.484e-10
1.426e-10
6.063e-10
1.2e-10
5.695e-10
1.015e-10
5.375e-10
8.613e-11
5.097e-10
7.337e-11
4.855e-10
6.268e-11
4.646e-10
5.364e-11
4.465e-10
4.594e-11
4.309e-10
3.932e-11
4.174e-10
3.359e-11
4.059e-10
2.857e-11
3.962e-10
2.414e-11
3.88e-10
2.02e-11
3.812e-10
1.665e-11
3.757e-10
1.343e-11
3.714e-10
1.048e-11
3.682e-10
7.743e-12
3.661e-10
5.175e-12
3.65e-10
2.738e-12
3.649e-10
3.993e-13
3.656e-10
-1.871e-12
3.673e-10
-4.099e-12
3.7e-10
-6.309e-12
3.735e-10
-8.519e-12
3.779e-10
-1.075e-11
3.833e-10
-1.301e-11
3.897e-10
-1.532e-11
3.97e-10
-1.769e-11
4.053e-10
-2.012e-11
4.146e-10
-2.261e-11
4.25e-10
-2.517e-11
4.364e-10
-2.78e-11
4.49e-10
-3.047e-11
4.626e-10
-3.318e-11
4.773e-10
-3.591e-11
4.932e-10
-3.863e-11
5.101e-10
-4.13e-11
5.28e-10
-4.388e-11
5.469e-10
-4.632e-11
5.668e-10
-4.857e-11
5.874e-10
-5.055e-11
6.086e-10
-5.221e-11
6.304e-10
-5.345e-11
6.524e-10
-5.421e-11
6.745e-10
-5.441e-11
6.964e-10
-5.396e-11
7.178e-10
-5.281e-11
7.384e-10
-5.09e-11
7.579e-10
-4.819e-11
7.76e-10
-4.466e-11
7.924e-10
-4.034e-11
8.066e-10
-3.526e-11
8.186e-10
-2.949e-11
8.28e-10
-2.314e-11
8.346e-10
-1.634e-11
8.384e-10
-9.245e-12
8.392e-10
-2.008e-12
8.372e-10
5.204e-12
8.323e-10
1.223e-11
8.247e-10
1.894e-11
8.145e-10
2.519e-11
8.021e-10
3.09e-11
7.876e-10
3.598e-11
7.712e-10
4.04e-11
7.534e-10
4.411e-11
7.343e-10
4.712e-11
7.143e-10
4.943e-11
6.935e-10
5.106e-11
6.724e-10
5.206e-11
6.51e-10
5.248e-11
6.297e-10
5.236e-11
6.086e-10
5.177e-11
5.879e-10
5.076e-11
5.677e-10
4.94e-11
5.481e-10
4.775e-11
5.293e-10
4.587e-11
5.114e-10
4.382e-11
4.943e-10
4.164e-11
4.781e-10
3.937e-11
4.628e-10
3.707e-11
4.484e-10
3.476e-11
4.35e-10
3.247e-11
4.225e-10
3.022e-11
4.109e-10
2.804e-11
4.001e-10
2.593e-11
3.902e-10
2.392e-11
3.81e-10
2.201e-11
3.726e-10
2.02e-11
3.649e-10
1.85e-11
3.578e-10
1.69e-11
3.514e-10
1.541e-11
3.455e-10
1.402e-11
3.401e-10
1.274e-11
3.353e-10
1.155e-11
3.309e-10
1.046e-11
3.269e-10
9.457e-12
3.233e-10
8.535e-12
3.2e-10
7.692e-12
3.171e-10
6.923e-12
3.145e-10
6.221e-12
3.121e-10
5.584e-12
3.1e-10
5.005e-12
3.08e-10
4.481e-12
3.063e-10
4.009e-12
3.048e-10
3.583e-12
3.034e-10
3.202e-12
3.022e-10
2.863e-12
3.011e-10
2.562e-12
3.001e-10
2.299e-12
2.992e-10
2.072e-12
2.984e-10
1.88e-12
2.977e-10
1.723e-12
2.97e-10
1.602e-12
2.963e-10
1.517e-12
2.957e-10
1.469e-12
2.951e-10
1.46e-12
2.946e-10
1.49e-12
2.94e-10
1.553e-12
2.934e-10
1.635e-12
1.697e-12
9.668e-10
1.296e-10
9.944e-10
2.763e-10
9.977e-10
3.344e-10
9.778e-10
3.391e-10
9.42e-10
3.172e-10
8.979e-10
2.845e-10
8.509e-10
2.496e-10
8.043e-10
2.164e-10
7.602e-10
1.866e-10
7.196e-10
1.606e-10
6.828e-10
1.383e-10
6.498e-10
1.191e-10
6.205e-10
1.027e-10
5.946e-10
8.862e-11
5.717e-10
7.648e-11
5.517e-10
6.596e-11
5.343e-10
5.678e-11
5.191e-10
4.874e-11
5.06e-10
4.162e-11
4.949e-10
3.529e-11
4.855e-10
2.961e-11
4.777e-10
2.446e-11
4.713e-10
1.977e-11
4.664e-10
1.543e-11
4.627e-10
1.14e-11
4.603e-10
7.599e-12
4.591e-10
3.984e-12
4.59e-10
5.049e-13
4.6e-10
-2.878e-12
4.621e-10
-6.203e-12
4.653e-10
-9.502e-12
4.695e-10
-1.28e-11
4.749e-10
-1.613e-11
4.814e-10
-1.951e-11
4.891e-10
-2.296e-11
4.979e-10
-2.649e-11
5.079e-10
-3.011e-11
5.191e-10
-3.382e-11
5.315e-10
-3.763e-11
5.452e-10
-4.152e-11
5.603e-10
-4.549e-11
5.766e-10
-4.95e-11
5.942e-10
-5.354e-11
6.131e-10
-5.755e-11
6.333e-10
-6.149e-11
6.547e-10
-6.529e-11
6.773e-10
-6.888e-11
7.009e-10
-7.219e-11
7.254e-10
-7.51e-11
7.507e-10
-7.752e-11
7.766e-10
-7.933e-11
8.028e-10
-8.043e-11
8.291e-10
-8.069e-11
8.552e-10
-8.001e-11
8.806e-10
-7.828e-11
9.052e-10
-7.543e-11
9.284e-10
-7.141e-11
9.499e-10
-6.618e-11
9.693e-10
-5.978e-11
9.863e-10
-5.225e-11
1.001e-09
-4.372e-11
1.012e-09
-3.433e-11
1.02e-09
-2.427e-11
1.024e-09
-1.376e-11
1.025e-09
-3.054e-12
1.023e-09
7.62e-12
1.017e-09
1.802e-11
1.008e-09
2.795e-11
9.96e-10
3.721e-11
9.812e-10
4.567e-11
9.64e-10
5.322e-11
9.446e-10
5.977e-11
9.234e-10
6.53e-11
9.008e-10
6.978e-11
8.769e-10
7.324e-11
8.523e-10
7.57e-11
8.271e-10
7.723e-11
8.017e-10
7.789e-11
7.763e-10
7.776e-11
7.512e-10
7.692e-11
7.265e-10
7.548e-11
7.024e-10
7.351e-11
6.79e-10
7.11e-11
6.565e-10
6.836e-11
6.35e-10
6.534e-11
6.145e-10
6.213e-11
5.951e-10
5.88e-11
5.767e-10
5.54e-11
5.595e-10
5.199e-11
5.434e-10
4.86e-11
5.283e-10
4.528e-11
5.143e-10
4.204e-11
5.013e-10
3.892e-11
4.893e-10
3.594e-11
4.782e-10
3.309e-11
4.68e-10
3.04e-11
4.587e-10
2.786e-11
4.501e-10
2.548e-11
4.422e-10
2.325e-11
4.351e-10
2.118e-11
4.286e-10
1.926e-11
4.226e-10
1.749e-11
4.172e-10
1.585e-11
4.124e-10
1.434e-11
4.079e-10
1.295e-11
4.039e-10
1.169e-11
4.003e-10
1.053e-11
3.971e-10
9.472e-12
3.942e-10
8.51e-12
3.915e-10
7.636e-12
3.892e-10
6.845e-12
3.87e-10
6.13e-12
3.851e-10
5.486e-12
3.834e-10
4.907e-12
3.819e-10
4.391e-12
3.805e-10
3.933e-12
3.793e-10
3.531e-12
3.782e-10
3.181e-12
3.772e-10
2.883e-12
3.763e-10
2.635e-12
3.755e-10
2.437e-12
3.747e-10
2.29e-12
3.74e-10
2.192e-12
3.733e-10
2.144e-12
3.726e-10
2.143e-12
3.72e-10
2.181e-12
3.714e-10
2.24e-12
2.287e-12
9.591e-10
1.08e-10
9.874e-10
2.48e-10
1.003e-09
3.194e-10
9.998e-10
3.418e-10
9.819e-10
3.35e-10
9.536e-10
3.129e-10
9.192e-10
2.84e-10
8.822e-10
2.534e-10
8.448e-10
2.239e-10
8.088e-10
1.967e-10
7.749e-10
1.722e-10
7.435e-10
1.505e-10
7.149e-10
1.313e-10
6.892e-10
1.144e-10
6.661e-10
9.957e-11
6.455e-10
8.648e-11
6.274e-10
7.49e-11
6.115e-10
6.461e-11
5.977e-10
5.542e-11
5.859e-10
4.715e-11
5.758e-10
3.967e-11
5.675e-10
3.284e-11
5.606e-10
2.657e-11
5.553e-10
2.075e-11
5.514e-10
1.531e-11
5.489e-10
1.016e-11
5.476e-10
5.242e-12
5.476e-10
4.974e-13
5.489e-10
-4.127e-12
5.513e-10
-8.68e-12
5.55e-10
-1.32e-11
5.6e-10
-1.773e-11
5.661e-10
-2.23e-11
5.736e-10
-2.694e-11
5.823e-10
-3.167e-11
5.923e-10
-3.651e-11
6.037e-10
-4.147e-11
6.164e-10
-4.656e-11
6.305e-10
-5.177e-11
6.461e-10
-5.709e-11
6.631e-10
-6.251e-11
6.816e-10
-6.8e-11
7.016e-10
-7.35e-11
7.23e-10
-7.898e-11
7.459e-10
-8.434e-11
7.701e-10
-8.952e-11
7.956e-10
-9.441e-11
8.224e-10
-9.89e-11
8.501e-10
-1.029e-10
8.787e-10
-1.061e-10
9.08e-10
-1.086e-10
9.377e-10
-1.101e-10
9.675e-10
-1.104e-10
9.97e-10
-1.095e-10
1.026e-09
-1.071e-10
1.054e-09
-1.033e-10
1.08e-09
-9.775e-11
1.104e-09
-9.062e-11
1.127e-09
-8.186e-11
1.146e-09
-7.158e-11
1.162e-09
-5.99e-11
1.175e-09
-4.705e-11
1.184e-09
-3.329e-11
1.189e-09
-1.891e-11
1.19e-09
-4.254e-12
1.187e-09
1.035e-11
1.181e-09
2.459e-11
1.171e-09
3.817e-11
1.157e-09
5.084e-11
1.14e-09
6.241e-11
1.121e-09
7.274e-11
1.099e-09
8.171e-11
1.075e-09
8.929e-11
1.049e-09
9.544e-11
1.022e-09
1.002e-10
9.943e-10
1.036e-10
9.658e-10
1.057e-10
9.37e-10
1.067e-10
9.083e-10
1.065e-10
8.798e-10
1.054e-10
8.518e-10
1.035e-10
8.245e-10
1.008e-10
7.98e-10
9.757e-11
7.725e-10
9.385e-11
7.481e-10
8.976e-11
7.248e-10
8.54e-11
7.027e-10
8.087e-11
6.819e-10
7.624e-11
6.623e-10
7.159e-11
6.439e-10
6.697e-11
6.268e-10
6.243e-11
6.108e-10
5.801e-11
5.96e-10
5.375e-11
5.823e-10
4.966e-11
5.696e-10
4.576e-11
5.579e-10
4.207e-11
5.472e-10
3.858e-11
5.373e-10
3.532e-11
5.283e-10
3.226e-11
5.201e-10
2.941e-11
5.126e-10
2.677e-11
5.058e-10
2.432e-11
4.996e-10
2.206e-11
4.939e-10
1.998e-11
4.888e-10
1.806e-11
4.842e-10
1.631e-11
4.8e-10
1.471e-11
4.763e-10
1.324e-11
4.729e-10
1.191e-11
4.698e-10
1.07e-11
4.67e-10
9.597e-12
4.646e-10
8.602e-12
4.623e-10
7.705e-12
4.604e-10
6.899e-12
4.586e-10
6.178e-12
4.57e-10
5.536e-12
4.555e-10
4.97e-12
4.542e-10
4.476e-12
4.531e-10
4.051e-12
4.52e-10
3.693e-12
4.51e-10
3.401e-12
4.502e-10
3.173e-12
4.493e-10
3.008e-12
4.486e-10
2.904e-12
4.479e-10
2.856e-12
4.472e-10
2.855e-12
4.466e-10
2.884e-12
2.913e-12
9.536e-10
9.189e-11
9.794e-10
2.222e-10
9.993e-10
2.994e-10
1.007e-09
3.341e-10
1.002e-09
3.4e-10
9.867e-10
3.282e-10
9.641e-10
3.066e-10
9.37e-10
2.806e-10
9.076e-10
2.533e-10
8.777e-10
2.266e-10
8.484e-10
2.015e-10
8.204e-10
1.784e-10
7.942e-10
1.575e-10
7.7e-10
1.386e-10
7.48e-10
1.216e-10
7.281e-10
1.064e-10
7.104e-10
9.268e-11
6.946e-10
8.035e-11
6.808e-10
6.92e-11
6.689e-10
5.908e-11
6.587e-10
4.984e-11
6.502e-10
4.135e-11
6.433e-10
3.349e-11
6.379e-10
2.615e-11
6.34e-10
1.924e-11
6.314e-10
1.269e-11
6.303e-10
6.4e-12
6.305e-10
3.141e-13
6.32e-10
-5.634e-12
6.348e-10
-1.15e-11
6.389e-10
-1.734e-11
6.444e-10
-2.319e-11
6.512e-10
-2.91e-11
6.593e-10
-3.51e-11
6.689e-10
-4.122e-11
6.799e-10
-4.748e-11
6.923e-10
-5.39e-11
7.062e-10
-6.048e-11
7.217e-10
-6.721e-11
7.387e-10
-7.41e-11
7.573e-10
-8.11e-11
7.774e-10
-8.818e-11
7.992e-10
-9.528e-11
8.226e-10
-1.023e-10
8.475e-10
-1.093e-10
8.74e-10
-1.16e-10
9.018e-10
-1.223e-10
9.31e-10
-1.281e-10
9.613e-10
-1.332e-10
9.926e-10
-1.374e-10
1.025e-09
-1.406e-10
1.057e-09
-1.426e-10
1.09e-09
-1.43e-10
1.122e-09
-1.419e-10
1.154e-09
-1.388e-10
1.184e-09
-1.338e-10
1.213e-09
-1.267e-10
1.24e-09
-1.175e-10
1.265e-09
-1.062e-10
1.286e-09
-9.29e-11
1.304e-09
-7.777e-11
1.318e-09
-6.111e-11
1.328e-09
-4.325e-11
1.333e-09
-2.459e-11
1.335e-09
-5.57e-12
1.332e-09
1.338e-11
1.324e-09
3.184e-11
1.313e-09
4.943e-11
1.298e-09
6.585e-11
1.28e-09
8.084e-11
1.258e-09
9.42e-11
1.234e-09
1.058e-10
1.208e-09
1.156e-10
1.18e-09
1.236e-10
1.15e-09
1.297e-10
1.12e-09
1.341e-10
1.088e-09
1.369e-10
1.057e-09
1.381e-10
1.026e-09
1.38e-10
9.943e-10
1.366e-10
9.637e-10
1.341e-10
9.338e-10
1.307e-10
9.049e-10
1.265e-10
8.77e-10
1.217e-10
8.503e-10
1.165e-10
8.249e-10
1.109e-10
8.007e-10
1.05e-10
7.779e-10
9.905e-11
7.565e-10
9.305e-11
7.364e-10
8.709e-11
7.176e-10
8.123e-11
7.001e-10
7.552e-11
6.838e-10
7.001e-11
6.687e-10
6.472e-11
6.548e-10
5.968e-11
6.42e-10
5.49e-11
6.302e-10
5.038e-11
6.194e-10
4.615e-11
6.094e-10
4.218e-11
6.004e-10
3.848e-11
5.921e-10
3.505e-11
5.845e-10
3.187e-11
5.777e-10
2.892e-11
5.714e-10
2.621e-11
5.658e-10
2.372e-11
5.606e-10
2.144e-11
5.56e-10
1.934e-11
5.518e-10
1.743e-11
5.48e-10
1.569e-11
5.446e-10
1.41e-11
5.416e-10
1.267e-11
5.388e-10
1.136e-11
5.363e-10
1.018e-11
5.341e-10
9.125e-12
5.321e-10
8.176e-12
5.303e-10
7.329e-12
5.287e-10
6.58e-12
5.272e-10
5.922e-12
5.259e-10
5.353e-12
5.248e-10
4.868e-12
5.237e-10
4.465e-12
5.227e-10
4.141e-12
5.218e-10
3.894e-12
5.21e-10
3.72e-12
5.203e-10
3.613e-12
5.196e-10
3.563e-12
5.189e-10
3.555e-12
3.564e-12
9.497e-10
7.965e-11
9.723e-10
1.996e-10
9.936e-10
2.781e-10
1.007e-09
3.206e-10
1.011e-09
3.362e-10
1.006e-09
3.335e-10
9.928e-10
3.193e-10
9.748e-10
2.986e-10
9.534e-10
2.747e-10
9.301e-10
2.499e-10
9.062e-10
2.254e-10
8.826e-10
2.021e-10
8.598e-10
1.802e-10
8.383e-10
1.601e-10
8.183e-10
1.416e-10
8e-10
1.247e-10
7.834e-10
1.093e-10
7.685e-10
9.522e-11
7.554e-10
8.236e-11
7.439e-10
7.055e-11
7.341e-10
5.967e-11
7.258e-10
4.959e-11
7.191e-10
4.019e-11
7.139e-10
3.136e-11
7.101e-10
2.301e-11
7.078e-10
1.503e-11
7.068e-10
7.358e-12
7.073e-10
-9.89e-14
7.09e-10
-7.408e-12
7.122e-10
-1.463e-11
7.167e-10
-2.184e-11
7.225e-10
-2.907e-11
7.298e-10
-3.638e-11
7.385e-10
-4.381e-11
7.487e-10
-5.139e-11
7.603e-10
-5.914e-11
7.735e-10
-6.709e-11
7.883e-10
-7.524e-11
8.047e-10
-8.359e-11
8.227e-10
-9.211e-11
8.424e-10
-1.008e-10
8.638e-10
-1.096e-10
8.868e-10
-1.184e-10
9.116e-10
-1.271e-10
9.38e-10
-1.357e-10
9.661e-10
-1.44e-10
9.957e-10
-1.518e-10
1.027e-09
-1.591e-10
1.059e-09
-1.654e-10
1.092e-09
-1.708e-10
1.126e-09
-1.748e-10
1.161e-09
-1.773e-10
1.196e-09
-1.779e-10
1.231e-09
-1.765e-10
1.265e-09
-1.728e-10
1.297e-09
-1.667e-10
1.329e-09
-1.58e-10
1.358e-09
-1.466e-10
1.384e-09
-1.325e-10
1.407e-09
-1.159e-10
1.426e-09
-9.71e-11
1.442e-09
-7.631e-11
1.452e-09
-5.401e-11
1.458e-09
-3.071e-11
1.46e-09
-6.955e-12
1.457e-09
1.67e-11
1.449e-09
3.972e-11
1.436e-09
6.164e-11
1.42e-09
8.207e-11
1.4e-09
1.007e-10
1.377e-09
1.173e-10
1.351e-09
1.317e-10
1.323e-09
1.439e-10
1.293e-09
1.537e-10
1.261e-09
1.614e-10
1.229e-09
1.668e-10
1.195e-09
1.702e-10
1.162e-09
1.718e-10
1.128e-09
1.716e-10
1.095e-09
1.698e-10
1.062e-09
1.667e-10
1.03e-09
1.625e-10
9.996e-10
1.573e-10
9.699e-10
1.514e-10
9.416e-10
1.449e-10
9.145e-10
1.379e-10
8.888e-10
1.307e-10
8.646e-10
1.233e-10
8.418e-10
1.159e-10
8.204e-10
1.085e-10
8.004e-10
1.012e-10
7.818e-10
9.413e-11
7.645e-10
8.73e-11
7.485e-10
8.074e-11
7.337e-10
7.449e-11
7.2e-10
6.856e-11
7.075e-10
6.295e-11
6.959e-10
5.769e-11
6.853e-10
5.276e-11
6.757e-10
4.817e-11
6.668e-10
4.39e-11
6.587e-10
3.993e-11
6.514e-10
3.627e-11
6.447e-10
3.29e-11
6.386e-10
2.979e-11
6.331e-10
2.694e-11
6.282e-10
2.433e-11
6.237e-10
2.194e-11
6.196e-10
1.976e-11
6.159e-10
1.777e-11
6.126e-10
1.597e-11
6.096e-10
1.434e-11
6.07e-10
1.286e-11
6.046e-10
1.153e-11
6.024e-10
1.033e-11
6.005e-10
9.266e-12
5.987e-10
8.318e-12
5.972e-10
7.483e-12
5.958e-10
6.755e-12
5.945e-10
6.129e-12
5.934e-10
5.602e-12
5.923e-10
5.17e-12
5.914e-10
4.828e-12
5.906e-10
4.572e-12
5.898e-10
4.396e-12
5.89e-10
4.29e-12
5.884e-10
4.24e-12
4.227e-12
9.471e-10
7.003e-11
9.667e-10
1.801e-10
9.875e-10
2.573e-10
1.004e-09
3.042e-10
1.013e-09
3.268e-10
1.015e-09
3.316e-10
1.011e-09
3.241e-10
1e-09
3.088e-10
9.863e-10
2.888e-10
9.695e-10
2.666e-10
9.513e-10
2.436e-10
9.324e-10
2.209e-10
9.137e-10
1.99e-10
8.954e-10
1.783e-10
8.781e-10
1.589e-10
8.62e-10
1.409e-10
8.471e-10
1.242e-10
8.336e-10
1.087e-10
8.216e-10
9.438e-11
8.11e-10
8.111e-11
8.02e-10
6.876e-11
7.943e-10
5.723e-11
7.881e-10
4.64e-11
7.833e-10
3.616e-11
7.799e-10
2.642e-11
7.779e-10
1.707e-11
7.772e-10
8.032e-12
7.779e-10
-7.811e-13
7.799e-10
-9.447e-12
7.833e-10
-1.804e-11
7.881e-10
-2.662e-11
7.943e-10
-3.525e-11
8.019e-10
-4.398e-11
8.109e-10
-5.286e-11
8.214e-10
-6.193e-11
8.335e-10
-7.121e-11
8.472e-10
-8.074e-11
8.624e-10
-9.05e-11
8.793e-10
-1.005e-10
8.98e-10
-1.107e-10
9.183e-10
-1.211e-10
9.404e-10
-1.317e-10
9.643e-10
-1.422e-10
9.899e-10
-1.528e-10
1.017e-09
-1.631e-10
1.046e-09
-1.731e-10
1.077e-09
-1.826e-10
1.109e-09
-1.913e-10
1.143e-09
-1.99e-10
1.178e-09
-2.055e-10
1.213e-09
-2.105e-10
1.25e-09
-2.136e-10
1.286e-09
-2.145e-10
1.323e-09
-2.13e-10
1.359e-09
-2.087e-10
1.393e-09
-2.014e-10
1.427e-09
-1.91e-10
1.457e-09
-1.774e-10
1.485e-09
-1.605e-10
1.51e-09
-1.405e-10
1.53e-09
-1.177e-10
1.547e-09
-9.25e-11
1.558e-09
-6.545e-11
1.565e-09
-3.717e-11
1.566e-09
-8.355e-12
1.562e-09
2.032e-11
1.554e-09
4.819e-11
1.541e-09
7.47e-11
1.523e-09
9.937e-11
1.502e-09
1.218e-10
1.478e-09
1.418e-10
1.45e-09
1.591e-10
1.421e-09
1.737e-10
1.389e-09
1.855e-10
1.356e-09
1.947e-10
1.321e-09
2.012e-10
1.286e-09
2.052e-10
1.251e-09
2.07e-10
1.216e-09
2.067e-10
1.181e-09
2.045e-10
1.147e-09
2.008e-10
1.114e-09
1.956e-10
1.082e-09
1.894e-10
1.051e-09
1.822e-10
1.022e-09
1.744e-10
9.936e-10
1.66e-10
9.669e-10
1.573e-10
9.418e-10
1.484e-10
9.181e-10
1.395e-10
8.96e-10
1.306e-10
8.753e-10
1.219e-10
8.56e-10
1.134e-10
8.381e-10
1.052e-10
8.214e-10
9.735e-11
8.061e-10
8.984e-11
7.919e-10
8.272e-11
7.789e-10
7.599e-11
7.669e-10
6.967e-11
7.559e-10
6.375e-11
7.459e-10
5.823e-11
7.367e-10
5.309e-11
7.283e-10
4.832e-11
7.206e-10
4.392e-11
7.137e-10
3.985e-11
7.074e-10
3.611e-11
7.016e-10
3.267e-11
6.964e-10
2.952e-11
6.917e-10
2.664e-11
6.875e-10
2.401e-11
6.836e-10
2.161e-11
6.802e-10
1.943e-11
6.771e-10
1.745e-11
6.743e-10
1.566e-11
6.717e-10
1.405e-11
6.695e-10
1.26e-11
6.674e-10
1.13e-11
6.656e-10
1.014e-11
6.64e-10
9.117e-12
6.625e-10
8.22e-12
6.612e-10
7.445e-12
6.6e-10
6.784e-12
6.59e-10
6.233e-12
6.58e-10
5.788e-12
6.571e-10
5.442e-12
6.563e-10
5.19e-12
6.556e-10
5.022e-12
6.549e-10
4.927e-12
4.892e-12
9.453e-10
6.224e-11
9.623e-10
1.631e-10
9.82e-10
2.375e-10
9.997e-10
2.865e-10
1.013e-09
3.139e-10
1.02e-09
3.245e-10
1.021e-09
3.228e-10
1.017e-09
3.125e-10
1.01e-09
2.966e-10
9.988e-10
2.774e-10
9.86e-10
2.565e-10
9.719e-10
2.35e-10
9.573e-10
2.136e-10
9.427e-10
1.929e-10
9.285e-10
1.732e-10
9.149e-10
1.545e-10
9.022e-10
1.369e-10
8.905e-10
1.203e-10
8.8e-10
1.049e-10
8.707e-10
9.042e-11
8.626e-10
7.682e-11
8.558e-10
6.402e-11
8.503e-10
5.19e-11
8.461e-10
4.038e-11
8.432e-10
2.934e-11
8.416e-10
1.87e-11
8.412e-10
8.363e-12
8.422e-10
-1.754e-12
8.445e-10
-1.173e-11
8.481e-10
-2.165e-11
8.531e-10
-3.158e-11
8.594e-10
-4.159e-11
8.672e-10
-5.173e-11
8.764e-10
-6.206e-11
8.871e-10
-7.262e-11
8.993e-10
-8.343e-11
9.131e-10
-9.453e-11
9.285e-10
-1.059e-10
9.456e-10
-1.176e-10
9.644e-10
-1.295e-10
9.85e-10
-1.417e-10
1.007e-09
-1.54e-10
1.032e-09
-1.664e-10
1.058e-09
-1.788e-10
1.085e-09
-1.909e-10
1.115e-09
-2.027e-10
1.146e-09
-2.138e-10
1.179e-09
-2.242e-10
1.213e-09
-2.334e-10
1.249e-09
-2.412e-10
1.286e-09
-2.472e-10
1.323e-09
-2.51e-10
1.361e-09
-2.523e-10
1.399e-09
-2.508e-10
1.436e-09
-2.46e-10
1.472e-09
-2.377e-10
1.507e-09
-2.256e-10
1.539e-09
-2.097e-10
1.569e-09
-1.898e-10
1.594e-09
-1.663e-10
1.616e-09
-1.394e-10
1.633e-09
-1.095e-10
1.645e-09
-7.746e-11
1.652e-09
-4.39e-11
1.653e-09
-9.712e-12
1.649e-09
2.426e-11
1.64e-09
5.724e-11
1.626e-09
8.854e-11
1.608e-09
1.176e-10
1.586e-09
1.44e-10
1.56e-09
1.674e-10
1.532e-09
1.877e-10
1.501e-09
2.048e-10
1.468e-09
2.185e-10
1.433e-09
2.291e-10
1.398e-09
2.366e-10
1.362e-09
2.413e-10
1.325e-09
2.432e-10
1.289e-09
2.428e-10
1.254e-09
2.401e-10
1.219e-09
2.356e-10
1.185e-09
2.295e-10
1.152e-09
2.221e-10
1.121e-09
2.137e-10
1.091e-09
2.044e-10
1.062e-09
1.946e-10
1.035e-09
1.844e-10
1.009e-09
1.74e-10
9.854e-10
1.635e-10
9.629e-10
1.531e-10
9.419e-10
1.429e-10
9.224e-10
1.33e-10
9.042e-10
1.234e-10
8.874e-10
1.142e-10
8.719e-10
1.054e-10
8.575e-10
9.706e-11
8.443e-10
8.919e-11
8.322e-10
8.18e-11
8.211e-10
7.488e-11
8.109e-10
6.842e-11
8.016e-10
6.241e-11
7.931e-10
5.683e-11
7.853e-10
5.167e-11
7.783e-10
4.691e-11
7.718e-10
4.252e-11
7.66e-10
3.85e-11
7.607e-10
3.48e-11
7.56e-10
3.142e-11
7.516e-10
2.833e-11
7.477e-10
2.552e-11
7.442e-10
2.296e-11
7.41e-10
2.063e-11
7.382e-10
1.853e-11
7.356e-10
1.662e-11
7.333e-10
1.491e-11
7.312e-10
1.337e-11
7.293e-10
1.2e-11
7.277e-10
1.078e-11
7.262e-10
9.713e-12
7.248e-10
8.781e-12
7.236e-10
7.981e-12
7.226e-10
7.306e-12
7.216e-10
6.751e-12
7.207e-10
6.311e-12
7.2e-10
5.977e-12
7.192e-10
5.745e-12
7.186e-10
5.603e-12
5.544e-12
9.44e-10
5.576e-11
9.589e-10
1.482e-10
9.773e-10
2.191e-10
9.953e-10
2.685e-10
1.01e-09
2.989e-10
1.021e-09
3.139e-10
1.027e-09
3.169e-10
1.028e-09
3.11e-10
1.026e-09
2.99e-10
1.02e-09
2.829e-10
1.012e-09
2.643e-10
1.003e-09
2.444e-10
9.925e-10
2.241e-10
9.816e-10
2.039e-10
9.705e-10
1.842e-10
9.597e-10
1.653e-10
9.494e-10
1.471e-10
9.398e-10
1.3e-10
9.31e-10
1.137e-10
9.232e-10
9.825e-11
9.164e-10
8.364e-11
9.107e-10
6.976e-11
9.06e-10
5.653e-11
9.025e-10
4.387e-11
9.002e-10
3.167e-11
8.991e-10
1.985e-11
8.991e-10
8.316e-12
9.004e-10
-3.018e-12
9.029e-10
-1.424e-11
9.066e-10
-2.542e-11
9.117e-10
-3.664e-11
9.181e-10
-4.797e-11
9.258e-10
-5.948e-11
9.35e-10
-7.121e-11
9.456e-10
-8.321e-11
9.577e-10
-9.553e-11
9.713e-10
-1.082e-10
9.866e-10
-1.212e-10
1.003e-09
-1.345e-10
1.022e-09
-1.482e-10
1.042e-09
-1.621e-10
1.065e-09
-1.762e-10
1.089e-09
-1.904e-10
1.114e-09
-2.046e-10
1.142e-09
-2.186e-10
1.172e-09
-2.322e-10
1.203e-09
-2.451e-10
1.236e-09
-2.571e-10
1.27e-09
-2.679e-10
1.306e-09
-2.771e-10
1.343e-09
-2.843e-10
1.381e-09
-2.89e-10
1.42e-09
-2.909e-10
1.459e-09
-2.894e-10
1.497e-09
-2.842e-10
1.534e-09
-2.75e-10
1.57e-09
-2.613e-10
1.603e-09
-2.431e-10
1.634e-09
-2.204e-10
1.661e-09
-1.932e-10
1.683e-09
-1.62e-10
1.701e-09
-1.273e-10
1.714e-09
-8.991e-11
1.72e-09
-5.079e-11
1.722e-09
-1.095e-11
1.717e-09
2.858e-11
1.708e-09
6.687e-11
1.693e-09
1.031e-10
1.674e-09
1.367e-10
1.651e-09
1.671e-10
1.624e-09
1.94e-10
1.595e-09
2.172e-10
1.563e-09
2.367e-10
1.529e-09
2.524e-10
1.494e-09
2.644e-10
1.458e-09
2.728e-10
1.421e-09
2.779e-10
1.384e-09
2.8e-10
1.348e-09
2.793e-10
1.312e-09
2.761e-10
1.277e-09
2.708e-10
1.243e-09
2.636e-10
1.21e-09
2.55e-10
1.178e-09
2.452e-10
1.148e-09
2.345e-10
1.12e-09
2.231e-10
1.093e-09
2.113e-10
1.067e-09
1.994e-10
1.044e-09
1.873e-10
1.021e-09
1.754e-10
1e-09
1.637e-10
9.81e-10
1.523e-10
9.631e-10
1.413e-10
9.464e-10
1.308e-10
9.31e-10
1.208e-10
9.169e-10
1.112e-10
9.038e-10
1.023e-10
8.918e-10
9.38e-11
8.808e-10
8.588e-11
8.707e-10
7.85e-11
8.615e-10
7.162e-11
8.531e-10
6.525e-11
8.454e-10
5.935e-11
8.384e-10
5.39e-11
8.321e-10
4.888e-11
8.263e-10
4.427e-11
8.211e-10
4.004e-11
8.163e-10
3.617e-11
8.12e-10
3.263e-11
8.081e-10
2.94e-11
8.046e-10
2.646e-11
8.015e-10
2.379e-11
7.986e-10
2.137e-11
7.961e-10
1.918e-11
7.938e-10
1.721e-11
7.917e-10
1.543e-11
7.898e-10
1.385e-11
7.882e-10
1.244e-11
7.867e-10
1.119e-11
7.854e-10
1.01e-11
7.842e-10
9.163e-12
7.831e-10
8.362e-12
7.822e-10
7.696e-12
7.814e-10
7.158e-12
7.806e-10
6.742e-12
7.799e-10
6.443e-12
7.792e-10
6.254e-12
6.172e-12
9.43e-10
5.024e-11
9.562e-10
1.351e-10
9.733e-10
2.02e-10
9.91e-10
2.507e-10
1.007e-09
2.829e-10
1.02e-09
3.009e-10
1.029e-09
3.076e-10
1.035e-09
3.055e-10
1.037e-09
2.97e-10
1.036e-09
2.839e-10
1.032e-09
2.677e-10
1.027e-09
2.497e-10
1.021e-09
2.307e-10
1.013e-09
2.113e-10
1.005e-09
1.921e-10
9.974e-10
1.732e-10
9.896e-10
1.55e-10
9.822e-10
1.374e-10
9.753e-10
1.205e-10
9.691e-10
1.045e-10
9.637e-10
8.906e-11
9.591e-10
7.433e-11
9.555e-10
6.019e-11
9.528e-10
4.655e-11
9.511e-10
3.335e-11
9.504e-10
2.049e-11
9.509e-10
7.882e-12
9.524e-10
-4.555e-12
9.551e-10
-1.691e-11
9.589e-10
-2.926e-11
9.64e-10
-4.168e-11
9.703e-10
-5.426e-11
9.778e-10
-6.705e-11
9.867e-10
-8.011e-11
9.97e-10
-9.349e-11
1.009e-09
-1.072e-10
1.022e-09
-1.214e-10
1.037e-09
-1.359e-10
1.053e-09
-1.509e-10
1.071e-09
-1.662e-10
1.091e-09
-1.818e-10
1.112e-09
-1.977e-10
1.136e-09
-2.137e-10
1.161e-09
-2.297e-10
1.188e-09
-2.456e-10
1.217e-09
-2.61e-10
1.247e-09
-2.758e-10
1.28e-09
-2.896e-10
1.314e-09
-3.02e-10
1.349e-09
-3.127e-10
1.386e-09
-3.212e-10
1.424e-09
-3.27e-10
1.463e-09
-3.295e-10
1.502e-09
-3.284e-10
1.541e-09
-3.23e-10
1.579e-09
-3.129e-10
1.615e-09
-2.979e-10
1.65e-09
-2.775e-10
1.681e-09