/*--------------------------------*- C++ -*----------------------------------*\
  =========                 |
  \\      /  F ield         | OpenFOAM: The Open Source CFD Toolbox
   \\    /   O peration     | Website:  https://openfoam.org
    \\  /    A nd           | Version:  7
     \\/     M anipulation  |
\*---------------------------------------------------------------------------*/
FoamFile
{
    version     2.0;
    format      ascii;
    class       volVectorField;
    location    "2699.99947344718248";
    object      U;
}
// * * * * * * * * * * * * * * * * * * * * * * * * * * * * * * * * * * * * * //

dimensions      [0 1 -1 0 0 0 0];

internalField   nonuniform List<vector> 
4096
(
(0.001039 0.0001611 0)
(0.0007463 0.0001314 0)
(0.0005302 8.473e-05 0)
(0.0003919 5.358e-05 0)
(0.0003036 3.467e-05 0)
(0.0002457 2.329e-05 0)
(0.0002061 1.634e-05 0)
(0.0001777 1.196e-05 0)
(0.0001567 9.078e-06 0)
(0.0001405 7.093e-06 0)
(0.0001278 5.669e-06 0)
(0.0001175 4.61e-06 0)
(0.0001091 3.798e-06 0)
(0.0001021 3.16e-06 0)
(9.632e-05 2.647e-06 0)
(9.144e-05 2.228e-06 0)
(8.734e-05 1.88e-06 0)
(8.387e-05 1.586e-06 0)
(8.095e-05 1.335e-06 0)
(7.85e-05 1.118e-06 0)
(7.645e-05 9.282e-07 0)
(7.476e-05 7.601e-07 0)
(7.339e-05 6.093e-07 0)
(7.231e-05 4.723e-07 0)
(7.149e-05 3.464e-07 0)
(7.092e-05 2.291e-07 0)
(7.057e-05 1.184e-07 0)
(7.044e-05 1.239e-08 0)
(7.052e-05 -9.034e-08 0)
(7.08e-05 -1.912e-07 0)
(7.128e-05 -2.913e-07 0)
(7.196e-05 -3.917e-07 0)
(7.285e-05 -4.934e-07 0)
(7.394e-05 -5.97e-07 0)
(7.524e-05 -7.034e-07 0)
(7.676e-05 -8.13e-07 0)
(7.849e-05 -9.262e-07 0)
(8.046e-05 -1.043e-06 0)
(8.267e-05 -1.164e-06 0)
(8.512e-05 -1.289e-06 0)
(8.783e-05 -1.417e-06 0)
(9.08e-05 -1.548e-06 0)
(9.402e-05 -1.68e-06 0)
(9.752e-05 -1.813e-06 0)
(0.0001013 -1.945e-06 0)
(0.0001053 -2.074e-06 0)
(0.0001096 -2.197e-06 0)
(0.0001141 -2.312e-06 0)
(0.0001188 -2.415e-06 0)
(0.0001237 -2.502e-06 0)
(0.0001288 -2.571e-06 0)
(0.000134 -2.616e-06 0)
(0.0001392 -2.634e-06 0)
(0.0001445 -2.62e-06 0)
(0.0001497 -2.571e-06 0)
(0.0001547 -2.484e-06 0)
(0.0001596 -2.356e-06 0)
(0.0001641 -2.188e-06 0)
(0.0001683 -1.978e-06 0)
(0.000172 -1.729e-06 0)
(0.0001752 -1.446e-06 0)
(0.0001777 -1.132e-06 0)
(0.0001797 -7.951e-07 0)
(0.0001809 -4.431e-07 0)
(0.0001814 -8.428e-08 0)
(0.0001812 2.726e-07 0)
(0.0001803 6.195e-07 0)
(0.0001788 9.489e-07 0)
(0.0001766 1.255e-06 0)
(0.0001738 1.532e-06 0)
(0.0001705 1.777e-06 0)
(0.0001667 1.987e-06 0)
(0.0001626 2.162e-06 0)
(0.0001581 2.301e-06 0)
(0.0001534 2.405e-06 0)
(0.0001485 2.476e-06 0)
(0.0001435 2.515e-06 0)
(0.0001385 2.526e-06 0)
(0.0001335 2.511e-06 0)
(0.0001285 2.473e-06 0)
(0.0001236 2.416e-06 0)
(0.0001188 2.342e-06 0)
(0.0001142 2.255e-06 0)
(0.0001098 2.158e-06 0)
(0.0001056 2.053e-06 0)
(0.0001016 1.943e-06 0)
(9.783e-05 1.831e-06 0)
(9.429e-05 1.717e-06 0)
(9.097e-05 1.603e-06 0)
(8.787e-05 1.491e-06 0)
(8.5e-05 1.383e-06 0)
(8.234e-05 1.278e-06 0)
(7.988e-05 1.177e-06 0)
(7.762e-05 1.082e-06 0)
(7.555e-05 9.91e-07 0)
(7.365e-05 9.059e-07 0)
(7.192e-05 8.261e-07 0)
(7.034e-05 7.518e-07 0)
(6.891e-05 6.827e-07 0)
(6.761e-05 6.188e-07 0)
(6.643e-05 5.598e-07 0)
(6.536e-05 5.055e-07 0)
(6.44e-05 4.557e-07 0)
(6.354e-05 4.102e-07 0)
(6.276e-05 3.686e-07 0)
(6.206e-05 3.307e-07 0)
(6.143e-05 2.962e-07 0)
(6.087e-05 2.649e-07 0)
(6.037e-05 2.366e-07 0)
(5.992e-05 2.109e-07 0)
(5.952e-05 1.879e-07 0)
(5.917e-05 1.671e-07 0)
(5.885e-05 1.485e-07 0)
(5.857e-05 1.32e-07 0)
(5.832e-05 1.173e-07 0)
(5.81e-05 1.044e-07 0)
(5.79e-05 9.321e-08 0)
(5.773e-05 8.372e-08 0)
(5.757e-05 7.593e-08 0)
(5.742e-05 6.99e-08 0)
(5.729e-05 6.581e-08 0)
(5.716e-05 6.395e-08 0)
(5.703e-05 6.49e-08 0)
(5.689e-05 6.973e-08 0)
(5.674e-05 8.046e-08 0)
(5.656e-05 1.004e-07 0)
(5.633e-05 1.334e-07 0)
(5.602e-05 1.734e-07 0)
(0.001209 0.0003128 0)
(0.001154 0.0003282 0)
(0.00101 0.000248 0)
(0.0008613 0.0001771 0)
(0.0007344 0.0001263 0)
(0.0006326 9.151e-05 0)
(0.0005524 6.797e-05 0)
(0.0004892 5.184e-05 0)
(0.0004389 4.051e-05 0)
(0.0003984 3.231e-05 0)
(0.0003654 2.62e-05 0)
(0.0003383 2.154e-05 0)
(0.0003156 1.789e-05 0)
(0.0002967 1.498e-05 0)
(0.0002807 1.261e-05 0)
(0.0002672 1.066e-05 0)
(0.0002557 9.022e-06 0)
(0.000246 7.634e-06 0)
(0.0002378 6.443e-06 0)
(0.0002308 5.408e-06 0)
(0.000225 4.499e-06 0)
(0.0002202 3.691e-06 0)
(0.0002163 2.965e-06 0)
(0.0002132 2.304e-06 0)
(0.0002108 1.696e-06 0)
(0.0002091 1.128e-06 0)
(0.0002081 5.919e-07 0)
(0.0002077 7.872e-08 0)
(0.0002079 -4.186e-07 0)
(0.0002086 -9.064e-07 0)
(0.00021 -1.39e-06 0)
(0.0002119 -1.875e-06 0)
(0.0002143 -2.365e-06 0)
(0.0002174 -2.863e-06 0)
(0.000221 -3.373e-06 0)
(0.0002253 -3.898e-06 0)
(0.0002301 -4.439e-06 0)
(0.0002356 -4.996e-06 0)
(0.0002418 -5.571e-06 0)
(0.0002486 -6.162e-06 0)
(0.0002561 -6.768e-06 0)
(0.0002643 -7.384e-06 0)
(0.0002733 -8.007e-06 0)
(0.0002829 -8.631e-06 0)
(0.0002933 -9.247e-06 0)
(0.0003043 -9.846e-06 0)
(0.0003161 -1.042e-05 0)
(0.0003284 -1.094e-05 0)
(0.0003413 -1.142e-05 0)
(0.0003547 -1.181e-05 0)
(0.0003685 -1.212e-05 0)
(0.0003826 -1.232e-05 0)
(0.0003968 -1.238e-05 0)
(0.0004109 -1.23e-05 0)
(0.0004249 -1.206e-05 0)
(0.0004385 -1.164e-05 0)
(0.0004515 -1.103e-05 0)
(0.0004636 -1.023e-05 0)
(0.0004748 -9.244e-06 0)
(0.0004847 -8.08e-06 0)
(0.0004932 -6.755e-06 0)
(0.0005001 -5.293e-06 0)
(0.0005052 -3.725e-06 0)
(0.0005086 -2.087e-06 0)
(0.00051 -4.177e-07 0)
(0.0005096 1.244e-06 0)
(0.0005073 2.862e-06 0)
(0.0005031 4.4e-06 0)
(0.0004973 5.832e-06 0)
(0.0004899 7.133e-06 0)
(0.0004811 8.287e-06 0)
(0.0004711 9.282e-06 0)
(0.00046 1.011e-05 0)
(0.000448 1.078e-05 0)
(0.0004353 1.128e-05 0)
(0.0004222 1.163e-05 0)
(0.0004087 1.183e-05 0)
(0.0003951 1.19e-05 0)
(0.0003814 1.185e-05 0)
(0.0003678 1.169e-05 0)
(0.0003545 1.143e-05 0)
(0.0003415 1.11e-05 0)
(0.0003288 1.07e-05 0)
(0.0003167 1.026e-05 0)
(0.0003051 9.774e-06 0)
(0.0002941 9.265e-06 0)
(0.0002836 8.739e-06 0)
(0.0002738 8.207e-06 0)
(0.0002645 7.675e-06 0)
(0.0002559 7.151e-06 0)
(0.0002478 6.639e-06 0)
(0.0002404 6.144e-06 0)
(0.0002335 5.669e-06 0)
(0.0002271 5.215e-06 0)
(0.0002212 4.786e-06 0)
(0.0002159 4.381e-06 0)
(0.0002109 4.001e-06 0)
(0.0002065 3.646e-06 0)
(0.0002024 3.316e-06 0)
(0.0001986 3.01e-06 0)
(0.0001953 2.727e-06 0)
(0.0001922 2.466e-06 0)
(0.0001894 2.226e-06 0)
(0.0001869 2.007e-06 0)
(0.0001847 1.806e-06 0)
(0.0001826 1.623e-06 0)
(0.0001808 1.456e-06 0)
(0.0001792 1.304e-06 0)
(0.0001777 1.167e-06 0)
(0.0001764 1.043e-06 0)
(0.0001752 9.303e-07 0)
(0.0001742 8.292e-07 0)
(0.0001732 7.386e-07 0)
(0.0001724 6.576e-07 0)
(0.0001717 5.858e-07 0)
(0.000171 5.226e-07 0)
(0.0001704 4.677e-07 0)
(0.0001699 4.209e-07 0)
(0.0001694 3.822e-07 0)
(0.0001689 3.518e-07 0)
(0.0001685 3.304e-07 0)
(0.0001681 3.189e-07 0)
(0.0001678 3.19e-07 0)
(0.0001674 3.337e-07 0)
(0.000167 3.675e-07 0)
(0.0001665 4.268e-07 0)
(0.0001661 5.148e-07 0)
(0.0001656 6.067e-07 0)
(0.001226 0.0002775 0)
(0.001243 0.0004026 0)
(0.001194 0.0003664 0)
(0.001102 0.0002983 0)
(0.0009996 0.0002346 0)
(0.0009014 0.0001832 0)
(0.000814 0.0001439 0)
(0.0007387 0.0001144 0)
(0.0006748 9.21e-05 0)
(0.0006209 7.51e-05 0)
(0.0005754 6.193e-05 0)
(0.0005368 5.155e-05 0)
(0.0005041 4.324e-05 0)
(0.0004762 3.648e-05 0)
(0.0004524 3.09e-05 0)
(0.000432 2.624e-05 0)
(0.0004146 2.231e-05 0)
(0.0003998 1.894e-05 0)
(0.0003871 1.603e-05 0)
(0.0003764 1.349e-05 0)
(0.0003674 1.125e-05 0)
(0.0003599 9.249e-06 0)
(0.0003537 7.444e-06 0)
(0.0003489 5.797e-06 0)
(0.0003452 4.276e-06 0)
(0.0003425 2.855e-06 0)
(0.0003409 1.511e-06 0)
(0.0003403 2.235e-07 0)
(0.0003405 -1.024e-06 0)
(0.0003417 -2.248e-06 0)
(0.0003438 -3.461e-06 0)
(0.0003468 -4.676e-06 0)
(0.0003506 -5.901e-06 0)
(0.0003554 -7.147e-06 0)
(0.0003611 -8.42e-06 0)
(0.0003677 -9.727e-06 0)
(0.0003753 -1.107e-05 0)
(0.0003839 -1.245e-05 0)
(0.0003936 -1.388e-05 0)
(0.0004042 -1.534e-05 0)
(0.0004159 -1.683e-05 0)
(0.0004287 -1.835e-05 0)
(0.0004426 -1.988e-05 0)
(0.0004576 -2.141e-05 0)
(0.0004737 -2.291e-05 0)
(0.0004908 -2.437e-05 0)
(0.000509 -2.575e-05 0)
(0.0005281 -2.703e-05 0)
(0.000548 -2.817e-05 0)
(0.0005687 -2.912e-05 0)
(0.0005899 -2.984e-05 0)
(0.0006116 -3.03e-05 0)
(0.0006334 -3.043e-05 0)
(0.0006552 -3.021e-05 0)
(0.0006766 -2.958e-05 0)
(0.0006974 -2.853e-05 0)
(0.0007173 -2.702e-05 0)
(0.000736 -2.505e-05 0)
(0.000753 -2.263e-05 0)
(0.0007682 -1.978e-05 0)
(0.0007812 -1.654e-05 0)
(0.0007918 -1.297e-05 0)
(0.0007997 -9.141e-06 0)
(0.0008048 -5.145e-06 0)
(0.0008071 -1.072e-06 0)
(0.0008065 2.985e-06 0)
(0.000803 6.937e-06 0)
(0.0007967 1.07e-05 0)
(0.0007879 1.421e-05 0)
(0.0007766 1.74e-05 0)
(0.0007632 2.024e-05 0)
(0.0007478 2.27e-05 0)
(0.0007309 2.476e-05 0)
(0.0007126 2.642e-05 0)
(0.0006932 2.769e-05 0)
(0.000673 2.857e-05 0)
(0.0006522 2.91e-05 0)
(0.0006312 2.93e-05 0)
(0.0006102 2.92e-05 0)
(0.0005892 2.883e-05 0)
(0.0005686 2.824e-05 0)
(0.0005485 2.745e-05 0)
(0.0005289 2.65e-05 0)
(0.0005101 2.543e-05 0)
(0.000492 2.426e-05 0)
(0.0004749 2.302e-05 0)
(0.0004586 2.174e-05 0)
(0.0004432 2.044e-05 0)
(0.0004287 1.914e-05 0)
(0.0004152 1.785e-05 0)
(0.0004026 1.659e-05 0)
(0.0003909 1.537e-05 0)
(0.00038 1.42e-05 0)
(0.00037 1.308e-05 0)
(0.0003607 1.202e-05 0)
(0.0003522 1.101e-05 0)
(0.0003445 1.007e-05 0)
(0.0003373 9.189e-06 0)
(0.0003308 8.367e-06 0)
(0.0003249 7.603e-06 0)
(0.0003195 6.897e-06 0)
(0.0003146 6.246e-06 0)
(0.0003102 5.646e-06 0)
(0.0003062 5.096e-06 0)
(0.0003026 4.592e-06 0)
(0.0002993 4.132e-06 0)
(0.0002964 3.713e-06 0)
(0.0002937 3.331e-06 0)
(0.0002914 2.984e-06 0)
(0.0002892 2.67e-06 0)
(0.0002873 2.387e-06 0)
(0.0002856 2.131e-06 0)
(0.0002841 1.901e-06 0)
(0.0002827 1.696e-06 0)
(0.0002815 1.513e-06 0)
(0.0002804 1.352e-06 0)
(0.0002794 1.212e-06 0)
(0.0002785 1.092e-06 0)
(0.0002777 9.918e-07 0)
(0.000277 9.119e-07 0)
(0.0002763 8.531e-07 0)
(0.0002757 8.17e-07 0)
(0.0002751 8.06e-07 0)
(0.0002745 8.234e-07 0)
(0.0002739 8.735e-07 0)
(0.0002733 9.591e-07 0)
(0.0002727 1.073e-06 0)
(0.0002721 1.173e-06 0)
(0.001224 0.0002275 0)
(0.00126 0.0004003 0)
(0.001258 0.0004194 0)
(0.001216 0.000379 0)
(0.001149 0.0003232 0)
(0.001073 0.0002689 0)
(0.0009968 0.0002219 0)
(0.0009253 0.0001832 0)
(0.0008605 0.0001519 0)
(0.000803 0.0001267 0)
(0.0007526 0.0001063 0)
(0.0007085 8.974e-05 0)
(0.0006702 7.61e-05 0)
(0.0006369 6.477e-05 0)
(0.0006081 5.527e-05 0)
(0.0005831 4.722e-05 0)
(0.0005615 4.033e-05 0)
(0.0005429 3.439e-05 0)
(0.0005269 2.921e-05 0)
(0.0005133 2.465e-05 0)
(0.0005018 2.06e-05 0)
(0.0004923 1.697e-05 0)
(0.0004844 1.369e-05 0)
(0.0004782 1.067e-05 0)
(0.0004734 7.882e-06 0)
(0.00047 5.268e-06 0)
(0.0004679 2.79e-06 0)
(0.0004671 4.128e-07 0)
(0.0004675 -1.894e-06 0)
(0.0004691 -4.157e-06 0)
(0.0004719 -6.4e-06 0)
(0.0004758 -8.645e-06 0)
(0.0004809 -1.091e-05 0)
(0.0004872 -1.321e-05 0)
(0.0004947 -1.556e-05 0)
(0.0005034 -1.796e-05 0)
(0.0005134 -2.043e-05 0)
(0.0005247 -2.297e-05 0)
(0.0005373 -2.558e-05 0)
(0.0005513 -2.826e-05 0)
(0.0005666 -3.098e-05 0)
(0.0005834 -3.375e-05 0)
(0.0006016 -3.653e-05 0)
(0.0006211 -3.931e-05 0)
(0.0006421 -4.204e-05 0)
(0.0006644 -4.468e-05 0)
(0.000688 -4.718e-05 0)
(0.0007128 -4.948e-05 0)
(0.0007386 -5.152e-05 0)
(0.0007654 -5.322e-05 0)
(0.000793 -5.451e-05 0)
(0.000821 -5.529e-05 0)
(0.0008492 -5.55e-05 0)
(0.0008774 -5.506e-05 0)
(0.0009051 -5.389e-05 0)
(0.000932 -5.195e-05 0)
(0.0009577 -4.919e-05 0)
(0.0009817 -4.559e-05 0)
(0.001004 -4.118e-05 0)
(0.001023 -3.599e-05 0)
(0.00104 -3.01e-05 0)
(0.001054 -2.362e-05 0)
(0.001064 -1.667e-05 0)
(0.001071 -9.418e-06 0)
(0.001074 -2.024e-06 0)
(0.001073 5.344e-06 0)
(0.001068 1.252e-05 0)
(0.00106 1.937e-05 0)
(0.001049 2.575e-05 0)
(0.001035 3.158e-05 0)
(0.001017 3.676e-05 0)
(0.0009976 4.126e-05 0)
(0.0009758 4.504e-05 0)
(0.0009521 4.81e-05 0)
(0.0009271 5.044e-05 0)
(0.000901 5.21e-05 0)
(0.0008742 5.31e-05 0)
(0.000847 5.351e-05 0)
(0.0008197 5.337e-05 0)
(0.0007925 5.275e-05 0)
(0.0007658 5.171e-05 0)
(0.0007396 5.031e-05 0)
(0.0007141 4.862e-05 0)
(0.0006896 4.669e-05 0)
(0.0006661 4.458e-05 0)
(0.0006436 4.235e-05 0)
(0.0006223 4.003e-05 0)
(0.0006021 3.767e-05 0)
(0.0005832 3.531e-05 0)
(0.0005654 3.297e-05 0)
(0.0005488 3.068e-05 0)
(0.0005334 2.845e-05 0)
(0.0005191 2.631e-05 0)
(0.0005058 2.426e-05 0)
(0.0004936 2.231e-05 0)
(0.0004823 2.047e-05 0)
(0.000472 1.873e-05 0)
(0.0004625 1.711e-05 0)
(0.0004539 1.56e-05 0)
(0.000446 1.419e-05 0)
(0.0004388 1.288e-05 0)
(0.0004323 1.168e-05 0)
(0.0004264 1.057e-05 0)
(0.000421 9.552e-06 0)
(0.0004161 8.618e-06 0)
(0.0004117 7.763e-06 0)
(0.0004078 6.983e-06 0)
(0.0004042 6.273e-06 0)
(0.000401 5.627e-06 0)
(0.0003981 5.042e-06 0)
(0.0003955 4.512e-06 0)
(0.0003932 4.034e-06 0)
(0.0003911 3.605e-06 0)
(0.0003893 3.22e-06 0)
(0.0003876 2.877e-06 0)
(0.0003861 2.574e-06 0)
(0.0003848 2.309e-06 0)
(0.0003836 2.081e-06 0)
(0.0003825 1.889e-06 0)
(0.0003815 1.733e-06 0)
(0.0003806 1.614e-06 0)
(0.0003797 1.533e-06 0)
(0.0003789 1.492e-06 0)
(0.0003782 1.494e-06 0)
(0.0003774 1.54e-06 0)
(0.0003767 1.627e-06 0)
(0.000376 1.738e-06 0)
(0.0003753 1.827e-06 0)
(0.001219 0.0001846 0)
(0.001255 0.0003713 0)
(0.001275 0.0004302 0)
(0.001264 0.0004213 0)
(0.001229 0.0003831 0)
(0.001178 0.000336 0)
(0.001119 0.0002893 0)
(0.001059 0.0002472 0)
(0.001001 0.0002107 0)
(0.0009471 0.0001796 0)
(0.0008976 0.0001534 0)
(0.0008529 0.0001314 0)
(0.000813 0.0001127 0)
(0.0007776 9.683e-05 0)
(0.0007464 8.328e-05 0)
(0.000719 7.162e-05 0)
(0.000695 6.151e-05 0)
(0.0006741 5.269e-05 0)
(0.0006561 4.492e-05 0)
(0.0006406 3.803e-05 0)
(0.0006274 3.187e-05 0)
(0.0006164 2.631e-05 0)
(0.0006074 2.125e-05 0)
(0.0006001 1.659e-05 0)
(0.0005946 1.225e-05 0)
(0.0005907 8.175e-06 0)
(0.0005884 4.302e-06 0)
(0.0005875 5.787e-07 0)
(0.0005881 -3.04e-06 0)
(0.0005901 -6.594e-06 0)
(0.0005935 -1.012e-05 0)
(0.0005983 -1.365e-05 0)
(0.0006045 -1.72e-05 0)
(0.0006121 -2.081e-05 0)
(0.0006211 -2.45e-05 0)
(0.0006316 -2.827e-05 0)
(0.0006437 -3.214e-05 0)
(0.0006572 -3.612e-05 0)
(0.0006724 -4.019e-05 0)
(0.0006891 -4.436e-05 0)
(0.0007075 -4.861e-05 0)
(0.0007276 -5.292e-05 0)
(0.0007493 -5.725e-05 0)
(0.0007727 -6.155e-05 0)
(0.0007977 -6.578e-05 0)
(0.0008243 -6.987e-05 0)
(0.0008525 -7.373e-05 0)
(0.000882 -7.728e-05 0)
(0.0009129 -8.042e-05 0)
(0.0009448 -8.302e-05 0)
(0.0009775 -8.498e-05 0)
(0.001011 -8.617e-05 0)
(0.001044 -8.646e-05 0)
(0.001078 -8.574e-05 0)
(0.001111 -8.39e-05 0)
(0.001143 -8.085e-05 0)
(0.001173 -7.654e-05 0)
(0.001202 -7.094e-05 0)
(0.001228 -6.407e-05 0)
(0.001252 -5.601e-05 0)
(0.001272 -4.685e-05 0)
(0.001288 -3.678e-05 0)
(0.0013 -2.599e-05 0)
(0.001308 -1.473e-05 0)
(0.001312 -3.239e-06 0)
(0.001311 8.207e-06 0)
(0.001306 1.936e-05 0)
(0.001296 3.001e-05 0)
(0.001283 3.994e-05 0)
(0.001265 4.901e-05 0)
(0.001245 5.709e-05 0)
(0.001222 6.411e-05 0)
(0.001196 7.002e-05 0)
(0.001167 7.482e-05 0)
(0.001138 7.851e-05 0)
(0.001107 8.113e-05 0)
(0.001075 8.275e-05 0)
(0.001042 8.344e-05 0)
(0.00101 8.328e-05 0)
(0.0009776 8.236e-05 0)
(0.0009457 8.079e-05 0)
(0.0009144 7.866e-05 0)
(0.0008841 7.607e-05 0)
(0.0008547 7.311e-05 0)
(0.0008266 6.986e-05 0)
(0.0007997 6.641e-05 0)
(0.0007741 6.283e-05 0)
(0.00075 5.918e-05 0)
(0.0007272 5.552e-05 0)
(0.0007058 5.188e-05 0)
(0.0006859 4.832e-05 0)
(0.0006673 4.485e-05 0)
(0.00065 4.151e-05 0)
(0.000634 3.831e-05 0)
(0.0006192 3.526e-05 0)
(0.0006056 3.238e-05 0)
(0.0005931 2.967e-05 0)
(0.0005816 2.712e-05 0)
(0.0005711 2.474e-05 0)
(0.0005615 2.253e-05 0)
(0.0005527 2.048e-05 0)
(0.0005448 1.859e-05 0)
(0.0005375 1.684e-05 0)
(0.0005309 1.523e-05 0)
(0.000525 1.375e-05 0)
(0.0005196 1.24e-05 0)
(0.0005147 1.117e-05 0)
(0.0005104 1.004e-05 0)
(0.0005064 9.02e-06 0)
(0.0005028 8.091e-06 0)
(0.0004997 7.249e-06 0)
(0.0004968 6.489e-06 0)
(0.0004942 5.804e-06 0)
(0.0004919 5.19e-06 0)
(0.0004898 4.643e-06 0)
(0.000488 4.157e-06 0)
(0.0004863 3.731e-06 0)
(0.0004848 3.362e-06 0)
(0.0004835 3.048e-06 0)
(0.0004822 2.789e-06 0)
(0.0004811 2.585e-06 0)
(0.0004801 2.436e-06 0)
(0.0004791 2.343e-06 0)
(0.0004782 2.307e-06 0)
(0.0004774 2.325e-06 0)
(0.0004766 2.389e-06 0)
(0.0004758 2.48e-06 0)
(0.000475 2.55e-06 0)
(0.001214 0.000152 0)
(0.001246 0.0003355 0)
(0.001274 0.0004184 0)
(0.001281 0.0004358 0)
(0.001268 0.0004174 0)
(0.001239 0.0003823 0)
(0.001199 0.0003415 0)
(0.001153 0.0003007 0)
(0.001105 0.0002628 0)
(0.001058 0.0002287 0)
(0.001014 0.0001987 0)
(0.0009718 0.0001725 0)
(0.0009334 0.0001497 0)
(0.0008986 0.0001299 0)
(0.0008673 0.0001127 0)
(0.0008394 9.756e-05 0)
(0.0008147 8.428e-05 0)
(0.0007929 7.254e-05 0)
(0.0007739 6.21e-05 0)
(0.0007575 5.276e-05 0)
(0.0007435 4.433e-05 0)
(0.0007317 3.668e-05 0)
(0.000722 2.965e-05 0)
(0.0007142 2.316e-05 0)
(0.0007083 1.709e-05 0)
(0.0007042 1.137e-05 0)
(0.0007017 5.904e-06 0)
(0.0007009 6.414e-07 0)
(0.0007017 -4.484e-06 0)
(0.0007041 -9.525e-06 0)
(0.0007081 -1.453e-05 0)
(0.0007136 -1.954e-05 0)
(0.0007207 -2.46e-05 0)
(0.0007294 -2.973e-05 0)
(0.0007397 -3.496e-05 0)
(0.0007517 -4.032e-05 0)
(0.0007654 -4.581e-05 0)
(0.0007808 -5.144e-05 0)
(0.000798 -5.721e-05 0)
(0.000817 -6.311e-05 0)
(0.0008379 -6.912e-05 0)
(0.0008606 -7.52e-05 0)
(0.0008853 -8.131e-05 0)
(0.0009118 -8.738e-05 0)
(0.0009401 -9.333e-05 0)
(0.0009702 -9.908e-05 0)
(0.001002 -0.0001045 0)
(0.001036 -0.0001095 0)
(0.00107 -0.0001139 0)
(0.001106 -0.0001175 0)
(0.001144 -0.0001203 0)
(0.001181 -0.0001219 0)
(0.001219 -0.0001223 0)
(0.001257 -0.0001213 0)
(0.001295 -0.0001187 0)
(0.001331 -0.0001144 0)
(0.001366 -0.0001083 0)
(0.001398 -0.0001004 0)
(0.001428 -9.065e-05 0)
(0.001454 -7.925e-05 0)
(0.001477 -6.632e-05 0)
(0.001496 -5.208e-05 0)
(0.001509 -3.684e-05 0)
(0.001519 -2.091e-05 0)
(0.001523 -4.677e-06 0)
(0.001522 1.15e-05 0)
(0.001516 2.727e-05 0)
(0.001505 4.231e-05 0)
(0.00149 5.635e-05 0)
(0.00147 6.918e-05 0)
(0.001447 8.061e-05 0)
(0.00142 9.055e-05 0)
(0.001391 9.893e-05 0)
(0.001359 0.0001057 0)
(0.001326 0.000111 0)
(0.001291 0.0001148 0)
(0.001254 0.0001171 0)
(0.001218 0.0001181 0)
(0.001181 0.0001179 0)
(0.001144 0.0001167 0)
(0.001108 0.0001145 0)
(0.001073 0.0001116 0)
(0.001038 0.000108 0)
(0.001005 0.0001038 0)
(0.0009732 9.926e-05 0)
(0.0009426 9.442e-05 0)
(0.0009136 8.939e-05 0)
(0.0008862 8.426e-05 0)
(0.0008603 7.909e-05 0)
(0.000836 7.397e-05 0)
(0.0008132 6.893e-05 0)
(0.000792 6.404e-05 0)
(0.0007723 5.931e-05 0)
(0.0007541 5.478e-05 0)
(0.0007372 5.046e-05 0)
(0.0007216 4.638e-05 0)
(0.0007073 4.252e-05 0)
(0.0006941 3.891e-05 0)
(0.000682 3.553e-05 0)
(0.000671 3.238e-05 0)
(0.0006609 2.946e-05 0)
(0.0006518 2.675e-05 0)
(0.0006434 2.426e-05 0)
(0.0006358 2.196e-05 0)
(0.000629 1.985e-05 0)
(0.0006227 1.792e-05 0)
(0.0006171 1.615e-05 0)
(0.000612 1.454e-05 0)
(0.0006074 1.307e-05 0)
(0.0006033 1.173e-05 0)
(0.0005996 1.052e-05 0)
(0.0005962 9.429e-06 0)
(0.0005932 8.442e-06 0)
(0.0005905 7.556e-06 0)
(0.0005881 6.764e-06 0)
(0.0005859 6.06e-06 0)
(0.000584 5.44e-06 0)
(0.0005822 4.9e-06 0)
(0.0005807 4.438e-06 0)
(0.0005792 4.05e-06 0)
(0.000578 3.736e-06 0)
(0.0005768 3.496e-06 0)
(0.0005757 3.328e-06 0)
(0.0005747 3.231e-06 0)
(0.0005737 3.199e-06 0)
(0.0005728 3.223e-06 0)
(0.000572 3.279e-06 0)
(0.0005712 3.328e-06 0)
(0.00121 0.0001279 0)
(0.001237 0.0003009 0)
(0.001266 0.000396 0)
(0.001284 0.0004326 0)
(0.001286 0.000432 0)
(0.001273 0.0004103 0)
(0.001249 0.000378 0)
(0.001217 0.0003418 0)
(0.001181 0.0003054 0)
(0.001143 0.0002709 0)
(0.001105 0.0002392 0)
(0.001068 0.0002105 0)
(0.001033 0.0001848 0)
(0.001001 0.0001619 0)
(0.0009715 0.0001415 0)
(0.0009447 0.0001234 0)
(0.0009206 0.0001073 0)
(0.0008992 9.277e-05 0)
(0.0008803 7.976e-05 0)
(0.0008638 6.799e-05 0)
(0.0008497 5.728e-05 0)
(0.0008377 4.748e-05 0)
(0.0008278 3.844e-05 0)
(0.00082 3.002e-05 0)
(0.000814 2.211e-05 0)
(0.0008099 1.462e-05 0)
(0.0008075 7.451e-06 0)
(0.0008069 5.193e-07 0)
(0.0008079 -6.247e-06 0)
(0.0008107 -1.292e-05 0)
(0.0008152 -1.955e-05 0)
(0.0008213 -2.619e-05 0)
(0.0008292 -3.29e-05 0)
(0.0008387 -3.971e-05 0)
(0.0008501 -4.665e-05 0)
(0.0008632 -5.375e-05 0)
(0.0008782 -6.104e-05 0)
(0.0008951 -6.85e-05 0)
(0.0009139 -7.615e-05 0)
(0.0009346 -8.396e-05 0)
(0.0009574 -9.191e-05 0)
(0.0009822 -9.995e-05 0)
(0.001009 -0.000108 0)
(0.001038 -0.000116 0)
(0.001069 -0.0001239 0)
(0.001102 -0.0001315 0)
(0.001136 -0.0001387 0)
(0.001173 -0.0001453 0)
(0.001211 -0.0001511 0)
(0.00125 -0.0001559 0)
(0.001291 -0.0001595 0)
(0.001332 -0.0001617 0)
(0.001374 -0.0001622 0)
(0.001415 -0.0001609 0)
(0.001456 -0.0001574 0)
(0.001496 -0.0001517 0)
(0.001534 -0.0001437 0)
(0.00157 -0.0001332 0)
(0.001603 -0.0001204 0)
(0.001632 -0.0001053 0)
(0.001657 -8.811e-05 0)
(0.001678 -6.922e-05 0)
(0.001693 -4.898e-05 0)
(0.001703 -2.784e-05 0)
(0.001708 -6.288e-06 0)
(0.001707 1.519e-05 0)
(0.0017 3.611e-05 0)
(0.001688 5.606e-05 0)
(0.001671 7.468e-05 0)
(0.00165 9.168e-05 0)
(0.001624 0.0001068 0)
(0.001595 0.00012 0)
(0.001563 0.0001311 0)
(0.001528 0.0001402 0)
(0.001491 0.0001472 0)
(0.001453 0.0001522 0)
(0.001413 0.0001553 0)
(0.001373 0.0001567 0)
(0.001333 0.0001565 0)
(0.001293 0.0001549 0)
(0.001253 0.000152 0)
(0.001214 0.0001482 0)
(0.001177 0.0001434 0)
(0.00114 0.000138 0)
(0.001106 0.000132 0)
(0.001072 0.0001256 0)
(0.00104 0.000119 0)
(0.00101 0.0001122 0)
(0.000982 0.0001054 0)
(0.0009554 9.86e-05 0)
(0.0009305 9.194e-05 0)
(0.0009073 8.546e-05 0)
(0.0008857 7.92e-05 0)
(0.0008656 7.32e-05 0)
(0.0008471 6.748e-05 0)
(0.00083 6.206e-05 0)
(0.0008142 5.694e-05 0)
(0.0007997 5.214e-05 0)
(0.0007864 4.764e-05 0)
(0.0007743 4.345e-05 0)
(0.0007632 3.956e-05 0)
(0.000753 3.596e-05 0)
(0.0007438 3.263e-05 0)
(0.0007354 2.956e-05 0)
(0.0007278 2.674e-05 0)
(0.0007209 2.416e-05 0)
(0.0007146 2.179e-05 0)
(0.000709 1.963e-05 0)
(0.0007039 1.766e-05 0)
(0.0006993 1.587e-05 0)
(0.0006951 1.425e-05 0)
(0.0006914 1.278e-05 0)
(0.0006881 1.145e-05 0)
(0.0006851 1.026e-05 0)
(0.0006824 9.186e-06 0)
(0.0006799 8.234e-06 0)
(0.0006777 7.392e-06 0)
(0.0006758 6.655e-06 0)
(0.000674 6.018e-06 0)
(0.0006724 5.479e-06 0)
(0.000671 5.034e-06 0)
(0.0006697 4.681e-06 0)
(0.0006685 4.417e-06 0)
(0.0006674 4.239e-06 0)
(0.0006664 4.14e-06 0)
(0.0006655 4.108e-06 0)
(0.0006646 4.121e-06 0)
(0.0006638 4.145e-06 0)
(0.001208 0.0001098 0)
(0.00123 0.00027 0)
(0.001258 0.0003696 0)
(0.00128 0.000419 0)
(0.001291 0.0004328 0)
(0.00129 0.0004235 0)
(0.001279 0.0004006 0)
(0.001259 0.0003707 0)
(0.001234 0.0003379 0)
(0.001205 0.000305 0)
(0.001175 0.0002732 0)
(0.001145 0.0002435 0)
(0.001115 0.0002161 0)
(0.001087 0.0001911 0)
(0.00106 0.0001684 0)
(0.001036 0.0001479 0)
(0.001013 0.0001293 0)
(0.0009932 0.0001124 0)
(0.0009753 9.7e-05 0)
(0.0009595 8.297e-05 0)
(0.0009459 7.009e-05 0)
(0.0009343 5.82e-05 0)
(0.0009248 4.715e-05 0)
(0.0009171 3.681e-05 0)
(0.0009114 2.704e-05 0)
(0.0009075 1.774e-05 0)
(0.0009054 8.805e-06 0)
(0.000905 1.377e-07 0)
(0.0009064 -8.347e-06 0)
(0.0009096 -1.673e-05 0)
(0.0009144 -2.507e-05 0)
(0.0009211 -3.345e-05 0)
(0.0009295 -4.191e-05 0)
(0.0009397 -5.05e-05 0)
(0.0009518 -5.927e-05 0)
(0.0009658 -6.824e-05 0)
(0.0009817 -7.743e-05 0)
(0.0009996 -8.686e-05 0)
(0.001019 -9.651e-05 0)
(0.001042 -0.0001064 0)
(0.001066 -0.0001164 0)
(0.001092 -0.0001266 0)
(0.00112 -0.0001367 0)
(0.001151 -0.0001469 0)
(0.001184 -0.0001568 0)
(0.001219 -0.0001664 0)
(0.001256 -0.0001754 0)
(0.001294 -0.0001838 0)
(0.001335 -0.0001911 0)
(0.001377 -0.0001972 0)
(0.00142 -0.0002019 0)
(0.001464 -0.0002047 0)
(0.001508 -0.0002054 0)
(0.001553 -0.0002038 0)
(0.001597 -0.0001995 0)
(0.00164 -0.0001923 0)
(0.001681 -0.0001822 0)
(0.001719 -0.000169 0)
(0.001755 -0.0001528 0)
(0.001786 -0.0001337 0)
(0.001813 -0.0001119 0)
(0.001836 -8.795e-05 0)
(0.001852 -6.224e-05 0)
(0.001863 -3.539e-05 0)
(0.001868 -8.016e-06 0)
(0.001867 1.925e-05 0)
(0.001859 4.579e-05 0)
(0.001846 7.109e-05 0)
(0.001828 9.467e-05 0)
(0.001805 0.0001162 0)
(0.001778 0.0001354 0)
(0.001746 0.000152 0)
(0.001712 0.0001661 0)
(0.001674 0.0001775 0)
(0.001635 0.0001863 0)
(0.001594 0.0001926 0)
(0.001551 0.0001966 0)
(0.001508 0.0001983 0)
(0.001465 0.0001981 0)
(0.001423 0.0001961 0)
(0.001381 0.0001925 0)
(0.001339 0.0001876 0)
(0.001299 0.0001817 0)
(0.001261 0.0001748 0)
(0.001223 0.0001672 0)
(0.001188 0.0001592 0)
(0.001154 0.0001508 0)
(0.001122 0.0001423 0)
(0.001092 0.0001337 0)
(0.001064 0.0001252 0)
(0.001037 0.0001168 0)
(0.001013 0.0001086 0)
(0.0009897 0.0001007 0)
(0.0009684 9.31e-05 0)
(0.0009486 8.587e-05 0)
(0.0009304 7.901e-05 0)
(0.0009136 7.254e-05 0)
(0.0008982 6.646e-05 0)
(0.000884 6.076e-05 0)
(0.000871 5.546e-05 0)
(0.0008592 5.052e-05 0)
(0.0008484 4.595e-05 0)
(0.0008385 4.173e-05 0)
(0.0008295 3.783e-05 0)
(0.0008213 3.425e-05 0)
(0.0008139 3.096e-05 0)
(0.0008072 2.795e-05 0)
(0.0008012 2.52e-05 0)
(0.0007957 2.269e-05 0)
(0.0007907 2.04e-05 0)
(0.0007863 1.833e-05 0)
(0.0007822 1.645e-05 0)
(0.0007786 1.475e-05 0)
(0.0007754 1.322e-05 0)
(0.0007725 1.185e-05 0)
(0.0007698 1.062e-05 0)
(0.0007675 9.535e-06 0)
(0.0007654 8.579e-06 0)
(0.0007635 7.749e-06 0)
(0.0007618 7.038e-06 0)
(0.0007602 6.443e-06 0)
(0.0007589 5.959e-06 0)
(0.0007576 5.582e-06 0)
(0.0007565 5.307e-06 0)
(0.0007554 5.125e-06 0)
(0.0007544 5.026e-06 0)
(0.0007535 4.989e-06 0)
(0.0007527 4.986e-06 0)
(0.001206 9.579e-05 0)
(0.001225 0.000243 0)
(0.001251 0.0003427 0)
(0.001275 0.0003999 0)
(0.001291 0.0004243 0)
(0.001298 0.0004257 0)
(0.001297 0.0004118 0)
(0.001287 0.0003887 0)
(0.001271 0.0003607 0)
(0.001252 0.0003305 0)
(0.001229 0.0003002 0)
(0.001206 0.0002707 0)
(0.001181 0.0002427 0)
(0.001158 0.0002166 0)
(0.001135 0.0001923 0)
(0.001114 0.00017 0)
(0.001094 0.0001494 0)
(0.001076 0.0001305 0)
(0.001059 0.0001131 0)
(0.001045 9.706e-05 0)
(0.001032 8.22e-05 0)
(0.001022 6.836e-05 0)
(0.001013 5.542e-05 0)
(0.001006 4.321e-05 0)
(0.001 3.163e-05 0)
(0.000997 2.055e-05 0)
(0.0009952 9.85e-06 0)
(0.0009952 -5.632e-07 0)
(0.000997 -1.079e-05 0)
(0.001 -2.091e-05 0)
(0.001006 -3.101e-05 0)
(0.001013 -4.116e-05 0)
(0.001022 -5.143e-05 0)
(0.001032 -6.187e-05 0)
(0.001045 -7.252e-05 0)
(0.001059 -8.343e-05 0)
(0.001076 -9.461e-05 0)
(0.001094 -0.0001061 0)
(0.001115 -0.0001178 0)
(0.001137 -0.0001298 0)
(0.001162 -0.000142 0)
(0.00119 -0.0001544 0)
(0.001219 -0.0001668 0)
(0.001251 -0.0001791 0)
(0.001285 -0.0001912 0)
(0.001321 -0.0002029 0)
(0.001359 -0.000214 0)
(0.001399 -0.0002242 0)
(0.001441 -0.0002333 0)
(0.001485 -0.0002408 0)
(0.00153 -0.0002466 0)
(0.001576 -0.0002501 0)
(0.001623 -0.0002512 0)
(0.00167 -0.0002493 0)
(0.001716 -0.0002442 0)
(0.001761 -0.0002356 0)
(0.001805 -0.0002234 0)
(0.001846 -0.0002073 0)
(0.001883 -0.0001875 0)
(0.001917 -0.0001641 0)
(0.001946 -0.0001375 0)
(0.001969 -0.000108 0)
(0.001987 -7.645e-05 0)
(0.001998 -4.344e-05 0)
(0.002003 -9.798e-06 0)
(0.002002 2.369e-05 0)
(0.001994 5.626e-05 0)
(0.001981 8.726e-05 0)
(0.001961 0.0001161 0)
(0.001937 0.0001424 0)
(0.001907 0.0001658 0)
(0.001874 0.0001861 0)
(0.001837 0.0002033 0)
(0.001798 0.0002171 0)
(0.001756 0.0002279 0)
(0.001713 0.0002355 0)
(0.001669 0.0002403 0)
(0.001624 0.0002424 0)
(0.001579 0.0002421 0)
(0.001534 0.0002396 0)
(0.00149 0.0002352 0)
(0.001447 0.0002292 0)
(0.001405 0.0002219 0)
(0.001365 0.0002135 0)
(0.001327 0.0002043 0)
(0.00129 0.0001945 0)
(0.001255 0.0001843 0)
(0.001222 0.0001739 0)
(0.00119 0.0001634 0)
(0.001161 0.000153 0)
(0.001134 0.0001428 0)
(0.001108 0.0001328 0)
(0.001084 0.0001232 0)
(0.001062 0.000114 0)
(0.001042 0.0001052 0)
(0.001023 9.682e-05 0)
(0.001005 8.893e-05 0)
(0.0009893 8.151e-05 0)
(0.0009746 7.457e-05 0)
(0.0009611 6.809e-05 0)
(0.0009488 6.207e-05 0)
(0.0009376 5.648e-05 0)
(0.0009273 5.132e-05 0)
(0.000918 4.656e-05 0)
(0.0009095 4.217e-05 0)
(0.0009018 3.815e-05 0)
(0.0008948 3.446e-05 0)
(0.0008884 3.109e-05 0)
(0.0008827 2.801e-05 0)
(0.0008775 2.521e-05 0)
(0.0008728 2.266e-05 0)
(0.0008686 2.035e-05 0)
(0.0008649 1.826e-05 0)
(0.0008614 1.637e-05 0)
(0.0008584 1.468e-05 0)
(0.0008556 1.316e-05 0)
(0.0008532 1.181e-05 0)
(0.000851 1.062e-05 0)
(0.000849 9.584e-06 0)
(0.0008472 8.687e-06 0)
(0.0008456 7.927e-06 0)
(0.0008442 7.298e-06 0)
(0.0008429 6.794e-06 0)
(0.0008417 6.409e-06 0)
(0.0008406 6.135e-06 0)
(0.0008396 5.959e-06 0)
(0.0008387 5.867e-06 0)
(0.0008379 5.836e-06 0)
(0.001205 8.465e-05 0)
(0.001221 0.0002196 0)
(0.001244 0.0003167 0)
(0.001268 0.000378 0)
(0.001288 0.00041 0)
(0.001301 0.0004199 0)
(0.001306 0.000414 0)
(0.001305 0.0003976 0)
(0.001297 0.0003747 0)
(0.001285 0.0003481 0)
(0.00127 0.0003201 0)
(0.001253 0.0002918 0)
(0.001235 0.0002641 0)
(0.001216 0.0002376 0)
(0.001198 0.0002125 0)
(0.00118 0.000189 0)
(0.001163 0.000167 0)
(0.001147 0.0001466 0)
(0.001133 0.0001275 0)
(0.00112 0.0001098 0)
(0.001109 9.318e-05 0)
(0.0011 7.76e-05 0)
(0.001092 6.291e-05 0)
(0.001086 4.898e-05 0)
(0.001081 3.568e-05 0)
(0.001078 2.289e-05 0)
(0.001077 1.049e-05 0)
(0.001077 -1.622e-06 0)
(0.00108 -1.356e-05 0)
(0.001083 -2.54e-05 0)
(0.001089 -3.725e-05 0)
(0.001096 -4.918e-05 0)
(0.001105 -6.126e-05 0)
(0.001116 -7.355e-05 0)
(0.001129 -8.611e-05 0)
(0.001143 -9.897e-05 0)
(0.00116 -0.0001122 0)
(0.001179 -0.0001257 0)
(0.001199 -0.0001396 0)
(0.001222 -0.0001538 0)
(0.001248 -0.0001682 0)
(0.001275 -0.0001828 0)
(0.001305 -0.0001975 0)
(0.001337 -0.0002122 0)
(0.001371 -0.0002266 0)
(0.001408 -0.0002405 0)
(0.001447 -0.0002537 0)
(0.001488 -0.0002659 0)
(0.001531 -0.0002768 0)
(0.001576 -0.0002859 0)
(0.001622 -0.0002929 0)
(0.00167 -0.0002973 0)
(0.001718 -0.0002988 0)
(0.001766 -0.0002968 0)
(0.001814 -0.000291 0)
(0.001861 -0.000281 0)
(0.001907 -0.0002666 0)
(0.001949 -0.0002477 0)
(0.001989 -0.0002242 0)
(0.002024 -0.0001963 0)
(0.002055 -0.0001645 0)
(0.002079 -0.0001293 0)
(0.002098 -9.146e-05 0)
(0.00211 -5.189e-05 0)
(0.002115 -1.156e-05 0)
(0.002114 2.853e-05 0)
(0.002105 6.748e-05 0)
(0.002091 0.0001045 0)
(0.00207 0.0001389 0)
(0.002044 0.0001701 0)
(0.002014 0.0001979 0)
(0.001979 0.000222 0)
(0.001941 0.0002422 0)
(0.0019 0.0002586 0)
(0.001856 0.0002712 0)
(0.001812 0.0002802 0)
(0.001766 0.0002857 0)
(0.00172 0.0002881 0)
(0.001673 0.0002876 0)
(0.001627 0.0002846 0)
(0.001582 0.0002793 0)