/*--------------------------------*- C++ -*----------------------------------*\
  =========                 |
  \\      /  F ield         | OpenFOAM: The Open Source CFD Toolbox
   \\    /   O peration     | Website:  https://openfoam.org
    \\  /    A nd           | Version:  7
     \\/     M anipulation  |
\*---------------------------------------------------------------------------*/
FoamFile
{
    version     2.0;
    format      ascii;
    class       volScalarField;
    location    "2699.99947344718248";
    object      Y.K;
}
// * * * * * * * * * * * * * * * * * * * * * * * * * * * * * * * * * * * * * //

dimensions      [0 0 0 0 0 0 0];

internalField   nonuniform List<scalar> 
4096
(
2.008e-75
1.784e-73
-6.022e-74
8.192e-74
-2.656e-74
-5.402e-74
2.258e-74
9.178e-75
-2.054e-75
-4.642e-74
4.24e-73
-6.526e-72
1.014e-70
-1.404e-69
1.921e-68
-2.449e-67
2.981e-66
-3.505e-65
3.845e-64
-4.124e-63
4.244e-62
-4.19e-61
4.012e-60
-3.701e-59
3.298e-58
-2.823e-57
2.306e-56
-1.802e-55
1.284e-54
-8.862e-54
5.921e-53
-3.773e-52
2.247e-51
-1.18e-50
5.09e-50
-9.939e-50
-1.357e-48
2.258e-47
-2.398e-46
2.013e-45
-1.484e-44
9.51e-44
-5.176e-43
2.324e-42
-5.038e-42
-3.512e-41
6.24e-40
-5.943e-39
4.406e-38
-2.792e-37
1.596e-36
-8.141e-36
3.706e-35
-1.502e-34
5.465e-34
-1.629e-33
4.04e-33
-3.728e-33
-1.129e-32
2.353e-31
-4.6e-31
3.961e-30
-1.856e-32
4.82e-29
3.114e-28
2.924e-28
3.587e-27
1.241e-26
3.017e-26
4.261e-26
3.678e-25
1.093e-24
2.313e-24
1.777e-23
4.72e-23
8.944e-23
2.03e-22
1.578e-21
7.221e-21
1.117e-19
1.802e-18
4.578e-18
8.62e-18
1.447e-17
2.286e-17
3.478e-17
5.152e-17
7.474e-17
1.066e-16
1.497e-16
2.075e-16
2.843e-16
3.854e-16
5.172e-16
6.878e-16
9.068e-16
1.186e-15
1.54e-15
1.985e-15
2.542e-15
3.236e-15
4.095e-15
5.154e-15
6.453e-15
8.04e-15
9.97e-15
1.231e-14
1.513e-14
1.853e-14
2.261e-14
2.748e-14
3.328e-14
4.017e-14
4.834e-14
5.799e-14
6.936e-14
8.273e-14
9.84e-14
1.167e-13
1.381e-13
1.63e-13
1.918e-13
2.25e-13
2.63e-13
3.059e-13
3.526e-13
3.998e-13
4.376e-13
-5.947e-73
3.133e-72
-3.973e-72
5.965e-73
2.508e-72
-2.031e-72
1.917e-73
5.88e-73
2.925e-74
-2.814e-72
2.335e-71
-3.685e-70
5.601e-69
-8.026e-68
1.085e-66
-1.388e-65
1.683e-64
-1.943e-63
2.146e-62
-2.275e-61
2.322e-60
-2.288e-59
2.179e-58
-2.004e-57
1.778e-56
-1.517e-55
1.236e-54
-9.611e-54
6.85e-53
-4.738e-52
3.173e-51
-2.029e-50
1.214e-49
-6.456e-49
2.864e-48
-6.848e-48
-5.88e-47
1.117e-45
-1.222e-44
1.021e-43
-7.579e-43
4.888e-42
-2.709e-41
1.243e-40
-3.217e-40
-1.339e-39
2.783e-38
-2.751e-37
2.104e-36
-1.346e-35
7.632e-35
-3.905e-34
1.783e-33
-7.25e-33
2.694e-32
-8.096e-32
2.101e-31
-2.279e-31
-2.477e-31
1.15e-29
-1.65e-29
2.008e-28
1.145e-28
2.79e-27
1.625e-26
2.143e-26
1.932e-25
6.77e-25
1.607e-24
2.617e-24
1.869e-23
5.531e-23
1.2e-22
8.049e-22
2.148e-21
4.073e-21
8.575e-21
5.615e-20
1.697e-19
1.253e-18
3.287e-18
6.43e-18
1.109e-17
1.784e-17
2.747e-17
4.105e-17
5.994e-17
8.594e-17
1.213e-16
1.689e-16
2.324e-16
3.163e-16
4.261e-16
5.687e-16
7.525e-16
9.878e-16
1.287e-15
1.665e-15
2.14e-15
2.732e-15
3.469e-15
4.38e-15
5.501e-15
6.874e-15
8.55e-15
1.059e-14
1.305e-14
1.603e-14
1.96e-14
2.389e-14
2.9e-14
3.51e-14
4.233e-14
5.09e-14
6.102e-14
7.294e-14
8.694e-14
1.034e-13
1.225e-13
1.449e-13
1.709e-13
2.011e-13
2.36e-13
2.761e-13
3.219e-13
3.732e-13
4.288e-13
4.828e-13
1.337e-71
-9.294e-71
2.305e-70
-3.004e-70
1.997e-70
-3.297e-71
-4.161e-71
2.074e-71
9.963e-72
-1.666e-70
1.257e-69
-1.98e-68
3.016e-67
-4.32e-66
5.828e-65
-7.425e-64
8.961e-63
-1.029e-61
1.13e-60
-1.19e-59
1.208e-58
-1.184e-57
1.122e-56
-1.027e-55
9.073e-55
-7.713e-54
6.267e-53
-4.86e-52
3.47e-51
-2.41e-50
1.622e-49
-1.044e-48
6.314e-48
-3.439e-47
1.593e-46
-4.974e-46
-1.822e-45
4.838e-44
-5.632e-43
4.785e-42
-3.624e-41
2.377e-40
-1.36e-39
6.456e-39
-2.085e-38
-2.094e-38
1.024e-36
-1.125e-35
8.979e-35
-5.852e-34
3.362e-33
-1.744e-32
8.044e-32
-3.305e-31
1.262e-30
-3.856e-30
1.083e-29
-1.378e-29
1.315e-29
5.416e-28
-3.301e-28
9.969e-27
1.383e-26
1.671e-25
8.3e-25
1.522e-24
1.07e-23
3.672e-23
8.24e-23
1.598e-22
9.397e-22
2.69e-21
5.964e-21
3.351e-20
8.692e-20
1.646e-19
3.209e-19
1.551e-18
3.6e-18
6.57e-18
1.09e-17
1.716e-17
2.605e-17
3.85e-17
5.57e-17
7.918e-17
1.109e-16
1.533e-16
2.094e-16
2.832e-16
3.794e-16
5.038e-16
6.637e-16
8.68e-16
1.127e-15
1.455e-15
1.865e-15
2.379e-15
3.017e-15
3.807e-15
4.78e-15
5.974e-15
7.433e-15
9.21e-15
1.136e-14
1.397e-14
1.711e-14
2.088e-14
2.539e-14
3.078e-14
3.719e-14
4.48e-14
5.38e-14
6.444e-14
7.695e-14
9.166e-14
1.089e-13
1.29e-13
1.525e-13
1.798e-13
2.116e-13
2.483e-13
2.908e-13
3.396e-13
3.957e-13
4.597e-13
5.325e-13
6.167e-13
-2.208e-70
1.753e-69
-6.093e-69
1.276e-68
-1.7e-68
1.449e-68
-7.283e-69
1.493e-69
5.695e-70
-9.515e-69
6.449e-68
-1.009e-66
1.536e-65
-2.193e-64
2.944e-63
-3.724e-62
4.458e-61
-5.075e-60
5.522e-59
-5.768e-58
5.806e-57
-5.646e-56
5.312e-55
-4.834e-54
4.249e-53
-3.597e-52
2.916e-51
-2.258e-50
1.618e-49
-1.13e-48
7.669e-48
-4.995e-47
3.071e-46
-1.73e-45
8.426e-45
-3.439e-44
-1.716e-45
1.686e-42
-2.25e-41
1.979e-40
-1.556e-39
1.051e-38
-6.305e-38
3.11e-37
-1.292e-36
1.511e-36
2.465e-35
-3.69e-34
3.248e-33
-2.205e-32
1.301e-31
-6.932e-31
3.26e-30
-1.363e-29
5.454e-29
-1.699e-28
5.325e-28
-7.163e-28
1.717e-27
2.43e-26
1.672e-26
4.66e-25
1.15e-24
9.91e-24
3.951e-23
1.004e-22
5.73e-22
1.871e-21
4.179e-21
8.594e-21
4.244e-20
1.139e-19
2.509e-19
1.037e-18
2.481e-18
4.597e-18
7.685e-18
1.231e-17
1.907e-17
2.87e-17
4.214e-17
6.057e-17
8.55e-17
1.188e-16
1.629e-16
2.205e-16
2.953e-16
3.917e-16
5.15e-16
6.718e-16
8.701e-16
1.12e-15
1.432e-15
1.822e-15
2.306e-15
2.904e-15
3.642e-15
4.549e-15
5.658e-15
7.012e-15
8.658e-15
1.065e-14
1.307e-14
1.597e-14
1.946e-14
2.365e-14
2.865e-14
3.461e-14
4.17e-14
5.01e-14
6.004e-14
7.176e-14
8.555e-14
1.018e-13
1.207e-13
1.429e-13
1.688e-13
1.989e-13
2.338e-13
2.743e-13
3.211e-13
3.751e-13
4.373e-13
5.087e-13
5.904e-13
6.839e-13
7.919e-13
9.324e-13
3.172e-69
-2.738e-68
1.178e-67
-3.296e-67
6.29e-67
-8.412e-67
7.833e-67
-4.802e-67
1.617e-67
-5.211e-67
3.189e-66
-4.894e-65
7.414e-64
-1.05e-62
1.395e-61
-1.743e-60
2.058e-59
-2.311e-58
2.48e-57
-2.557e-56
2.543e-55
-2.447e-54
2.28e-53
-2.058e-52
1.797e-51
-1.514e-50
1.224e-49
-9.474e-49
6.829e-48
-4.814e-47
3.303e-46
-2.185e-45
1.375e-44
-8.062e-44
4.109e-43
-2.183e-42
4.144e-42
3.762e-41
-7.286e-40
6.883e-39
-5.798e-38
4.101e-37
-2.611e-36
1.403e-35
-6.421e-35
1.842e-34
-4.918e-35
-7.866e-33
9.157e-32
-6.829e-31
4.234e-30
-2.371e-29
1.151e-28
-4.921e-28
2.125e-27
-6.702e-27
2.427e-26
-2.958e-26
1.405e-25
1.055e-24
2.126e-24
1.983e-23
8.316e-23
5.529e-22
2.04e-21
5.503e-21
2.748e-20
8.318e-20
1.813e-19
3.879e-19
1.422e-18
3.444e-18
6.535e-18
1.131e-17
1.851e-17
2.904e-17
4.406e-17
6.496e-17
9.347e-17
1.317e-16
1.822e-16
2.479e-16
3.324e-16
4.4e-16
5.759e-16
7.463e-16
9.587e-16
1.222e-15
1.547e-15
1.947e-15
2.438e-15
3.038e-15
3.77e-15
4.661e-15
5.743e-15
7.054e-15
8.639e-15
1.055e-14
1.286e-14
1.563e-14
1.895e-14
2.292e-14
2.767e-14
3.332e-14
4.005e-14
4.803e-14
5.748e-14
6.865e-14
8.181e-14
9.731e-14
1.155e-13
1.368e-13
1.617e-13
1.908e-13
2.247e-13
2.64e-13
3.096e-13
3.625e-13
4.235e-13
4.938e-13
5.746e-13
6.674e-13
7.738e-13
8.953e-13
1.034e-12
1.192e-12
1.373e-12
1.628e-12
-4.222e-68
3.851e-67
-1.921e-66
6.606e-66
-1.622e-65
2.916e-65
-3.841e-65
3.566e-65
-2.056e-65
-2.472e-65
1.541e-64
-2.268e-63
3.392e-62
-4.728e-61
6.163e-60
-7.544e-59
8.725e-58
-9.593e-57
1.009e-55
-1.022e-54
9.989e-54
-9.466e-53
8.705e-52
-7.773e-51
6.73e-50
-5.638e-49
4.549e-48
-3.522e-47
2.559e-46
-1.825e-45
1.271e-44
-8.572e-44
5.543e-43
-3.385e-42
1.885e-41
-9.729e-41
3.577e-40
-1.654e-40
-1.569e-38
1.815e-37
-1.769e-36
1.345e-35
-9.3e-35
5.457e-34
-2.774e-33
1.17e-32
-4.285e-32
2.656e-33
1.475e-30
-1.555e-29
1.075e-28
-6.644e-28
3.406e-27
-1.483e-26
7.293e-26
-2.25e-25
9.968e-25
-4.155e-25
9.4e-24
4.498e-23
1.739e-22
1.101e-21
4.73e-21
2.733e-20
9.114e-20
2.532e-19
9.935e-19
2.667e-18
5.625e-18
1.067e-17
1.903e-17
3.231e-17
5.259e-17
8.238e-17
1.247e-16
1.832e-16
2.618e-16
3.651e-16
4.98e-16
6.662e-16
8.761e-16
1.135e-15
1.45e-15
1.833e-15
2.294e-15
2.847e-15
3.508e-15
4.298e-15
5.24e-15
6.362e-15
7.698e-15
9.288e-15
1.118e-14
1.343e-14
1.611e-14
1.928e-14
2.306e-14
2.754e-14
3.286e-14
3.916e-14
4.661e-14
5.542e-14
6.581e-14
7.807e-14
9.25e-14
1.095e-13
1.294e-13
1.527e-13
1.8e-13
2.118e-13
2.489e-13
2.921e-13
3.423e-13
4.004e-13
4.677e-13
5.455e-13
6.351e-13
7.383e-13
8.568e-13
9.927e-13
1.148e-12
1.326e-12
1.528e-12
1.758e-12
2.019e-12
2.315e-12
2.653e-12
3.149e-12
5.372e-67
-5.084e-66
2.826e-65
-1.136e-64
3.387e-64
-7.634e-64
1.303e-63
-1.634e-63
1.323e-63
-1.394e-63
6.077e-63
-9.925e-62
1.462e-60
-1.984e-59
2.51e-58
-2.979e-57
3.34e-56
-3.565e-55
3.647e-54
-3.599e-53
3.44e-52
-3.195e-51
2.889e-50
-2.544e-49
2.179e-48
-1.813e-47
1.459e-46
-1.131e-45
8.311e-45
-6.012e-44
4.26e-43
-2.939e-42
1.959e-41
-1.248e-40
7.489e-40
-4.089e-39
2.04e-38
-6.729e-38
2.345e-38
2.136e-36
-3.846e-35
3.402e-34
-2.682e-33
1.723e-32
-9.796e-32
4.959e-31
-2.674e-30
8.228e-30
-9.669e-30
-1.129e-28
1.618e-27
-1.334e-26
7.996e-26
-3.4e-25
2.169e-24
-5.895e-24
3.58e-23
2.016e-23
5.582e-22
2.582e-21
1.013e-20
5.498e-20
2.317e-19
1.035e-18
3.115e-18
7.388e-18
1.568e-17
3.09e-17
5.728e-17
1.007e-16
1.686e-16
2.703e-16
4.163e-16
6.182e-16
8.878e-16
1.237e-15
1.678e-15
2.221e-15
2.877e-15
3.657e-15
4.572e-15
5.637e-15
6.867e-15
8.282e-15
9.908e-15
1.177e-14
1.392e-14
1.638e-14
1.923e-14
2.251e-14
2.632e-14
3.074e-14
3.589e-14
4.188e-14
4.887e-14
5.704e-14
6.659e-14
7.775e-14
9.081e-14
1.061e-13
1.239e-13
1.448e-13
1.692e-13
1.976e-13
2.308e-13
2.694e-13
3.144e-13
3.666e-13
4.273e-13
4.975e-13
5.789e-13
6.729e-13
7.813e-13
9.063e-13
1.05e-12
1.215e-12
1.404e-12
1.621e-12
1.868e-12
2.151e-12
2.472e-12
2.837e-12
3.251e-12
3.719e-12
4.249e-12
4.845e-12
5.517e-12
6.54e-12
-6.628e-66
6.434e-65
-3.881e-64
1.765e-63
-6.153e-63
1.67e-62
-3.528e-62
5.636e-62
-6.139e-62
-3.236e-62
3.455e-61
-4.271e-60
5.876e-59
-7.636e-58
9.244e-57
-1.049e-55
1.126e-54
-1.153e-53
1.137e-52
-1.085e-51
1.007e-50
-9.115e-50
8.068e-49
-6.983e-48
5.907e-47
-4.875e-46
3.912e-45
-3.042e-44
2.266e-43
-1.666e-42
1.204e-41
-8.515e-41
5.857e-40
-3.893e-39
2.478e-38
-1.49e-37
8.29e-37
-4.043e-36
2.033e-35
-5.408e-35
-2.064e-34
4.751e-33
-5.416e-32
4.055e-31
-2.518e-30
1.539e-29
-8.472e-29
4.037e-28
-1.694e-27
4.503e-27
-2.201e-27
-6.101e-26
7.703e-25
-3.854e-24
5.412e-23
-5.185e-23
1.174e-21
3.297e-21
2.977e-20
1.281e-19
4.761e-19
2.17e-18
6.985e-18
1.796e-17
4.137e-17
8.807e-17
1.752e-16
3.277e-16
5.793e-16
9.716e-16
1.552e-15
2.37e-15
3.474e-15
4.902e-15
6.686e-15
8.843e-15
1.138e-14
1.429e-14
1.757e-14
2.121e-14
2.52e-14
2.956e-14
3.431e-14
3.949e-14
4.515e-14
5.137e-14
5.825e-14
6.589e-14
7.446e-14
8.411e-14
9.503e-14
1.075e-13
1.217e-13
1.38e-13
1.567e-13
1.783e-13
2.032e-13
2.32e-13
2.653e-13
3.038e-13
3.484e-13
4e-13
4.597e-13
5.288e-13
6.087e-13
7.01e-13
8.076e-13
9.305e-13
1.072e-12
1.235e-12
1.422e-12
1.637e-12
1.884e-12
2.167e-12
2.489e-12
2.858e-12
3.279e-12
3.757e-12
4.301e-12
4.918e-12
5.617e-12
6.407e-12
7.298e-12
8.303e-12
9.432e-12
1.07e-11
1.211e-11
1.431e-11
7.974e-65
-7.881e-64
5.064e-63
-2.545e-62
1.012e-61
-3.216e-61
8.178e-61
-1.626e-60
2.323e-60
-3.143e-60
9.269e-60
-1.537e-58
2.131e-57
-2.621e-56
2.978e-55
-3.174e-54
3.211e-53
-3.115e-52
2.925e-51
-2.675e-50
2.393e-49
-2.101e-48
1.812e-47
-1.537e-46
1.281e-45
-1.048e-44
8.39e-44
-6.55e-43
4.96e-42
-3.717e-41
2.746e-40
-1.993e-39
1.415e-38
-9.79e-38
6.563e-37
-4.236e-36
2.607e-35
-1.516e-34
7.84e-34
-4.837e-33
1.628e-32
-2.148e-32
-2.548e-31
3.463e-30
-3.368e-29
2.872e-28
-1.97e-27
1.152e-26
-5.371e-26
2.32e-25
-9.394e-25
4.15e-24
-4.65e-24
2.317e-23
9.36e-22
2.715e-21
3.68e-20
2.026e-19
1.149e-18
4.469e-18
1.393e-17
3.878e-17
9.901e-17
2.337e-16
5.125e-16
1.047e-15
2.003e-15
3.597e-15
6.091e-15
9.763e-15
1.487e-14
2.162e-14
3.011e-14
4.033e-14
5.218e-14
6.542e-14
7.979e-14
9.499e-14
1.107e-13
1.269e-13
1.433e-13
1.599e-13
1.768e-13
1.942e-13
2.123e-13
2.314e-13
2.518e-13
2.739e-13
2.982e-13
3.252e-13
3.553e-13
3.893e-13
4.278e-13
4.716e-13
5.216e-13
5.788e-13
6.443e-13
7.196e-13
8.06e-13
9.052e-13
1.019e-12
1.15e-12
1.301e-12
1.474e-12
1.673e-12
1.9e-12
2.162e-12
2.461e-12
2.804e-12
3.195e-12
3.643e-12
4.154e-12
4.736e-12
5.399e-12
6.152e-12
7.008e-12
7.978e-12
9.076e-12
1.032e-11
1.172e-11
1.33e-11
1.508e-11
1.707e-11
1.931e-11
2.182e-11
2.462e-11
2.77e-11
3.259e-11
-9.349e-64
9.355e-63
-6.324e-62
3.455e-61
-1.537e-60
5.614e-60
-1.684e-59
4.056e-59
-7.278e-59
-9.97e-61
4.813e-58
-5.963e-57
6.89e-56
-7.651e-55
7.933e-54
-7.755e-53
7.249e-52
-6.558e-51
5.796e-50
-5.033e-49
4.31e-48
-3.648e-47
3.055e-46
-2.533e-45
2.077e-44
-1.683e-43
1.344e-42
-1.056e-41
8.153e-41
-6.241e-40
4.723e-39
-3.525e-38
2.587e-37
-1.861e-36
1.308e-35
-8.956e-35
5.944e-34
-3.805e-33
2.337e-32
-1.363e-31
7.349e-31
-3.611e-30
1.657e-29
-5.386e-29
5.345e-29
1.061e-27
-1.145e-26
8.176e-26
-5.685e-25
3.993e-24
-2.299e-23
1.487e-22
-2.541e-22
2.594e-21
2.351e-20
1.873e-19
1.278e-18
5.7e-18
2.062e-17
6.659e-17
1.963e-16
5.312e-16
1.323e-15
3.042e-15
6.471e-15
1.278e-14
2.353e-14
4.053e-14
6.563e-14
1.003e-13
1.455e-13
2.009e-13
2.655e-13
3.371e-13
4.13e-13
4.903e-13
5.662e-13
6.384e-13
7.054e-13
7.667e-13
8.226e-13
8.738e-13
9.214e-13
9.667e-13
1.011e-12
1.057e-12
1.105e-12
1.157e-12
1.215e-12
1.28e-12
1.354e-12
1.439e-12
1.536e-12
1.648e-12
1.777e-12
1.925e-12
2.095e-12
2.29e-12
2.515e-12
2.772e-12
3.066e-12
3.403e-12
3.789e-12
4.23e-12
4.734e-12
5.309e-12
5.964e-12
6.711e-12
7.561e-12
8.527e-12
9.625e-12
1.087e-11
1.228e-11
1.388e-11
1.569e-11
1.774e-11
2.004e-11
2.264e-11
2.556e-11
2.884e-11
3.252e-11
3.664e-11
4.125e-11
4.639e-11
5.211e-11
5.849e-11
6.544e-11
7.662e-11
1.062e-62
-1.071e-61
7.546e-61
-4.426e-60
2.173e-59
-8.994e-59
3.144e-58
-9.173e-58
2.164e-57
-4.555e-57
1.264e-56
-1.493e-55
1.721e-54
-1.728e-53
1.572e-52
-1.363e-51
1.149e-50
-9.52e-50
7.832e-49
-6.405e-48
5.217e-47
-4.236e-46
3.43e-45
-2.771e-44
2.231e-43
-1.788e-42
1.426e-41
-1.129e-40
8.927e-40
-7.012e-39
5.461e-38
-4.212e-37
3.209e-36
-2.411e-35
1.778e-34
-1.288e-33
9.13e-33
-6.313e-32
4.256e-31
-2.767e-30
1.702e-29
-1.009e-28
5.557e-28
-2.917e-27
1.442e-26
-6.446e-26
3.118e-25
-1.145e-24
2.03e-24
4.885e-24
-9.22e-23
1.683e-21
2.105e-21
1.05e-19
9.666e-19
5.161e-18
2.228e-17
8.568e-17
2.993e-16
9.537e-16
2.775e-15
7.385e-15
1.8e-14
4.029e-14
8.3e-14
1.58e-13
2.794e-13
4.605e-13
7.114e-13
1.035e-12
1.425e-12
1.866e-12
2.335e-12
2.806e-12
3.253e-12
3.65e-12
3.988e-12
4.255e-12
4.454e-12
4.596e-12
4.689e-12
4.746e-12
4.777e-12
4.793e-12
4.805e-12
4.822e-12
4.85e-12
4.896e-12
4.966e-12
5.062e-12
5.192e-12
5.36e-12
5.567e-12
5.82e-12
6.124e-12
6.484e-12
6.907e-12
7.4e-12
7.972e-12
8.631e-12
9.389e-12
1.026e-11
1.125e-11
1.238e-11
1.368e-11
1.514e-11
1.681e-11
1.871e-11
2.085e-11
2.328e-11
2.602e-11
2.912e-11
3.262e-11
3.656e-11
4.099e-11
4.598e-11
5.157e-11
5.785e-11
6.487e-11
7.273e-11
8.149e-11
9.127e-11
1.021e-10
1.142e-10
1.276e-10
1.425e-10
1.585e-10
1.846e-10
-1.157e-61
1.172e-60
-8.532e-60
5.32e-59
-2.85e-58
1.321e-57
-5.303e-57
1.82e-56
-5.045e-56
5.823e-56
3.17e-55
-4.007e-54
3.309e-53
-2.492e-52
1.8e-51
-1.324e-50
9.786e-50
-7.329e-49
5.604e-48
-4.31e-47
3.327e-46
-2.576e-45
1.999e-44
-1.561e-43
1.219e-42
-9.564e-42
7.544e-41
-5.96e-40
4.711e-39
-3.717e-38
2.92e-37
-2.289e-36
1.783e-35
-1.377e-34
1.04e-33
-7.778e-33
5.695e-32
-4.081e-31
2.861e-30
-1.933e-29
1.293e-28
-8.294e-28
5.247e-27
-3.209e-26
1.895e-25
-1.079e-24
5.899e-24
-3.097e-23
1.578e-22
-7.146e-22
2.243e-21
2.695e-20
3.17e-19
2.832e-18
1.618e-17
7.648e-17
3.238e-16
1.244e-15
4.337e-15
1.374e-14
3.951e-14
1.033e-13
2.46e-13
5.346e-13
1.064e-12
1.948e-12
3.296e-12
5.185e-12
7.619e-12
1.052e-11
1.373e-11
1.701e-11
2.014e-11
2.284e-11
2.503e-11
2.65e-11
2.738e-11
2.761e-11
2.741e-11
2.69e-11
2.615e-11
2.525e-11
2.43e-11
2.335e-11
2.247e-11
2.168e-11
2.102e-11
2.049e-11
2.011e-11
1.986e-11
1.982e-11
1.991e-11
2.014e-11
2.055e-11
2.114e-11
2.191e-11
2.288e-11
2.405e-11
2.546e-11
2.71e-11
2.902e-11
3.124e-11
3.378e-11
3.67e-11
4.001e-11
4.379e-11
4.807e-11
5.291e-11
5.838e-11
6.455e-11
7.149e-11
7.931e-11
8.809e-11
9.794e-11
1.09e-10
1.213e-10
1.351e-10
1.505e-10
1.677e-10
1.868e-10
2.081e-10
2.317e-10
2.578e-10
2.867e-10
3.186e-10
3.54e-10
3.917e-10
4.535e-10
1.187e-60
-1.203e-59
9.002e-59
-5.916e-58
3.425e-57
-1.762e-56
8.107e-56
-3.356e-55
1.25e-54
-4.171e-54
1.224e-53
-3.063e-53
6.206e-53
-2.225e-52
1.556e-51
-1.845e-50
1.941e-49
-1.781e-48
1.501e-47
-1.186e-46
8.866e-46
-6.305e-45
4.269e-44
-2.741e-43
1.662e-42
-9.243e-42
5.042e-41
-1.901e-40
2.363e-40
5.065e-39
-7.244e-38
6.713e-37
-5.67e-36
4.224e-35
-4.418e-34
2.085e-33
-1.044e-32
3.311e-32
1.103e-31
-3.712e-30
4.526e-29
-4.528e-28
3.895e-27
-3.076e-26
2.29e-25
-1.601e-24
1.07e-23
-6.499e-23
4.753e-22
-1.076e-21
9.185e-20
1.112e-18
7.749e-18
4.472e-17
2.318e-16
1.09e-15
4.649e-15
1.794e-14
6.251e-14
1.966e-13
5.583e-13
1.432e-12
3.322e-12
6.995e-12
1.34e-11
2.351e-11
3.798e-11
5.683e-11
7.921e-11
1.036e-10
1.278e-10
1.494e-10
1.673e-10
1.785e-10
1.847e-10
1.837e-10
1.797e-10
1.724e-10
1.628e-10
1.52e-10
1.408e-10
1.298e-10
1.196e-10
1.103e-10
1.021e-10
9.496e-11
8.894e-11
8.395e-11
7.992e-11
7.677e-11
7.445e-11
7.294e-11
7.196e-11
7.204e-11
7.255e-11
7.372e-11
7.555e-11
7.806e-11
8.127e-11
8.52e-11
8.991e-11
9.545e-11
1.019e-10
1.093e-10
1.178e-10
1.275e-10
1.385e-10
1.509e-10
1.65e-10
1.807e-10
1.984e-10
2.183e-10
2.405e-10
2.654e-10
2.931e-10
3.241e-10
3.585e-10
3.967e-10
4.392e-10
4.863e-10
5.384e-10
5.961e-10
6.597e-10
7.298e-10
8.069e-10
8.919e-10
9.819e-10
1.13e-09
-1.12e-59
1.133e-58
-8.657e-58
5.94e-57
-3.667e-56
2.051e-55
-1.047e-54
4.9e-54
-2.11e-53
8.331e-53
-2.97e-52
9.058e-52
-1.937e-51
-5.459e-51
7.759e-50
-7.426e-49
6.209e-48
-4.866e-47
3.736e-46
-2.775e-45
1.995e-44
-1.386e-43
9.336e-43
-6.119e-42
3.917e-41
-2.491e-40
1.549e-39
-9.685e-39
6.05e-38
-3.63e-37
2.199e-36
-1.271e-35
4.019e-35
1.292e-35
-2.277e-33
3.227e-32
-3.417e-31
3.166e-30
-2.698e-29
2.161e-28
-1.645e-27
1.198e-26
-8.36e-26
5.633e-25
-3.617e-24
2.27e-23
-1.326e-22
8.662e-22
-2.678e-21
1.555e-19
2.072e-18
1.596e-17
1.032e-16
6.008e-16
3.174e-15
1.517e-14
6.54e-14
2.536e-13
8.829e-13
2.756e-12
7.71e-12
1.935e-11
4.365e-11
8.875e-11
1.632e-10
2.734e-10
4.199e-10
5.956e-10
7.849e-10
9.703e-10
1.13e-09
1.243e-09
1.314e-09
1.309e-09
1.276e-09
1.211e-09
1.122e-09
1.021e-09
9.163e-10
8.149e-10
7.209e-10
6.367e-10
5.63e-10
4.996e-10
4.46e-10
4.011e-10
3.64e-10
3.335e-10
3.088e-10
2.891e-10
2.736e-10
2.619e-10
2.534e-10
2.48e-10
2.448e-10
2.451e-10
2.471e-10
2.513e-10
2.577e-10
2.665e-10
2.775e-10
2.91e-10
3.069e-10
3.256e-10
3.472e-10
3.72e-10
4.001e-10
4.32e-10
4.68e-10
5.084e-10
5.537e-10
6.044e-10
6.61e-10
7.241e-10
7.942e-10
8.721e-10
9.586e-10
1.054e-09
1.16e-09
1.277e-09
1.406e-09
1.548e-09
1.704e-09
1.876e-09
2.064e-09
2.27e-09
2.487e-09
2.846e-09
9.573e-59
-9.636e-58
7.478e-57
-5.321e-56
3.474e-55
-2.094e-54
1.174e-53
-6.155e-53
3.039e-52
-1.42e-51
6.303e-51
-2.681e-50
1.116e-49
-4.778e-49
2.306e-48
-1.408e-47
9.915e-47
-7.458e-46
5.782e-45
-4.285e-44
3.016e-43
-2.014e-42
1.276e-41
-7.71e-41
4.43e-40
-2.632e-39
1.46e-38
-9.149e-38
6.569e-37
-5.112e-36
4.165e-35
-3.435e-34
2.808e-33
-2.253e-32
1.766e-31
-1.349e-30
1.005e-29
-7.287e-29
5.15e-28
-3.545e-27
2.377e-26
-1.551e-25
9.86e-25
-6.061e-24
3.698e-23
-2.112e-22
1.308e-21
-4.68e-21
2.163e-19
3.19e-18
2.729e-17
1.982e-16
1.302e-15
7.771e-15
4.194e-14
2.038e-13
8.881e-13
3.46e-12
1.202e-11
3.719e-11
1.024e-10
2.508e-10
5.483e-10
1.073e-09
1.886e-09
3.003e-09
4.37e-09
5.855e-09
7.277e-09
8.508e-09
9.301e-09
9.586e-09
9.423e-09
8.972e-09
8.274e-09
7.426e-09
6.524e-09
5.642e-09
4.825e-09
4.1e-09
3.474e-09
2.947e-09
2.509e-09
2.15e-09
1.857e-09
1.62e-09
1.429e-09
1.275e-09
1.152e-09
1.054e-09
9.762e-10
9.159e-10
8.7e-10
8.363e-10
8.132e-10
7.991e-10
7.945e-10
7.98e-10
8.079e-10
8.249e-10
8.491e-10
8.804e-10
9.19e-10
9.652e-10
1.019e-09
1.082e-09
1.154e-09
1.235e-09
1.327e-09
1.431e-09
1.547e-09
1.676e-09
1.82e-09
1.981e-09
2.159e-09
2.356e-09
2.574e-09
2.814e-09
3.079e-09
3.371e-09
3.692e-09
4.043e-09
4.429e-09
4.851e-09
5.311e-09
5.816e-09
6.343e-09
7.216e-09
-7.118e-58
7.111e-57
-5.579e-56
4.087e-55
-2.794e-54
1.793e-53
-1.086e-52
6.252e-52
-3.441e-51
1.816e-50
-9.175e-50
4.38e-49
-1.906e-48
7.024e-48
-1.489e-47
-1.04e-46
1.669e-45
-1.59e-44
1.302e-43
-9.65e-43
6.647e-42
-4.302e-41
2.616e-40
-1.482e-39
7.479e-39
-4.198e-38
8.72e-38
3.511e-37
-7.129e-36
7.849e-35
-7.085e-34
5.816e-33
-4.507e-32
3.354e-31
-2.42e-30
1.7e-29
-1.167e-28
7.845e-28
-5.163e-27
3.329e-26
-2.103e-25
1.301e-24
-7.859e-24
4.694e-23
-2.599e-22
1.57e-21
-6.047e-21
2.433e-19
3.979e-18
3.786e-17
3.094e-16
2.3e-15
1.556e-14
9.529e-14
5.256e-13
2.597e-12
1.144e-11
4.475e-11
1.55e-10
4.745e-10
1.282e-09
3.06e-09
6.46e-09
1.211e-08
2.026e-08
3.054e-08
4.192e-08
5.289e-08
6.198e-08
6.857e-08
6.876e-08
6.687e-08
6.248e-08
5.623e-08
4.905e-08
4.174e-08
3.486e-08
2.873e-08
2.349e-08
1.914e-08
1.56e-08
1.276e-08
1.05e-08
8.718e-09
7.315e-09
6.212e-09
5.344e-09
4.66e-09
4.121e-09
3.697e-09
3.363e-09
3.101e-09
2.899e-09
2.746e-09
2.633e-09
2.554e-09
2.506e-09
2.484e-09
2.491e-09
2.517e-09
2.565e-09
2.634e-09
2.724e-09
2.836e-09
2.97e-09
3.127e-09
3.308e-09
3.515e-09
3.749e-09
4.013e-09
4.309e-09
4.64e-09
5.007e-09
5.415e-09
5.866e-09
6.364e-09
6.914e-09
7.519e-09
8.184e-09
8.913e-09
9.712e-09
1.059e-08
1.154e-08
1.258e-08
1.371e-08
1.495e-08
1.623e-08
1.836e-08
4.423e-57
-4.375e-56
3.454e-55
-2.584e-54
1.829e-53
-1.23e-52
7.911e-52
-4.917e-51
2.989e-50
-1.804e-49
1.097e-48
-6.88e-48
4.438e-47
-2.825e-46
1.852e-45
-1.259e-44
8.558e-44
-5.778e-43
3.858e-42
-2.542e-41
1.651e-40
-1.058e-39
6.688e-39
-4.179e-38
2.587e-37
-1.591e-36
9.767e-36
-5.995e-35
3.737e-34
-2.312e-33
1.442e-32
-9.034e-32
5.671e-31
-3.562e-30
2.234e-29
-1.397e-28
8.691e-28
-5.368e-27
3.286e-26
-1.99e-25
1.19e-24
-7.016e-24
4.086e-23
-2.273e-22
1.462e-21
-5.943e-21
2.177e-19
3.948e-18
4.177e-17
3.841e-16
3.23e-15
2.481e-14
1.73e-13
1.088e-12
6.129e-12
3.077e-11
1.369e-10
5.375e-10
1.854e-09
5.606e-09
1.484e-08
3.437e-08
6.979e-08
1.248e-07
1.976e-07
2.805e-07
3.619e-07
4.296e-07
4.778e-07
4.762e-07
4.584e-07
4.216e-07
3.717e-07
3.164e-07
2.618e-07
2.12e-07
1.69e-07
1.334e-07
1.047e-07
8.215e-08
6.466e-08
5.122e-08
4.094e-08
3.309e-08
2.708e-08
2.248e-08
1.894e-08
1.621e-08
1.408e-08
1.243e-08
1.113e-08
1.013e-08
9.344e-09
8.741e-09
8.286e-09
7.953e-09
7.723e-09
7.582e-09
7.518e-09
7.543e-09
7.622e-09
7.763e-09
7.966e-09
8.23e-09
8.556e-09
8.945e-09
9.399e-09
9.922e-09
1.052e-08
1.119e-08
1.194e-08
1.278e-08
1.371e-08
1.475e-08
1.589e-08
1.715e-08
1.853e-08
2.005e-08
2.172e-08
2.354e-08
2.553e-08
2.771e-08
3.007e-08
3.264e-08
3.542e-08
3.846e-08
4.158e-08
4.678e-08
-2.156e-56
2.17e-55
-1.735e-54
1.317e-53
-9.471e-53
6.448e-52
-4.141e-51
2.49e-50
-1.383e-49
6.872e-49
-2.896e-48
7.537e-49
6.391e-47
-6.959e-46
7.059e-45
-6.02e-44
4.64e-43
-3.351e-42
2.305e-41
-1.526e-40
9.771e-40
-6.064e-39
3.649e-38
-2.124e-37
1.188e-36
-6.317e-36
3.11e-35
-1.374e-34
6.701e-34
-1.398e-33
-4.203e-33
9.701e-32
-1.013e-30
8.615e-30
-6.631e-29
4.801e-28
-3.329e-27
2.233e-26
-1.457e-25
9.281e-25
-5.781e-24
3.53e-23
-2.096e-22
1.288e-21
-4.679e-21
1.503e-19
3.063e-18
3.607e-17
3.724e-16
3.534e-15
3.078e-14
2.443e-13
1.754e-12
1.132e-11
6.51e-11
3.318e-10
1.489e-09
5.856e-09
2.007e-08
5.981e-08
1.546e-07
3.461e-07
6.728e-07
1.141e-06
1.701e-06
2.262e-06
2.742e-06
3.089e-06
3.077e-06
2.947e-06
2.683e-06
2.331e-06
1.946e-06
1.574e-06
1.241e-06
9.613e-07
7.352e-07
5.585e-07
4.234e-07
3.217e-07
2.458e-07
1.896e-07
1.479e-07
1.169e-07
9.382e-08
7.648e-08
6.339e-08
5.342e-08
4.578e-08
3.989e-08
3.533e-08
3.178e-08
2.903e-08
2.69e-08
2.528e-08
2.406e-08
2.317e-08
2.258e-08
2.222e-08
2.212e-08
2.222e-08
2.248e-08
2.292e-08
2.354e-08
2.432e-08
2.527e-08
2.64e-08
2.772e-08
2.921e-08
3.091e-08
3.282e-08
3.494e-08
3.73e-08
3.992e-08
4.28e-08
4.597e-08
4.946e-08
5.327e-08
5.743e-08
6.198e-08
6.693e-08
7.231e-08
7.815e-08
8.448e-08
9.131e-08
9.874e-08
1.063e-07
1.19e-07
1.349e-55
-1.21e-54
9.195e-54
-7.081e-53
5.465e-52
-4.2e-51
3.194e-50
-2.392e-49
1.758e-48
-1.267e-47
8.946e-47
-6.196e-46
4.216e-45
-2.821e-44
1.86e-43
-1.211e-42
7.793e-42
-4.963e-41
3.134e-40
-1.963e-39
1.221e-38
-7.554e-38
4.647e-37
-2.845e-36
1.734e-35
-1.052e-34
6.356e-34
-3.823e-33
2.289e-32
-1.364e-31
8.086e-31
-4.772e-30
2.802e-29
-1.637e-28
9.508e-28
-5.492e-27
3.153e-26
-1.798e-25
1.018e-24
-5.722e-24
3.19e-23
-1.754e-22
9.871e-22
-4.447e-21
5.848e-20
1.778e-18
2.4e-17
2.78e-16
2.966e-15
2.917e-14
2.628e-13
2.152e-12
1.589e-11
1.049e-10
6.15e-10
3.175e-09
1.434e-08
5.627e-08
1.91e-07
5.587e-07
1.403e-06
3.022e-06
5.594e-06
8.953e-06
1.249e-05
1.549e-05
1.793e-05
1.792e-05
1.719e-05
1.56e-05
1.344e-05
1.108e-05
8.814e-06
6.818e-06
5.162e-06
3.85e-06
2.845e-06
2.094e-06
1.543e-06
1.142e-06
8.528e-07
6.441e-07
4.931e-07
3.834e-07
3.031e-07
2.438e-07
1.996e-07
1.664e-07
1.412e-07
1.22e-07
1.071e-07
9.566e-08
8.676e-08
7.987e-08
7.457e-08
7.055e-08
6.758e-08
6.548e-08
6.416e-08
6.333e-08
6.341e-08
6.386e-08
6.478e-08
6.618e-08
6.805e-08
7.038e-08
7.318e-08
7.645e-08
8.022e-08
8.448e-08
8.929e-08
9.465e-08
1.006e-07
1.072e-07
1.144e-07
1.224e-07
1.311e-07
1.406e-07
1.51e-07
1.623e-07
1.745e-07
1.878e-07
2.022e-07
2.177e-07
2.344e-07
2.524e-07
2.709e-07
3.014e-07
5.218e-55
-5.058e-54
4.027e-53
-3.132e-52
2.366e-51
-1.736e-50
1.238e-49
-8.61e-49
5.848e-48
-3.892e-47
2.545e-46
-1.64e-45
1.044e-44
-6.577e-44
4.112e-43
-2.555e-42
1.58e-41
-9.728e-41
5.975e-40
-3.662e-39
2.243e-38
-1.373e-37
8.408e-37
-5.156e-36
3.169e-35
-1.954e-34
1.208e-33
-7.44e-33
4.569e-32
-2.798e-31
1.708e-30
-1.04e-29
6.309e-29
-3.818e-28
2.303e-27
-1.385e-26
8.297e-26
-4.953e-25
2.946e-24
-1.744e-23
1.029e-22
-5.959e-22
3.761e-21
-1.516e-20
5.17e-19
1.18e-17
1.583e-16
1.89e-15
2.087e-14
2.123e-13
1.973e-12
1.663e-11
1.259e-10
8.482e-10
5.044e-09
2.625e-08
1.186e-07
4.621e-07
1.543e-06
4.402e-06
1.067e-05
2.196e-05
3.849e-05
5.774e-05
7.496e-05
8.791e-05
9.119e-05
8.776e-05
7.975e-05
6.858e-05
5.629e-05
4.445e-05
3.402e-05
2.541e-05
1.864e-05
1.351e-05
9.724e-06
6.991e-06
5.042e-06
3.663e-06
2.69e-06
2.002e-06
1.514e-06
1.164e-06
9.111e-07
7.268e-07
5.907e-07
4.893e-07
4.129e-07
3.548e-07
3.102e-07
2.758e-07
2.491e-07
2.285e-07
2.125e-07
2.004e-07
1.913e-07
1.847e-07
1.803e-07
1.775e-07
1.768e-07
1.775e-07
1.795e-07
1.827e-07
1.872e-07
1.929e-07
1.998e-07
2.079e-07
2.174e-07
2.281e-07
2.401e-07
2.536e-07
2.685e-07
2.85e-07
3.031e-07
3.23e-07
3.447e-07
3.683e-07
3.94e-07
4.218e-07
4.52e-07
4.845e-07
5.195e-07
5.572e-07
5.976e-07
6.411e-07
6.852e-07
7.58e-07
-8.612e-55
8.494e-54
-6.838e-53
5.339e-52
-4.027e-51
2.936e-50
-2.071e-49
1.416e-48
-9.393e-48
6.063e-47
-3.818e-46
2.353e-45
-1.425e-44
8.509e-44
-5.035e-43
2.967e-42
-1.75e-41
1.038e-40
-6.217e-40
3.773e-39
-2.324e-38
1.453e-37
-9.21e-37
5.908e-36
-3.827e-35
2.498e-34
-1.63e-33
1.051e-32
-6.708e-32
4.248e-31
-2.671e-30
1.669e-29
-1.038e-28
6.419e-28
-3.955e-27
2.428e-26
-1.486e-25
9.072e-25
-5.525e-24
3.361e-23
-2.027e-22
1.297e-21
-4.375e-21
1.912e-19
4.728e-18
6.92e-17
9.126e-16
1.122e-14
1.279e-13
1.34e-12
1.282e-11
1.107e-10
8.552e-10
5.851e-09
3.51e-08
1.828e-07
8.195e-07
3.137e-06
1.02e-05
2.807e-05
6.498e-05
0.0001268
0.0002086
0.0002911
0.0003543
0.0003826
0.0003715
0.000341
0.0002958
0.0002443
0.0001937
0.0001485
0.0001108
8.086e-05
5.81e-05
4.132e-05
2.926e-05
2.072e-05
1.475e-05
1.06e-05
7.707e-06
5.691e-06
4.273e-06
3.268e-06
2.548e-06
2.026e-06
1.642e-06
1.357e-06
1.144e-06
9.812e-07
8.569e-07
7.611e-07
6.869e-07
6.293e-07
5.847e-07
5.506e-07
5.249e-07
5.061e-07
4.931e-07
4.852e-07
4.815e-07
4.828e-07
4.871e-07
4.947e-07
5.055e-07
5.196e-07
5.368e-07
5.571e-07
5.807e-07
6.074e-07
6.376e-07
6.712e-07
7.085e-07
7.496e-07
7.946e-07
8.438e-07
8.973e-07
9.554e-07
1.018e-06
1.086e-06
1.16e-06
1.238e-06
1.323e-06
1.413e-06
1.509e-06
1.612e-06
1.716e-06
1.886e-06
3.427e-54
-3.184e-53
2.468e-52
-1.906e-51
1.455e-50
-1.095e-49
8.113e-49
-5.903e-48
4.216e-47
-2.955e-46
2.032e-45
-1.372e-44
9.105e-44
-5.943e-43
3.82e-42
-2.422e-41
1.516e-40
-9.388e-40
5.754e-39
-3.496e-38
2.108e-37
-1.263e-36
7.519e-36
-4.456e-35
2.63e-34
-1.546e-33
9.057e-33
-5.282e-32
3.071e-31
-1.78e-30
1.03e-29
-5.954e-29
3.439e-28
-1.986e-27
1.147e-26
-6.637e-26
3.846e-25
-2.234e-24
1.302e-23
-7.593e-23
4.594e-22
-2.02e-21
4.22e-20
1.419e-18
2.31e-17
3.348e-16
4.542e-15
5.75e-14
6.742e-13
7.258e-12
7.106e-11
6.262e-10
4.911e-09
3.389e-08
2.034e-07
1.051e-06
4.612e-06
1.71e-05
5.331e-05
0.0001391
0.0003035
0.0005555
0.0008467
0.001095
0.001251
0.001233
0.001155
0.001022
0.0008609
0.0006957
0.0005425
0.0004105
0.0003028
0.000219
0.000156
0.0001101
7.744e-05
5.452e-05
3.863e-05
2.765e-05
2.006e-05
1.479e-05
1.11e-05
8.497e-06
6.632e-06
5.281e-06
4.29e-06
3.555e-06
3.002e-06
2.582e-06
2.26e-06
2.012e-06
1.819e-06
1.669e-06
1.553e-06
1.464e-06
1.397e-06
1.347e-06
1.313e-06
1.292e-06
1.281e-06
1.284e-06
1.295e-06
1.313e-06
1.34e-06
1.375e-06
1.418e-06
1.469e-06
1.528e-06
1.595e-06
1.67e-06
1.754e-06
1.846e-06
1.947e-06
2.058e-06
2.178e-06
2.309e-06
2.449e-06
2.601e-06
2.764e-06
2.939e-06
3.125e-06
3.324e-06
3.535e-06
3.759e-06
3.997e-06
4.235e-06
4.623e-06
5.116e-54
-5.068e-53
4.125e-52
-3.281e-51
2.538e-50
-1.908e-49
1.395e-48
-9.933e-48
6.891e-47
-4.667e-46
3.092e-45
-2.009e-44
1.283e-43
-8.077e-43
5.024e-42
-3.096e-41
1.895e-40
-1.154e-39
7.012e-39
-4.254e-38
2.581e-37
-1.568e-36
9.537e-36
-5.815e-35
3.554e-34
-2.179e-33
1.337e-32
-8.173e-32
4.974e-31
-3.017e-30
1.826e-29
-1.103e-28
6.664e-28
-4.028e-27
2.438e-26
-1.479e-25
9.008e-25
-5.508e-24
3.389e-23
-2.085e-22
1.369e-21
-4.834e-21
2.088e-19
5.758e-18
9.409e-17
1.397e-15
1.946e-14
2.528e-13
3.037e-12
3.344e-11
3.338e-10
2.985e-09
2.362e-08
1.632e-07
9.718e-07
4.916e-06
2.081e-05
7.341e-05
0.0002149
0.0005219
0.001057
0.001791
0.002485
0.002982
0.003069
0.002949
0.002691
0.002347
0.001965
0.001588
0.001242
0.0009433
0.0006987
0.000507
0.0003624
0.0002566
0.0001809
0.0001277
9.079e-05
6.524e-05
4.755e-05
3.525e-05
2.661e-05
2.049e-05
1.61e-05
1.291e-05
1.055e-05
8.802e-06
7.479e-06
6.472e-06