/*--------------------------------*- C++ -*----------------------------------*\
  =========                 |
  \\      /  F ield         | OpenFOAM: The Open Source CFD Toolbox
   \\    /   O peration     | Website:  https://openfoam.org
    \\  /    A nd           | Version:  7
     \\/     M anipulation  |
\*---------------------------------------------------------------------------*/
FoamFile
{
    version     2.0;
    format      ascii;
    class       volScalarField;
    location    "25000";
    object      p;
}
// * * * * * * * * * * * * * * * * * * * * * * * * * * * * * * * * * * * * * //

dimensions      [1 -1 -2 0 0 0 0];

internalField   nonuniform List<scalar> 
3200
(
100.456
100.523
100.663
100.901
101.282
101.903
104.857
283.364
440.093
585.001
721.915
852.698
978.447
1099.88
1217.51
1331.71
1442.79
1550.97
1656.44
1759.37
1859.89
1958.12
2054.16
2148.1
2240.01
2326.49
2401.8
2462.53
2510.96
2551.87
2588.08
2621.18
2652.08
2681.22
2708.72
2734.47
2758.09
2778.86
2795.56
2806.33
97.8639
97.9055
97.9865
98.1012
98.2314
98.321
98.2094
97.7648
97.4042
97.1105
96.8619
96.6452
96.4519
96.2765
96.1149
95.9642
95.8223
95.6872
95.5575
95.4318
95.3093
95.1891
95.0709
94.9555
94.8445
94.1518
93.5387
93.3042
107.24
128.62
153.837
180.966
209.017
237.538
266.425
295.839
326.2
358.221
392.462
427.594
95.1842
95.2012
95.2302
95.2607
95.274
95.2405
95.1241
94.9206
94.6982
94.4826
94.2813
94.0951
93.9228
93.7625
93.6124
93.471
93.3366
93.2081
93.0841
92.9635
92.8449
92.7265
92.6058
92.4785
92.3366
92.1755
92.0751
92.122
92.1439
92.1502
92.1462
92.1351
92.1186
92.0975
92.0721
92.042
92.0067
91.9645
91.8601
91.672
92.4688
92.4702
92.4693
92.4591
92.4297
92.3697
92.2711
92.1372
91.9841
91.8245
91.6659
91.5121
91.3646
91.2238
91.0894
90.9611
90.8382
90.7201
90.6061
90.4957
90.3883
90.2835
90.1812
90.0817
89.9871
89.9028
89.8397
89.8026
89.7766
89.755
89.7348
89.7147
89.6941
89.6729
89.6511
89.6288
89.6063
89.5838
89.5621
89.4078
89.7504
89.744
89.7294
89.703
89.6607
89.5984
89.5147
89.4119
89.2956
89.1717
89.0447
88.9179
88.7931
88.6716
88.5538
88.44
88.3301
88.2241
88.1219
88.0234
87.9287
87.8378
87.7514
87.6701
87.5954
87.5289
87.4723
87.4258
87.387
87.354
87.3251
87.2992
87.2759
87.2549
87.2364
87.2206
87.2082
87.2001
87.1976
87.0159
87.0456
87.0361
87.0165
86.9856
86.9417
86.8838
86.812
86.7279
86.6342
86.5339
86.4298
86.3241
86.2185
86.114
86.0116
85.9118
85.8147
85.7208
85.6301
85.5429
85.4594
85.3799
85.3047
85.2343
85.1694
85.1103
85.0573
85.0104
84.9689
84.9322
84.8996
84.8707
84.8452
84.823
84.8043
84.7894
84.779
84.7738
84.782
84.5565
84.3607
84.3505
84.3303
84.2997
84.2584
84.2066
84.1447
84.0739
83.9958
83.9124
83.8252
83.7359
83.6458
83.5559
83.467
83.3796
83.2942
83.2113
83.131
83.0536
82.9794
82.9087
82.8417
82.7787
82.7199
82.6655
82.6154
82.5696
82.5278
82.4898
82.4552
82.4239
82.3956
82.3702
82.3477
82.328
82.3111
82.2973
82.2863
82.0337
81.6971
81.6873
81.6682
81.6399
81.6027
81.5569
81.5033
81.4428
81.3765
81.3057
81.2316
81.1552
81.0777
80.9999
80.9223
80.8457
80.7705
80.697
80.6257
80.5566
80.4902
80.4266
80.366
80.3085
80.2542
80.2032
80.1555
80.111
80.0695
80.0309
79.9949
79.9614
79.9302
79.901
79.8737
79.8479
79.8234
79.7997
79.7762
79.5193
79.0539
79.045
79.0277
79.0022
78.9692
78.929
78.8824
78.8302
78.7731
78.7122
78.6484
78.5824
78.5151
78.4472
78.3793
78.3118
78.2451
78.1798
78.116
78.054
77.994
77.9361
77.8807
77.8276
77.777
77.7289
77.6833
77.64
77.599
77.5602
77.5234
77.4883
77.4549
77.4229
77.3921
77.3622
77.3328
77.3036
77.2743
77.0262
76.4295
76.4216
76.4061
76.3835
76.3543
76.3191
76.2784
76.2329
76.1834
76.1305
76.0749
76.0174
75.9584
75.8987
75.8387
75.7789
75.7195
75.661
75.6036
75.5475
75.4929
75.4399
75.3887
75.3394
75.2919
75.2463
75.2026
75.1606
75.1204
75.0818
75.0447
75.0089
74.9743
74.9408
74.9081
74.876
74.8444
74.8131
74.7818
74.5465
73.8219
73.8148
73.8011
73.7811
73.7554
73.7244
73.6887
73.6489
73.6055
73.5591
73.5103
73.4597
73.4077
73.3548
73.3014
73.2479
73.1947
73.1419
73.0899
73.0388
72.9888
72.94
72.8925
72.8464
72.8017
72.7584
72.7165
72.6759
72.6367
72.5986
72.5617
72.5259
72.491
72.4569
72.4235
72.3907
72.3584
72.3264
72.2948
72.0728
71.2291
71.2228
71.2107
71.193
71.1703
71.1429
71.1115
71.0763
71.038
70.9971
70.9539
70.909
70.8627
70.8155
70.7677
70.7196
70.6715
70.6236
70.5762
70.5294
70.4833
70.4381
70.3939
70.3506
70.3084
70.2672
70.2271
70.188
70.1498
70.1127
70.0764
70.041
70.0063
69.9723
69.9389
69.9061
69.8738
69.8419
69.8104
69.6016
68.6496
68.644
68.6332
68.6175
68.5973
68.5731
68.5452
68.514
68.4799
68.4435
68.405
68.3649
68.3234
68.281
68.2378
68.1943
68.1506
68.1069
68.0634
68.0203
67.9777
67.9356
67.8942
67.8535
67.8135
67.7743
67.736
67.6983
67.6615
67.6254
67.5899
67.5552
67.5211
67.4875
67.4545
67.422
67.3901
67.3585
67.3274
67.1313
66.0817
66.0767
66.0671
66.0531
66.0352
66.0135
65.9886
65.9608
65.9303
65.8977
65.8631
65.827
65.7896
65.7512
65.7121
65.6724
65.6325
65.5924
65.5523
65.5124
65.4727
65.4334
65.3946
65.3562
65.3183
65.281
65.2443
65.2082
65.1726
65.1376
65.1032
65.0693
65.0359
65.003
64.9706
64.9387
64.9072
64.8761
64.8454
64.6615
63.5243
63.5199
63.5113
63.4987
63.4826
63.4632
63.4409
63.4158
63.3885
63.359
63.3278
63.2951
63.2612
63.2262
63.1905
63.1542
63.1174
63.0805
63.0433
63.0062
62.9692
62.9324
62.8958
62.8596
62.8237
62.7882
62.7531
62.7184
62.6841
62.6503
62.6169
62.5839
62.5514
62.5193
62.4875
62.4562
62.4252
62.3947
62.3644
62.1924
60.9763
60.9723
60.9645
60.9533
60.9387
60.9213
60.9011
60.8785
60.8537
60.827
60.7986
60.7689
60.7379
60.7059
60.6731
60.6397
60.6058
60.5715
60.537
60.5024
60.4677
60.4332
60.3987
60.3644
60.3303
60.2964
60.2628
60.2295
60.1966
60.1639
60.1316
60.0996
60.0679
60.0366
60.0056
59.9749
59.9445
59.9145
59.8848
59.7242
58.4367
58.433
58.426
58.4158
58.4027
58.3869
58.3685
58.348
58.3255
58.3011
58.2753
58.248
58.2196
58.1902
58.16
58.1291
58.0976
58.0658
58.0336
58.0012
57.9687
57.9361
57.9035
57.871
57.8386
57.8063
57.7742
57.7422
57.7105
57.679
57.6477
57.6167
57.586
57.5554
57.5252
57.4952
57.4654
57.436
57.4067
57.2572
55.9046
55.9014
55.895
55.8857
55.8738
55.8594
55.8427
55.8239
55.8033
55.7811
55.7573
55.7323
55.7061
55.679
55.651
55.6223
55.5931
55.5634
55.5333
55.5029
55.4723
55.4416
55.4107
55.3799
55.349
55.3182
55.2875
55.2569
55.2264
55.196
55.1658
55.1357
55.1059
55.0762
55.0467
55.0174
54.9883
54.9594
54.9307
54.7919
53.3795
53.3765
53.3707
53.3623
53.3514
53.3382
53.3229
53.3057
53.2868
53.2664
53.2445
53.2214
53.1973
53.1721
53.1462
53.1195
53.0922
53.0644
53.0362
53.0077
52.9788
52.9498
52.9206
52.8913
52.862
52.8326
52.8032
52.7738
52.7445
52.7152
52.686
52.657
52.628
52.5992
52.5705
52.5419
52.5135
52.4852
52.4571
52.3289
50.8607
50.858
50.8527
50.8449
50.8349
50.8228
50.8088
50.793
50.7756
50.7568
50.7366
50.7152
50.6928
50.6695
50.6454
50.6205
50.595
50.569
50.5425
50.5157
50.4885
50.461
50.4334
50.4056
50.3776
50.3496
50.3214
50.2933
50.2651
50.237
50.2088
50.1808
50.1527
50.1247
50.0969
50.0691
50.0413
50.0138
49.9862
49.8685
48.3477
48.3452
48.3403
48.3332
48.324
48.3129
48.3
48.2854
48.2694
48.2519
48.2333
48.2135
48.1927
48.171
48.1485
48.1253
48.1014
48.0771
48.0522
48.0269
48.0013
47.9754
47.9492
47.9227
47.8962
47.8694
47.8426
47.8156
47.7886
47.7615
47.7344
47.7073
47.6802
47.6531
47.6261
47.599
47.5721
47.5452
47.5183
47.4106
45.8399
45.8376
45.8331
45.8266
45.8181
45.8079
45.796
45.7826
45.7677
45.7516
45.7343
45.716
45.6966
45.6764
45.6555
45.6338
45.6115
45.5886
45.5653
45.5415
45.5173
45.4928
45.4681
45.443
45.4177
45.3923
45.3667
45.3409
45.315
45.289
45.263
45.2369
45.2107
45.1845
45.1583
45.1321
45.1059
45.0797
45.0535
44.9555
43.337
43.3349
43.3308
43.3248
43.317
43.3075
43.2965
43.2841
43.2704
43.2555
43.2395
43.2224
43.2045
43.1857
43.1661
43.1459
43.1251
43.1037
43.0818
43.0594
43.0367
43.0136
42.9901
42.9664
42.9425
42.9183
42.8939
42.8693
42.8446
42.8197
42.7947
42.7697
42.7445
42.7192
42.6939
42.6685
42.6431
42.6177
42.5922
42.5035
40.8386
40.8367
40.8329
40.8273
40.8201
40.8114
40.8013
40.7898
40.7772
40.7634
40.7485
40.7327
40.716
40.6986
40.6804
40.6615
40.6421
40.622
40.6015
40.5806
40.5592
40.5375
40.5154
40.493
40.4704
40.4475
40.4243
40.401
40.3774
40.3537
40.3298
40.3058
40.2816
40.2574
40.233
40.2085
40.1839
40.1593
40.1345
40.0548
38.3443
38.3425
38.339
38.3339
38.3273
38.3193
38.3099
38.2994
38.2877
38.2749
38.2612
38.2466
38.2311
38.2149
38.198
38.1805
38.1624
38.1437
38.1246
38.105
38.085
38.0646
38.0439
38.0228
38.0015
37.9799
37.958
37.936
37.9136
37.8911
37.8684
37.8455
37.8224
37.7991
37.7757
37.7522
37.7285
37.7048
37.6808
37.6098
35.8538
35.8522
35.849
35.8443
35.8382
35.8308
35.8222
35.8125
35.8017
35.79
35.7773
35.7638
35.7495
35.7345
35.7189
35.7026
35.6858
35.6685
35.6507
35.6325
35.6139
35.5949
35.5755
35.5558
35.5359
35.5156
35.4951
35.4743
35.4533
35.432
35.4105
35.3888
35.3669
35.3448
35.3224
35.2999
35.2772
35.2544
35.2313
35.1686
33.3668
33.3653
33.3624
33.3581
33.3525
33.3457
33.3378
33.3289
33.319
33.3082
33.2966
33.2842
33.271
33.2572
33.2428
33.2278
33.2123
33.1963
33.1799
33.163
33.1458
33.1281
33.1102
33.0919
33.0734
33.0545
33.0354
33.016
32.9963
32.9764
32.9563
32.9359
32.9152
32.8944
32.8732
32.8519
32.8302
32.8084
32.7863
32.7317
30.883
30.8816
30.8789
30.875
30.8699
30.8637
30.8565
30.8484
30.8393
30.8295
30.8188
30.8075
30.7954
30.7828
30.7696
30.7558
30.7416
30.7269
30.7118
30.6963
30.6805
30.6643
30.6478
30.631
30.6139
30.5965
30.5789
30.561
30.5428
30.5244
30.5057
30.4868
30.4676
30.4481
30.4284
30.4083
30.3879
30.3673
30.3463
30.2995
28.4021
28.4008
28.3984
28.3948
28.3902
28.3846
28.378
28.3706
28.3624
28.3534
28.3438
28.3334
28.3225
28.311
28.299
28.2865
28.2735
28.2602
28.2464
28.2323
28.2179
28.2031
28.1881
28.1728
28.1572
28.1414
28.1254
28.1091
28.0925
28.0758
28.0588
28.0415
28.024
28.0061
27.988
27.9696
27.9508
27.9315
27.9119
27.8729
25.9238
25.9227
25.9205
25.9172
25.9131
25.908
25.9021
25.8954
25.888
25.8799
25.8712
25.8619
25.852
25.8416
25.8308
25.8195
25.8078
25.7958
25.7834
25.7707
25.7577
25.7444
25.7309
25.7171
25.7032
25.689
25.6746
25.6601
25.6453
25.6304
25.6152
25.5998
25.5842
25.5684
25.5523
25.5358
25.519
25.5018
25.484
25.4525
23.4479
23.4469
23.4449
23.442
23.4383
23.4338
23.4285
23.4225
23.4159
23.4087
23.4009
23.3925
23.3837
23.3744
23.3647
23.3547
23.3442
23.3335
23.3225
23.3111
23.2996
23.2878
23.2759
23.2637
23.2514
23.2389
23.2263
23.2135
23.2007
23.1877
23.1746
23.1613
23.148
23.1345
23.1208
23.1069
23.0927
23.0782
23.0633
23.0388
20.9741
20.9732
20.9715
20.9689
20.9656
20.9616
20.957
20.9517
20.9458
20.9394
20.9325
20.9251
20.9173
20.9092
20.9006
20.8917
20.8825
20.8731
20.8634
20.8535
20.8434
20.8331
20.8226
20.8121
20.8014
20.7906
20.7798
20.7689
20.758
20.747
20.7361
20.7251
20.7142
20.7033
20.6925
20.6817
20.6709
20.6602
20.6496
20.6317
18.5022
18.5015
18.4999
18.4977
18.4948
18.4913
18.4873
18.4826
18.4775
18.4719
18.4659
18.4595
18.4527
18.4456
18.4381
18.4304
18.4225
18.4143
18.4059
18.3973
18.3886
18.3798
18.3708
18.3618
18.3528
18.3437
18.3346
18.3255
18.3165
18.3076
18.2987
18.29
18.2815
18.2732
18.2651
18.2574
18.2501
18.2432
18.237
18.2265
16.032
16.0313
16.03
16.0281
16.0256
16.0226
16.0191
16.0152
16.0108
16.006
16.0008
15.9953
15.9895
15.9834
15.9771
15.9705
15.9637
15.9568
15.9496
15.9424
15.935
15.9276
15.9201
15.9126
15.9051
15.8976
15.8902
15.8828
15.8755
15.8684
15.8615
15.8548
15.8484
15.8423
15.8365
15.8313
15.8266
15.8225
15.8192
15.8168
13.5632
13.5626
13.5615
13.5599
13.5579
13.5553
13.5524
13.5491
13.5454
13.5414
13.5371
13.5325
13.5276
13.5225
13.5172
13.5117
13.5061
13.5003
13.4944
13.4884
13.4824
13.4763
13.4702
13.464
13.458
13.4519
13.446
13.4401
13.4344
13.4289
13.4236
13.4186
13.4138
13.4094
13.4054
13.4018
13.3988
13.3963
13.3944
13.3932
11.0956
11.0951
11.0942
11.0929
11.0912
11.0892
11.0868
11.0841
11.0811
11.0779
11.0744
11.0706
11.0667
11.0626
11.0583
11.0539
11.0494
11.0447
11.04
11.0352
11.0304
11.0255
11.0207
11.0158
11.0111
11.0064
11.0018
10.9973
10.9929
10.9888
10.9848
10.9811
10.9776
10.9745
10.9716
10.9692
10.9671
10.9655
10.9643
10.9635
8.62888
8.62853
8.62784
8.62684
8.62553
8.62395
8.62212
8.62004
8.61773
8.61522
8.61252
8.60965
8.60662
8.60346
8.60017
8.59678
8.5933
8.58974
8.58613
8.58248
8.57881
8.57513
8.57147
8.56783
8.56425
8.56074
8.55731
8.554
8.55082
8.54779
8.54494
8.54227
8.53983
8.53762
8.53567
8.53398
8.53258
8.53147
8.53066
8.53015
6.16296
6.16271
6.16222
6.1615
6.16058
6.15946
6.15815
6.15667
6.15504
6.15325
6.15134
6.1493
6.14716
6.14492
6.14259
6.14019
6.13773
6.13523
6.13268
6.13012
6.12754
6.12497
6.12241
6.11988
6.1174
6.11497
6.11261
6.11034
6.10817
6.10612
6.10419
6.10241
6.10078
6.09932
6.09803
6.09693
6.09602
6.0953
6.09477
6.09443
3.69756
3.69741
3.69712
3.69669
3.69614
3.69547
3.69469
3.6938
3.69283
3.69176
3.69062
3.6894
3.68812
3.68679
3.6854
3.68397
3.68251
3.68102
3.67951
3.67799
3.67646
3.67494
3.67343
3.67194
3.67048
3.66905
3.66767
3.66635
3.66509
3.6639
3.66279
3.66176
3.66083
3.65999
3.65926
3.65863
3.65811
3.65771
3.65741
3.65722
1.23249
1.23244
1.23234
1.2322
1.23201
1.23179
1.23153
1.23124
1.23091
1.23056
1.23018
1.22977
1.22935
1.2289
1.22844
1.22797
1.22748
1.22699
1.22649
1.22598
1.22548
1.22497
1.22447
1.22398
1.2235
1.22303
1.22258
1.22214
1.22173
1.22134
1.22097
1.22064
1.22033
1.22006
1.21982
1.21962
1.21945
1.21932
1.21923
1.21916
2808.4
2801.66
2788.73
2771.67
2751.82
2730.04
2706.82
2682.42
2656.93
2630.25
2602.07
2571.72
2537.96
2498.48
2449.03
2383.58
2302.9
2211.74
2118.74
2023.97
1927.4
1828.97
1728.64
1626.34
1522.02
1415.61
1307.03
1196.19
1082.97
967.241
848.829
727.499
602.917
474.558
341.498
201.799
103.767
102.738
102.255
102.044
429.845
398.666
367.053
338.134
311.102
285.11
259.637
234.391
209.263
184.321
159.861
136.538
115.648
99.6724
93.3433
93.3836
94.1728
94.4455
94.6246
94.7946
94.9588
95.1199
95.2803
95.4422
95.6076
95.7784
95.9569
96.1454
96.347
96.5653
96.8052
97.0737
97.3808
97.7423
98.1843
98.7493
99.2289
99.2732
99.2029
99.147
91.3853
91.4754
91.5367
91.5806
91.6197
91.6546
91.686
91.7137
91.7374
91.7564
91.7693
91.7736
91.7655
91.7388
91.6822
91.7332
91.8977
92.0642
92.2222
92.3753
92.5261
92.6764
92.8277
92.9815
93.1392
93.3024
93.4725
93.6515
93.8414
94.0447
94.2641
94.5028
94.7642
95.0505
95.3591
95.6725
95.9292
96.0643
96.1175
96.1324
89.0591
89.112
89.1397
89.1694
89.1997
89.2299
89.2594
89.2879
89.3152
89.341
89.3655
89.3888
89.4123
89.4386
89.4749
89.5366
89.6271
89.7351
89.8532
89.9776
90.1065
90.2393
90.3758
90.5165
90.6617
90.8124
90.9692
91.1333
91.3056
91.4871
91.679
91.8815
92.0942
92.3145
92.5357
92.7446
92.9196
93.0427
93.1159
93.1492
86.6602
86.7072
86.7313
86.7573
86.7848
86.8135
86.8431
86.8735
86.9047
86.9369
86.9704
87.0061
87.0453
87.0898
87.1424
87.2061
87.2821
87.3693
87.4659
87.5701
87.6806
87.7967
87.9178
88.0438
88.1746
88.3104
88.4515
88.5982
88.7507
88.9091
89.0732
89.2421
89.4142
89.5862
89.7527
89.906
90.0366
90.1366
90.2029
90.2359
84.2406
84.2874
84.3115
84.3375
84.3651
84.3943
84.4251
84.4576
84.4917
84.5278
84.5663
84.6078
84.653
84.703
84.7587
84.8212
84.8911
84.9684
85.0528
85.1436
85.2404
85.3426
85.4497
85.5616
85.678
85.7988
85.9239
86.053
86.1861
86.3226
86.4618
86.6025
86.7428
86.8798
87.0099
87.1281
87.2294
87.3091
87.3639
87.392
81.8045
81.8552
81.8811
81.9085
81.9374
81.9679
82.0001
82.0342
82.0701
82.1084
82.1491
82.1927
82.2397
82.2906
82.3459
82.406
82.4713
82.542
82.618
82.6991
82.7852
82.8759
82.9711
83.0703
83.1734
83.2801
83.39
83.5029
83.6183
83.7354
83.8534
83.971
84.0865
84.1976
84.3018
84.3957
84.4761
84.5398
84.5842
84.6072
79.3614
79.4154
79.443
79.4718
79.502
79.5336
79.5669
79.6019
79.6388
79.6779
79.7193
79.7632
79.8101
79.8601
79.9136
79.9709
80.032
80.0973
80.1666
80.24
80.3174
80.3985
80.4833
80.5714
80.6626
80.7567
80.8531
80.9515
81.0513
81.1518
81.2521
81.351
81.447
81.5386
81.6235
81.6997
81.7646
81.8161
81.852
81.8707
76.9149
76.9706
76.9992
77.0289
77.0598
77.0921
77.1259
77.1613
77.1985
77.2375
77.2787
77.322
77.3678
77.4162
77.4674
77.5216
77.5789
77.6393
77.7029
77.7698
77.8397
77.9127
77.9885
78.067
78.1478
78.2308
78.3154
78.4012
78.4877
78.5742
78.6598
78.7436
78.8243
78.9006
78.9709
79.0335
79.0867
79.1289
79.1582
79.1735
74.4653
74.5214
74.5505
74.5806
74.6119
74.6444
74.6783
74.7136
74.7505
74.789
74.8293
74.8716
74.9158
74.9623
75.011
75.0621
75.1157
75.1717
75.2303
75.2914
75.3549
75.4208
75.4889
75.559
75.6308
75.7042
75.7786
75.8537
75.9289
76.0036
76.0772
76.1486
76.2171
76.2813
76.3402
76.3924
76.4366
76.4715
76.4958
76.5085
72.0126
72.0683
72.0975
72.1277
72.159
72.1914
72.225
72.2599
72.2961
72.3338
72.3731
72.4139
72.4565
72.5008
72.547
72.5951
72.6452
72.6973
72.7513
72.8073
72.8653
72.9249
72.9863
73.0491
73.1132
73.1783
73.244
73.31
73.3757
73.4407
73.5042
73.5656
73.6241
73.6788
73.7286
73.7727
73.8098
73.8391
73.8594
73.8699
69.5568
69.6117
69.6409
69.671
69.702
69.7341
69.7672
69.8015
69.8369
69.8736
69.9115
69.9509
69.9916
70.0338
70.0776
70.1228
70.1697
70.2181
70.2681
70.3196
70.3725
70.4268
70.4823
70.5388
70.5962
70.6542
70.7125
70.7707
70.8284
70.8852
70.9405
70.9937
71.0441
71.0911
71.1337
71.1712
71.2027
71.2275
71.2447
71.2536
67.0984
67.1523
67.1813
67.2112
67.2418
67.2734
67.3059
67.3394
67.3739
67.4094
67.446
67.4838
67.5227
67.5629
67.6043
67.6469
67.6907
67.7358
67.7821
67.8296
67.8781
67.9276
67.978
68.0291
68.0807
68.1327
68.1846
68.2363
68.2873
68.3372
68.3856
68.432
68.4758
68.5165
68.5532
68.5855
68.6125
68.6337
68.6484
68.6561
64.6381
64.6908
64.7196
64.749
64.7793
64.8102
64.842
64.8746
64.9081
64.9425
64.9778
65.014
65.0512
65.0893
65.1285
65.1686
65.2097
65.2517
65.2947
65.3386
65.3832
65.4286
65.4745
65.5209
65.5675
65.6142
65.6607
65.7068
65.7521
65.7963
65.839
65.8798
65.9181
65.9535
65.9855
66.0135
66.0369
66.0552
66.0679
66.0745
62.1766
62.2279
62.2563
62.2854
62.3151
62.3454
62.3764
62.4081
62.4406
62.4738
62.5077
62.5424
62.5779
62.6142
62.6512
62.689
62.7276
62.7669
62.8069
62.8476
62.8887
62.9304
62.9724
63.0147
63.057
63.0992
63.1411
63.1824
63.2229
63.2622
63.3001
63.3361
63.3699
63.4011
63.4291
63.4536
63.474
63.49
63.501
63.5067
59.7145
59.7643
59.7923
59.8209
59.85
59.8796
59.9098
59.9406
59.972
60.0041
60.0367
60.0699
60.1038
60.1383
60.1734
60.2091
60.2454
60.2822
60.3195
60.3572
60.3953
60.4337
60.4723
60.511
60.5495
60.5878
60.6257
60.663
60.6993
60.7346
60.7684
60.8004
60.8304
60.858
60.8827
60.9043
60.9223
60.9363
60.946
60.951
57.2523
57.3005
57.3281
57.3561
57.3846
57.4135
57.4429
57.4728
57.5032
57.5341
57.5655
57.5974
57.6297
57.6625
57.6958
57.7295
57.7637
57.7982
57.8331
57.8682
57.9036
57.9391
57.9746
58.0101
58.0453
58.0803
58.1147
58.1484
58.1813
58.213
58.2433
58.272
58.2988
58.3233
58.3453
58.3645
58.3804
58.3928
58.4013
58.4058
54.7905
54.837
54.8641
54.8916
54.9195
54.9477
54.9764
55.0054
55.0348
55.0645
55.0947
55.1252
55.1561
55.1874
55.219
55.2509
55.2831
55.3155
55.3481
55.3809
55.4138
55.4467
55.4796
55.5122
55.5446
55.5766
55.608
55.6386
55.6684
55.6971
55.7245
55.7503
55.7743
55.7963
55.816
55.8331
55.8472
55.8583
55.8659
55.8698
52.3295
52.3744
52.4011
52.428
52.4553
52.4828
52.5107
52.5388
52.5672
52.5959
52.6249
52.6541
52.6837
52.7134
52.7434
52.7736
52.804
52.8345
52.8651
52.8958
52.9264
52.957
52.9874
53.0175
53.0474
53.0767
53.1054
53.1335
53.1606
53.1866
53.2114
53.2348
53.2564
53.2762
53.2939
53.3092
53.322
53.3318
53.3387
53.3422
49.8701
49.9132
49.9394
49.9659
49.9925
50.0193
50.0463
50.0736
50.101
50.1287
50.1565
50.1845
50.2127
50.2411
50.2695
50.2981
50.3268
50.3555
50.3843
50.4129
50.4416
50.47
50.4982
50.5261
50.5536
50.5806
50.607
50.6327
50.6575
50.6812
50.7038
50.7249
50.7446
50.7625
50.7784
50.7923
50.8037
50.8126
50.8187
50.8219
47.413
47.4542
47.4799
47.5057
47.5316
47.5577
47.5838
47.6102
47.6366
47.6632
47.6899
47.7168
47.7437
47.7706
47.7977
47.8247
47.8518
47.8788
47.9058
47.9327
47.9594
47.9859
48.0121
48.038
48.0634
48.0883
48.1126
48.1362
48.1589
48.1806
48.2011
48.2204
48.2383
48.2545
48.269
48.2815
48.2918
48.2999
48.3054
48.3083
44.9585
44.9978
45.0228
45.0479
45.073
45.0983
45.1236
45.149
45.1745
45.2
45.2256
45.2512
45.2768
45.3024
45.3281
45.3536
45.3792
45.4046
45.43
45.4551
45.4801
45.5048
45.5291
45.5531
45.5767
45.5997
45.622
45.6437
45.6645
45.6844
45.7032
45.7208
45.7371
45.7519
45.765
45.7764
45.7857
45.793
45.798
45.8006
42.5069
42.5442
42.5685
42.5928
42.6171
42.6415
42.6659
42.6903
42.7148
42.7392
42.7636
42.788
42.8124
42.8367
42.8609
42.8851
42.9091
42.933
42.9568
42.9803
43.0036
43.0266
43.0493
43.0715
43.0933
43.1145
43.1352
43.1551
43.1742
43.1924
43.2097
43.2258
43.2406
43.2541
43.266
43.2764
43.2849
43.2915
43.2961
43.2984
40.0586
40.0937
40.1172
40.1407
40.1642
40.1876
40.2111
40.2345
40.2578
40.2811
40.3043
40.3275
40.3506
40.3736
40.3964
40.4192
40.4417
40.4642
40.4864
40.5083
40.53
40.5514
40.5724
40.5931
40.6132
40.6328
40.6518
40.6701
40.6877
40.7044
40.7202
40.7349
40.7485
40.7608
40.7717
40.7811
40.7888
40.7948
40.799
40.8011
37.6138
37.6466
37.6693
37.6919
37.7144
37.7369
37.7592
37.7815
37.8038
37.8259
37.8479
37.8698
37.8915
37.9132
37.9346
37.9559
37.9771
37.998
38.0187
38.0392
38.0593
38.0791
38.0986
38.1177
38.1362
38.1543
38.1718
38.1886
38.2048
38.2201
38.2345
38.248
38.2603
38.2716
38.2815
38.2901
38.2971
38.3026
38.3063
38.3083
35.1727
35.2032
35.2249
35.2465
35.268
35.2894
35.3107
35.3318
35.3528
35.3737
35.3944
35.4149
35.4353
35.4556
35.4756
35.4955
35.5151
35.5346
35.5538
35.5727
35.5914
35.6097
35.6276
35.6452
35.6623
35.6789
35.695
35.7104
35.7251
35.7391
35.7523
35.7646
35.7759
35.7861
35.7952
35.803
35.8094
35.8144
35.8178
35.8195
32.7356
32.7635
32.7843
32.8049
32.8253
32.8455
32.8656
32.8854
32.9051
32.9246
32.9439
32.963
32.982
33.0008
33.0193
33.0377
33.0559
33.0738
33.0915
33.109
33.1261
33.143
33.1594
33.1755
33.1912
33.2064
33.2211
33.2352
33.2486
33.2614
33.2734
33.2846
33.2949
33.3041
33.3124
33.3194
33.3253
33.3298
33.3329
33.3345
30.3033
30.3284
30.3481
30.3675
30.3866
30.4055
30.4241
30.4425
30.4607
30.4787
30.4964
30.514
30.5315
30.5487
30.5657
30.5826
30.5992
30.6156
30.6318
30.6478
30.6634
30.6788
30.6938
30.7085
30.7227
30.7366
30.7499
30.7627
30.775
30.7866
30.7975
30.8076
30.8169
30.8253
30.8328
30.8392
30.8444
30.8485
30.8513
30.8528
27.8765
27.8986
27.9168
27.9346
27.9521
27.9693
27.9863
28.003
28.0195
28.0358
28.0519
28.0679
28.0836
28.0992
28.1147
28.1299
28.145
28.1598
28.1745
28.1889
28.2031
28.217
28.2306
28.2438
28.2567
28.2692
28.2813
28.2929
28.3039
28.3144
28.3242
28.3334
28.3418
28.3494
28.3561
28.3618
28.3666
28.3703
28.3728
28.3741
25.4556
25.4744
25.4907
25.5065
25.522
25.5372
25.5522
25.5669
25.5815
25.5959
25.6102
25.6243
25.6383
25.6521
25.6659
25.6795
25.6929
25.7062
25.7193
25.7322
25.7448
25.7573
25.7695
25.7814
25.7929
25.8042
25.815
25.8254
25.8353
25.8447
25.8535
25.8617
25.8692
25.876
25.882
25.8872
25.8914
25.8947
25.897
25.8981
23.0412
23.0562
23.0698
23.0829
23.0958
23.1086
23.1212
23.1337
23.1461
23.1584
23.1707
23.1829
23.195
23.207
23.219
23.2309
23.2427
23.2544
23.2659
23.2773
23.2885
23.2995
23.3103
23.3209
23.3312
23.3411
23.3507
23.3599
23.3688
23.3771
23.3849
23.3922
23.3989
23.4049
23.4103
23.4149
23.4187
23.4216
23.4236
23.4246
20.6331
20.6437
20.6533
20.663
20.6727
20.6826
20.6925
20.7025
20.7125
20.7226
20.7328
20.743
20.7532
20.7635
20.7737
20.7839
20.794
20.8041
20.8141
20.824
20.8338
20.8434
20.8529
20.8621
20.8711
20.8798
20.8883
20.8964
20.9041
20.9115
20.9184
20.9248
20.9306
20.936
20.9407
20.9447
20.948
20.9506
20.9524
20.9533
18.2257
18.2318
18.2376
18.2437
18.2503
18.2572
18.2644
18.272
18.2797
18.2877
18.2958
18.3041
18.3124
18.3209
18.3294
18.338
18.3465
18.3551
18.3636
18.3721
18.3805
18.3887
18.3968
18.4048
18.4126
18.4201
18.4274
18.4345
18.4412
18.4475
18.4535
18.4591
18.4642
18.4688
18.4729
18.4764
18.4793
18.4815
18.4831
18.4838
15.8161
15.8171
15.8192
15.8223
15.8261
15.8305
15.8355
15.8408
15.8465
15.8525
15.8588
15.8653
15.872
15.8788
15.8857
15.8927
15.8998
15.9069
15.914
15.9211
15.9281
15.9351
15.942
15.9487
15.9553
15.9617
15.9679
15.9739
15.9796
15.985
15.9902
15.9949
15.9993
16.0032
16.0067
16.0097
16.0122
16.0141
16.0154
16.0161
13.3927
13.393
13.3941
13.3957
13.398
13.4009
13.4042
13.4079
13.4121
13.4165
13.4212
13.4262
13.4314
13.4368
13.4422
13.4479
13.4535
13.4593
13.4651
13.4709
13.4766
13.4824
13.488
13.4936
13.4991
13.5044
13.5095
13.5145
13.5193
13.5238
13.5281
13.532
13.5357
13.539
13.5419
13.5444
13.5464
13.548
13.5491
13.5497
10.9632
10.9633
10.9639
10.9649
10.9664
10.9682
10.9705
10.9731
10.976
10.9793
10.9828
10.9865
10.9904
10.9945
10.9987
11.003
11.0075
11.012
11.0166
11.0211
11.0257
11.0303
11.0348
11.0393
11.0437
11.0479
11.0521
11.0561
11.0599
11.0636
11.067
11.0702
11.0732
11.0758
11.0782
11.0802
11.0819
11.0832
11.0841
11.0845
8.52992
8.52998
8.53033
8.53099
8.53194
8.53318
8.53471
8.5365
8.53854
8.54082
8.5433
8.54597
8.54882
8.55181
8.55493
8.55815
8.56147
8.56485
8.56828
8.57175
8.57522
8.57869
8.58214
8.58555
8.5889
8.59217
8.59536
8.59843
8.60138
8.60419
8.60683
8.6093
8.61157
8.61362
8.61543
8.617
8.61829
8.61928
8.61997
8.62032
6.09428
6.09431
6.09452
6.09493
6.09553
6.09633
6.09732
6.09849
6.09983
6.10134
6.103
6.1048
6.10672
6.10876
6.1109
6.11312
6.11541
6.11776
6.12015
6.12256
6.12499
6.12743
6.12985
6.13224
6.1346
6.13692
6.13916
6.14134
6.14342
6.14541
6.14728
6.14903
6.15064
6.15209
6.15338
6.15449
6.1554
6.15611
6.1566
6.15685
3.65713
3.65714
3.65726
3.65748
3.65782
3.65826
3.65882
3.65948
3.66025
3.66111
3.66206
3.6631
3.66421
3.6654
3.66664
3.66794
3.66928
3.67066
3.67207
3.6735
3.67493
3.67638
3.67781
3.67923
3.68064
3.68201
3.68335
3.68465
3.68589
3.68707
3.68819
3.68923
3.69019
3.69106
3.69183
3.69249
3.69304
3.69346
3.69375
3.6939
1.21913
1.21914
1.21917
1.21925
1.21935
1.2195
1.21968
1.21989
1.22014
1.22042
1.22073
1.22107
1.22143
1.22182
1.22223
1.22266
1.2231
1.22356
1.22402
1.22449
1.22497
1.22545
1.22592
1.22639
1.22686
1.22731
1.22776
1.22819
1.2286
1.229
1.22937
1.22971
1.23003
1.23032
1.23058
1.2308
1.23098
1.23112
1.23122
1.23126
)
;

boundaryField
{
    top
    {
        type            fixedValue;
        value           uniform 0;
    }
    inlet
    {
        type            darcyGradPressure;
        gradient        nonuniform List<scalar> 
80
(
9.81
9.81
9.81
9.81
9.81
9.81
11.0891
8712.43
9580.24
9705.44
9750.53
9772.01
9783.86
9791.05
9795.7
9798.86
9801.1
9802.74
9803.97
9804.91
9805.65
9806.24
9806.72
9807.11
9807.44
9807.71
9807.91
9808.06
9808.19
9808.3
9808.39
9808.48
9808.55
9808.62
9808.68
9808.73
9808.79
9808.84
9808.9
9808.96
9809.7
9809.67
9809.65
9809.63
9809.62
9809.6
9809.58
9809.56
9809.54
9809.51
9809.48
9809.45
9809.41
9809.37
9809.32
9809.26
9809.18
9809.06
9808.93
9808.77
9808.58
9808.34
9808.03
9807.64
9807.13
9806.43
9805.48
9804.13
9802.14
9799.06
9794.02
9785.07
9767.15
9723.64
9561.54
5037.41
9.81971
9.81
9.81
9.81
)
;
        value           nonuniform List<scalar> 
80
(
101.682
101.749
101.889
102.127
102.508
103.13
106.244
1372.42
1637.62
1798.18
1940.73
2074.2
2201.43
2323.76
2441.97
2556.57
2667.93
2776.31
2881.94
2984.99
3085.6
3183.9
3280
3373.99
3465.94
3552.45
3627.79
3688.54
3736.99
3777.91
3814.13
3847.24
3878.15
3907.29
3934.8
3960.56
3984.19
4004.96
4021.67
4032.45
4034.61
4027.87
4014.94
3997.87
3978.03
3956.24
3933.01
3908.62
3883.12
3856.44
3828.25
3797.9
3764.14
3724.65
3675.19
3609.73
3529.04
3437.87
3344.85
3250.07
3153.47
3055.01
2954.64
2852.3
2747.92
2641.42
2532.72
2421.7
2308.24
2192.12
2073.08
1950.63
1823.81
1690.01
1536.69
831.476
104.994
103.964
103.481
103.27
)
;
    }
    axis
    {
        type            darcyGradPressure;
        gradient        uniform -0;
        value           nonuniform List<scalar> 
80
(
100.456
97.8639
95.1842
92.4688
89.7504
87.0456
84.3607
81.6971
79.0539
76.4295
73.8219
71.2291
68.6496
66.0817
63.5243
60.9763
58.4367
55.9046
53.3795
50.8607
48.3477
45.8399
43.337
40.8386
38.3443
35.8538
33.3668
30.883
28.4021
25.9238
23.4479
20.9741
18.5022
16.032
13.5632
11.0956
8.62888
6.16296
3.69756
1.23249
102.044
99.147
96.1324
93.1492
90.2359
87.392
84.6072
81.8707
79.1735
76.5085
73.8699
71.2536
68.6561
66.0745
63.5067
60.951
58.4058
55.8698
53.3422
50.8219
48.3083
45.8006
43.2984
40.8011
38.3083
35.8195
33.3345
30.8528
28.3741
25.8981
23.4246
20.9533
18.4838
16.0161
13.5497
11.0845
8.62032
6.15685
3.6939
1.23126
)
;
    }
    frontAndBack
    {
        type            empty;
    }
}


// ************************************************************************* //
