/*--------------------------------*- C++ -*----------------------------------*\
  =========                 |
  \\      /  F ield         | OpenFOAM: The Open Source CFD Toolbox
   \\    /   O peration     | Website:  https://openfoam.org
    \\  /    A nd           | Version:  7
     \\/     M anipulation  |
\*---------------------------------------------------------------------------*/
FoamFile
{
    version     2.0;
    format      ascii;
    class       surfaceScalarField;
    location    "25000";
    object      phi;
}
// * * * * * * * * * * * * * * * * * * * * * * * * * * * * * * * * * * * * * //

dimensions      [0 3 -1 0 0 0 0];

internalField   nonuniform List<scalar> 
6280
(
-5.47356e-07
5.47356e-07
-1.1805e-06
6.33143e-07
-2.02837e-06
8.47876e-07
-3.31715e-06
1.28877e-06
-5.49989e-06
2.18275e-06
-9.55052e-06
4.05062e-06
-1.48513e-05
5.30082e-06
-1.5495e-05
6.43708e-07
-1.57821e-05
2.87077e-07
-1.59803e-05
1.98176e-07
-1.61298e-05
1.49519e-07
-1.62477e-05
1.17893e-07
-1.63434e-05
9.57063e-08
-1.64228e-05
7.94038e-08
-1.64899e-05
6.70434e-08
-1.65473e-05
5.74389e-08
-1.65971e-05
4.9813e-08
-1.66408e-05
4.36565e-08
-1.66794e-05
3.86088e-08
-1.67138e-05
3.44108e-08
-1.67447e-05
3.08773e-08
-1.67725e-05
2.78751e-08
-1.67978e-05
2.52989e-08
-1.68209e-05
2.30696e-08
-1.61895e-05
-6.31444e-07
-1.44065e-05
-1.783e-06
-1.18622e-05
-2.5443e-06
-9.65578e-06
-2.20639e-06
-8.32408e-06
-1.33169e-06
-7.516e-06
-8.08081e-07
-7.01105e-06
-5.04952e-07
-6.6735e-06
-3.37553e-07
-6.41619e-06
-2.5731e-07
-6.17601e-06
-2.40176e-07
-5.89662e-06
-2.79396e-07
-5.51414e-06
-3.82476e-07
-4.94243e-06
-5.7171e-07
-4.05402e-06
-8.88406e-07
-2.66669e-06
-1.38733e-06
-2.08463e-06
-5.82064e-07
-3.42957e-07
8.90313e-07
-6.79171e-07
9.69356e-07
-9.80098e-07
1.1488e-06
-1.1328e-06
1.44147e-06
-7.92881e-07
1.84283e-06
1.00606e-06
2.25168e-06
4.07822e-06
2.22866e-06
3.36676e-06
1.35517e-06
2.79215e-06
8.61682e-07
2.40488e-06
5.8545e-07
2.13419e-06
4.20205e-07
1.93757e-06
3.14518e-07
1.79056e-06
2.42713e-07
1.6787e-06
1.91263e-07
1.59312e-06
1.52627e-07
1.5282e-06
1.22362e-07
1.48027e-06
9.77339e-08
1.44689e-06
7.70383e-08
1.42619e-06
5.93085e-08
1.41631e-06
4.42934e-08
1.41445e-06
3.27375e-08
1.4152e-06
2.71267e-08
1.4072e-06
3.32951e-08
1.36705e-06
6.32261e-08
7.24001e-07
1.16005e-08
1.37472e-07
-1.19647e-06
3.4268e-08
-2.4411e-06
-2.17164e-06
-4.78801e-10
-3.50635e-06
3.01854e-09
-4.32012e-06
5.68242e-09
-4.8324e-06
7.32848e-09
-5.17817e-06
8.21395e-09
-5.44406e-06
8.58522e-09
-5.69285e-06
8.61393e-09
-5.98065e-06
8.40193e-09
-6.37112e-06
7.99062e-09
-6.95018e-06
7.35818e-09
-7.72334e-06
-1.1525e-07
-8.24223e-06
-8.68442e-07
-9.70087e-06
-6.25986e-07
-1.40063e-07
1.03038e-06
-2.4301e-07
1.0723e-06
-2.60508e-07
1.1663e-06
-1.15903e-07
1.29687e-06
2.96792e-07
1.43013e-06
1.04864e-06
1.49984e-06
1.86663e-06
1.41066e-06
2.07673e-06
1.14507e-06
2.0491e-06
8.89315e-07
1.94793e-06
6.86623e-07
1.83383e-06
5.34304e-07
1.72773e-06
4.20616e-07
1.63577e-06
3.3467e-07
1.5588e-06
2.68239e-07
1.49597e-06
2.15456e-07
1.44616e-06
1.72172e-07
1.4085e-06
1.35388e-07
1.38272e-06
1.02822e-07
1.36945e-06
7.25733e-08
1.37096e-06
4.27853e-08
1.3925e-06
1.12019e-08
1.44523e-06
-2.56032e-08
1.55226e-06
-7.37369e-08
1.76056e-06
-1.45072e-07
2.03566e-06
-2.635e-07
1.29104e-06
-4.5185e-07
-6.14054e-07
-5.36005e-07
-2.91687e-07
-3.22846e-07
-8.55553e-08
-2.03113e-07
5.43545e-08
-1.34227e-07
1.56108e-07
-9.44252e-08
2.36678e-07
-7.23558e-08
3.07382e-07
-6.21192e-08
3.76849e-07
-6.08527e-08
4.52817e-07
-6.75665e-08
5.43441e-07
-8.2633e-08
6.58458e-07
-1.07659e-07
6.8883e-07
-1.45622e-07
6.26038e-07
-8.0565e-07
-9.20237e-06
1.27535e-07
-1.13816e-08
1.04176e-06
7.53095e-09
1.05339e-06
8.70025e-08
1.08683e-06
2.56094e-07
1.12778e-06
5.31107e-07
1.15512e-06
8.88085e-07
1.14286e-06
1.2284e-06
1.07035e-06
1.42959e-06
9.43876e-07
1.51675e-06
8.02156e-07
1.53435e-06
6.69023e-07
1.51515e-06
5.53511e-07
1.47903e-06
4.56733e-07
1.43714e-06
3.76563e-07
1.3954e-06
3.09975e-07
1.35685e-06
2.54007e-07
1.32295e-06
2.06074e-07
1.29434e-06
1.63992e-07
1.27126e-06
1.25903e-07
1.25367e-06
9.0165e-08
1.24122e-06
5.52311e-08
1.23287e-06
1.95563e-08
1.22571e-06
-1.84408e-08
1.2122e-06
-6.02276e-08
1.17364e-06
-1.06515e-07
1.06553e-06
-1.55387e-07
8.1124e-07
-1.97564e-07
4.85445e-07
-2.10209e-07
3.46111e-07
-1.83512e-07
2.92892e-07
-1.49894e-07
2.7915e-07
-1.20485e-07
2.83071e-07
-9.83456e-08
2.94455e-07
-8.37403e-08
3.08533e-07
-7.61969e-08
3.22956e-07
-7.52756e-08
3.36216e-07
-8.08269e-08
3.46631e-07
-9.30481e-08
3.51421e-07
-1.12449e-07
3.45534e-07
-1.39736e-07
5.90719e-07
-1.05083e-06
-8.81155e-06
1.999e-07
5.28431e-08
9.88914e-07
1.22929e-07
9.83305e-07
2.25196e-07
9.84563e-07
3.68592e-07
9.84381e-07
5.51077e-07
9.72635e-07
7.54078e-07
9.39859e-07
9.43098e-07
8.81329e-07
1.08596e-06
8.01009e-07
1.17803e-06
7.10095e-07
1.22843e-06
6.18622e-07
1.24918e-06
5.32757e-07
1.25063e-06
4.55281e-07
1.24041e-06
3.8679e-07
1.22367e-06
3.26708e-07
1.20374e-06
2.73941e-07
1.18258e-06
2.27238e-07
1.16119e-06
1.85373e-07
1.13988e-06
1.47222e-07
1.11824e-06
1.118e-07
1.09519e-06
7.82856e-08
1.06868e-06
4.60612e-08
1.03543e-06
1.48107e-08
9.90518e-07
-1.53155e-08
9.27446e-07
-4.34435e-08
8.39745e-07
-6.76848e-08
7.2725e-07
-8.50693e-08
6.09549e-07
-9.25084e-08
5.16037e-07
-9.00001e-08
4.48013e-07
-8.18701e-08
3.99344e-07
-7.18172e-08
3.63164e-07
-6.2165e-08
3.33577e-07
-5.4153e-08
3.05721e-07
-4.83408e-08
2.75351e-07
-4.49059e-08
2.38348e-07
-4.38243e-08
1.90266e-07
-4.49658e-08
1.25959e-07
-4.81413e-08
3.9352e-08
-5.31288e-08
5.98709e-07
-1.61019e-06
-8.42752e-06
2.14678e-07
7.8142e-08
9.10772e-07
1.64165e-07
8.97282e-07
2.64664e-07
8.84065e-07
3.81922e-07
8.67123e-07
5.12456e-07
8.421e-07
6.46689e-07
8.05627e-07
7.71324e-07
7.56694e-07
8.74988e-07
6.97344e-07
9.53262e-07
6.31822e-07
1.00732e-06
5.64563e-07
1.04109e-06
4.98989e-07
1.05914e-06
4.37229e-07
1.06562e-06
3.80311e-07
1.06383e-06
3.28494e-07
1.0562e-06
2.8157e-07
1.04436e-06
2.39085e-07
1.02924e-06
2.00494e-07
1.01121e-06
1.65251e-07
9.90125e-07
1.32883e-07
9.6538e-07
1.0303e-07
9.35949e-07
7.54923e-08
9.00488e-07
5.02723e-08
8.57563e-07
2.76087e-08
8.06133e-07
7.98729e-09
7.46362e-07
-7.91448e-09
6.80696e-07
-1.9403e-08
6.14291e-07
-2.61036e-08
5.52638e-07
-2.83466e-08
4.9791e-07
-2.71422e-08
4.49705e-07
-2.36126e-08
4.06199e-07
-1.86594e-08
3.64898e-07
-1.28513e-08
3.22978e-07
-6.42092e-09
2.77362e-07
7.09713e-10
2.24623e-07
8.91461e-09
1.60779e-07
1.88789e-08
8.09843e-08
3.16531e-08
-2.0897e-08
4.87525e-08
5.83265e-07
-2.21435e-06
-8.04508e-06
2.00832e-07
8.36118e-08
8.27161e-07
1.69912e-07
8.10982e-07
2.61517e-07
7.92459e-07
3.58694e-07
7.69946e-07
4.59026e-07
7.41768e-07
5.57805e-07
7.06848e-07
6.49322e-07
6.65176e-07
7.28745e-07
6.17921e-07
7.93497e-07
5.6707e-07
8.43252e-07
5.14808e-07
8.79206e-07
4.63035e-07
9.03287e-07
4.13148e-07
9.17576e-07
3.66023e-07
9.23965e-07
3.22105e-07
9.24004e-07
2.81531e-07
9.18852e-07
2.44237e-07
9.09288e-07
2.10058e-07
8.95749e-07
1.78789e-07
8.78388e-07
1.50244e-07
8.57132e-07
1.24285e-07
8.31775e-07
1.0085e-07
8.02087e-07
7.99601e-08
7.67976e-07
6.172e-08
7.29671e-07
4.62916e-08
6.87911e-07
3.38461e-08
6.44014e-07
2.44939e-08
5.99703e-07
1.8207e-08
5.56581e-07
1.47757e-08
5.15592e-07
1.38467e-08
4.76949e-07
1.50303e-08
4.40291e-07
1.79984e-08
4.04895e-07
2.25452e-08
3.69857e-07
2.86172e-08
3.34243e-07
3.63235e-08
2.97218e-07
4.59395e-08
2.58188e-07
5.79092e-08
2.16992e-07
7.28491e-08
1.74201e-07
9.15433e-08
5.31539e-07
-2.57169e-06
-7.66728e-06
1.53739e-07
8.0169e-08
7.46992e-07
1.6051e-07
7.30641e-07
2.41848e-07
7.11121e-07
3.23869e-07
6.87926e-07
4.05067e-07
6.6057e-07
4.83046e-07
6.28869e-07
5.5511e-07
5.93112e-07
6.1896e-07
5.54071e-07
6.73174e-07
5.12856e-07
7.17302e-07
4.7068e-07
7.51673e-07
4.28665e-07
7.77103e-07
3.87718e-07
7.94627e-07
3.48498e-07
8.05303e-07
3.11429e-07
8.1009e-07
2.76744e-07
8.09785e-07
2.44542e-07
8.05008e-07
2.14835e-07
7.96212e-07
1.87586e-07
7.8371e-07
1.62746e-07
7.67723e-07
1.40273e-07
7.4843e-07
1.20142e-07
7.26036e-07
1.02354e-07
7.00832e-07
8.69242e-08
6.73251e-07
7.38725e-08
6.43896e-07
6.32013e-08
6.13515e-07
5.48756e-08
5.82915e-07
4.88064e-08
5.52841e-07
4.48499e-08
5.23864e-07
4.28234e-08
4.96361e-07
4.25339e-08
4.70554e-07
4.38054e-08
4.46601e-07
4.64979e-08
4.24704e-07
5.05141e-08
4.05234e-07
5.57939e-08
3.88875e-07
6.22986e-08
3.76802e-07
6.99821e-08
3.70904e-07
7.87473e-08
3.74073e-07
8.83735e-08
4.8799e-07
-2.68561e-06
-7.29123e-06
1.11932e-07
7.33333e-08
6.73658e-07
1.45753e-07
6.58221e-07
2.17314e-07
6.39561e-07
2.87559e-07
6.17681e-07
3.55526e-07
5.92603e-07
4.19906e-07
5.64489e-07
4.79311e-07
5.33706e-07
5.32554e-07
5.00829e-07
5.78841e-07
4.66568e-07
6.17838e-07
4.31683e-07
6.49614e-07
3.96889e-07
6.74534e-07
3.62799e-07
6.93135e-07
3.29897e-07
7.06028e-07
2.98536e-07
7.13818e-07
2.68954e-07
7.17062e-07
2.41298e-07
7.16251e-07
2.15646e-07
7.11804e-07
1.92033e-07
7.04081e-07
1.70469e-07
6.93406e-07
1.50947e-07
6.80092e-07
1.33456e-07
6.64466e-07
1.1798e-07
6.46895e-07
1.04496e-07
6.27796e-07
9.29714e-08
6.07641e-07
8.33565e-08
5.86937e-07
7.55791e-08
5.66202e-07
6.95419e-08
5.45926e-07
6.51252e-08
5.26558e-07
6.21921e-08
5.08495e-07
6.05971e-08
4.92108e-07
6.01924e-08
4.77774e-07
6.08318e-08
4.65919e-07
6.23688e-08
4.57062e-07
6.46505e-08
4.51855e-07
6.75059e-08
4.51107e-07
7.07303e-08
4.55787e-07
7.40668e-08
4.66984e-07
7.71771e-08
4.57592e-07
-2.67622e-06
-6.9171e-06
8.34654e-08
6.56862e-08
6.07972e-07
1.30073e-07
5.93834e-07
1.92907e-07
5.76726e-07
2.5373e-07
5.56859e-07
3.11883e-07
5.3445e-07
3.66591e-07
5.09781e-07
4.17075e-07
4.83222e-07
4.62676e-07
4.55228e-07
5.02939e-07
4.26305e-07
5.37645e-07
3.96977e-07
5.66799e-07
3.67735e-07
5.90582e-07
3.39015e-07
6.09301e-07
3.11178e-07
6.2333e-07
2.84507e-07
6.33074e-07
2.5921e-07
6.38936e-07
2.35435e-07
6.41304e-07
2.13278e-07
6.40542e-07
1.92796e-07
6.36993e-07
1.74018e-07
6.30989e-07
1.56951e-07
6.22858e-07
1.41588e-07
6.12932e-07
1.27906e-07
6.01558e-07
1.1587e-07
5.89097e-07
1.05432e-07
5.75926e-07
9.65275e-08
5.62426e-07
8.9079e-08
5.48976e-07
8.29925e-08
5.35939e-07
7.81614e-08
5.23664e-07
7.4468e-08
5.12474e-07
7.17863e-08
5.02683e-07
6.99839e-08
4.94592e-07
6.89229e-08
4.88501e-07
6.84594e-08
4.84711e-07
6.84411e-08
4.83511e-07
6.87055e-08
4.85164e-07
6.90772e-08
4.89864e-07
6.93672e-08
4.97677e-07
6.93642e-08
4.35501e-07
-2.61404e-06
-6.54607e-06
6.4468e-08
5.83438e-08
5.49628e-07
1.15322e-07
5.36856e-07
1.70582e-07
5.21466e-07
2.23707e-07
5.03733e-07
2.7422e-07
4.83937e-07
3.21617e-07
4.62383e-07
3.65426e-07
4.39413e-07
4.05256e-07
4.15398e-07
4.40834e-07
3.90727e-07
4.72025e-07
3.65786e-07
4.98825e-07
3.40935e-07
5.21343e-07
3.16498e-07
5.39771e-07
2.9275e-07
5.54362e-07
2.69916e-07
5.65401e-07
2.48171e-07
5.73191e-07
2.27645e-07
5.7804e-07
2.08429e-07
5.80252e-07
1.90583e-07
5.8013e-07
1.7414e-07
5.77972e-07
1.5911e-07
5.74073e-07
1.45487e-07
5.6873e-07
1.33248e-07
5.62243e-07
1.22357e-07
5.54911e-07
1.12764e-07
5.47031e-07
1.04407e-07
5.38897e-07
9.72129e-08
5.30792e-07
9.10978e-08
5.22984e-07
8.59692e-08
5.15725e-07
8.17273e-08
5.09245e-07
7.82664e-08
5.03752e-07
7.54765e-08
4.99431e-07
7.32444e-08
4.96436e-07
7.14546e-08
4.94886e-07
6.99902e-08
4.94858e-07
6.87343e-08
4.96363e-07
6.75719e-08
4.99338e-07
6.63925e-08
5.03622e-07
6.50796e-08
4.17764e-07
-2.52818e-06
-6.17909e-06
5.07854e-08
5.1726e-08
4.97902e-07
1.02154e-07
4.86428e-07
1.50927e-07
4.72694e-07
1.9768e-07
4.5698e-07
2.4205e-07
4.39567e-07
2.83688e-07
4.20746e-07
3.22283e-07
4.00818e-07
3.57587e-07
3.80094e-07
3.89432e-07
3.58883e-07
4.17735e-07
3.37482e-07
4.42498e-07
3.16171e-07
4.63797e-07
2.95198e-07
4.81769e-07
2.74778e-07
4.96595e-07
2.5509e-07
5.08488e-07
2.36278e-07
5.17683e-07
2.18451e-07
5.24423e-07
2.01689e-07
5.28961e-07
1.86046e-07
5.31548e-07
1.71553e-07
5.32437e-07
1.5822e-07
5.31881e-07
1.46044e-07
5.30127e-07
1.35002e-07
5.27422e-07
1.25062e-07
5.24006e-07
1.1618e-07
5.20113e-07
1.083e-07
5.15965e-07
1.0136e-07
5.11773e-07
9.52898e-08
5.07731e-07
9.00118e-08
5.04012e-07
8.54457e-08
5.00772e-07
8.15073e-08
4.98137e-07
7.81111e-08
4.9621e-07
7.51712e-08
4.95062e-07
7.26029e-08
4.94728e-07
7.03243e-08
4.95204e-07
6.82576e-08
4.96445e-07
6.63315e-08
4.98354e-07
6.44831e-08
5.00801e-07
6.26329e-08
4.02413e-07
-2.4298e-06
-5.8168e-06
4.01218e-08
4.59358e-08
4.51966e-07
9.06916e-08
4.41672e-07
1.33939e-07
4.29447e-07
1.75369e-07
4.15549e-07
2.14697e-07
4.00239e-07
2.51666e-07
3.83777e-07
2.8606e-07
3.66424e-07
3.17712e-07
3.48442e-07
3.46514e-07
3.30081e-07
3.72415e-07
3.11581e-07
3.95424e-07
2.93162e-07
4.15601e-07
2.75021e-07
4.3305e-07
2.57329e-07
4.4791e-07
2.40231e-07
4.60346e-07
2.23842e-07
4.70541e-07
2.08256e-07
4.78691e-07
1.93538e-07
4.85e-07
1.79737e-07
4.89675e-07
1.66878e-07
4.92923e-07
1.54972e-07
4.94951e-07
1.44016e-07
4.95961e-07
1.33992e-07
4.9615e-07
1.24873e-07
4.95709e-07
1.16621e-07
4.94818e-07
1.09192e-07
4.93646e-07
1.02533e-07
4.92347e-07
9.65882e-08
4.91062e-07
9.12968e-08
4.89913e-07
8.65953e-08
4.89e-07
8.24194e-08
4.88407e-07
7.87047e-08
4.8819e-07
7.53881e-08
4.88384e-07
7.24091e-08
4.88997e-07
6.97107e-08
4.90014e-07
6.72409e-08
4.91392e-07
6.49538e-08
4.93065e-07
6.28104e-08
4.94962e-07
6.07358e-08
3.88471e-07
-2.3233e-06
-5.45963e-06
3.13084e-08
4.09397e-08
4.11027e-07
8.08273e-08
4.01784e-07
1.19376e-07
3.90898e-07
1.5633e-07
3.78596e-07
1.91459e-07
3.6511e-07
2.24568e-07
3.50667e-07
2.555e-07
3.35493e-07
2.84137e-07
3.19805e-07
3.10406e-07
3.03812e-07
3.34279e-07
2.87709e-07
3.55766e-07
2.71675e-07
3.74919e-07
2.55868e-07
3.91819e-07
2.40428e-07
4.06578e-07
2.25472e-07
4.19325e-07
2.11095e-07
4.30207e-07
1.97374e-07
4.39381e-07
1.84365e-07
4.4701e-07
1.72108e-07
4.53262e-07
1.60626e-07
4.58304e-07
1.4993e-07
4.62304e-07
1.40016e-07
4.65422e-07
1.30873e-07
4.67816e-07
1.22479e-07
4.69634e-07
1.14803e-07
4.71016e-07
1.0781e-07
4.7209e-07
1.01459e-07
4.72971e-07
9.57064e-08
4.73764e-07
9.05045e-08
4.74554e-07
8.58051e-08
4.75413e-07
8.15597e-08
4.76398e-07
7.77202e-08
4.77546e-07
7.42403e-08
4.78879e-07
7.10762e-08
4.80402e-07
6.81874e-08
4.82106e-07
6.55373e-08
4.83966e-07
6.30938e-08
4.85947e-07
6.08296e-08
4.88023e-07
5.86592e-08
3.75429e-07
-2.21071e-06
-5.10795e-06
2.37421e-08
3.66521e-08
3.74375e-07
7.2374e-08
3.66062e-07
1.06923e-07
3.56349e-07
1.40086e-07
3.45434e-07
1.71678e-07
3.33517e-07
2.01549e-07
3.20797e-07
2.29578e-07
3.07463e-07
2.55681e-07
2.93702e-07
2.79805e-07
2.79687e-07
3.01936e-07
2.65579e-07
3.22086e-07
2.51525e-07
3.40298e-07
2.37656e-07
3.56641e-07
2.24086e-07
3.71202e-07
2.10911e-07
3.84086e-07
1.98211e-07
3.9541e-07
1.86049e-07
4.05301e-07
1.74474e-07
4.1389e-07
1.63519e-07
4.21312e-07
1.53204e-07
4.27701e-07
1.43541e-07
4.3319e-07
1.34527e-07
4.37909e-07
1.26155e-07
4.4198e-07
1.18407e-07
4.45521e-07
1.11262e-07
4.48639e-07
1.04691e-07
4.51434e-07
9.86638e-08
4.53995e-07
9.31456e-08
4.56399e-07
8.81009e-08
4.58711e-07
8.34928e-08
4.60986e-07
7.92849e-08
4.63265e-07
7.5441e-08
4.65579e-07
7.19268e-08
4.67945e-07
6.87097e-08
4.70373e-07
6.57597e-08
4.7286e-07
6.30496e-08
4.75399e-07
6.05551e-08
4.77974e-07
5.82549e-08
4.80576e-07
5.60572e-08
3.6302e-07
-2.09315e-06
-4.76204e-06
1.7109e-08
3.29741e-08
3.41401e-07
6.51275e-08
3.33909e-07
9.6258e-08
3.25218e-07
1.2619e-07
3.15502e-07
1.54776e-07
3.04932e-07
1.81895e-07
2.93678e-07
2.07455e-07
2.81903e-07
2.31393e-07
2.69764e-07
2.53673e-07
2.57407e-07
2.74284e-07
2.44968e-07
2.93242e-07
2.32567e-07
3.10583e-07
2.20315e-07
3.26363e-07
2.08305e-07
3.40654e-07
1.9662e-07
3.53541e-07
1.85324e-07
3.65118e-07
1.74472e-07
3.75487e-07
1.64105e-07
3.84754e-07
1.54252e-07
3.93026e-07
1.44932e-07
4.00411e-07
1.36155e-07
4.07016e-07
1.27922e-07
4.12944e-07
1.20227e-07
4.18292e-07
1.13059e-07
4.23152e-07
1.06401e-07
4.27611e-07
1.00233e-07
4.31745e-07
9.45299e-08
4.35624e-07
8.92669e-08
4.39308e-07
8.44166e-08
4.4285e-07
7.99511e-08
4.46292e-07
7.58426e-08
4.49669e-07
7.20639e-08
4.53007e-07
6.85888e-08
4.56324e-07
6.53925e-08
4.59632e-07
6.24521e-08
4.62935e-07
5.97467e-08
4.66232e-07
5.72573e-08
4.6952e-07
5.49671e-08
4.72794e-07
5.27839e-08
3.51117e-07
-1.97148e-06
-4.42218e-06
1.12643e-08
2.98094e-08
3.11591e-07
5.88943e-08
3.04824e-07
8.70878e-08
2.97025e-07
1.14247e-07
2.88343e-07
1.40251e-07
2.78927e-07
1.65006e-07
2.68923e-07
1.8844e-07
2.5847e-07
2.10503e-07
2.47701e-07
2.31171e-07
2.3674e-07
2.50438e-07
2.25701e-07
2.68318e-07
2.14687e-07
2.84843e-07
2.0379e-07
3.00059e-07
1.93089e-07
3.14026e-07
1.82653e-07
3.26812e-07
1.72538e-07
3.38493e-07
1.62791e-07
3.49152e-07
1.53446e-07
3.58875e-07
1.4453e-07
3.67748e-07
1.3606e-07
3.75858e-07
1.28045e-07
3.83289e-07
1.2049e-07
3.90126e-07
1.13391e-07
3.96445e-07
1.0674e-07
4.0232e-07
1.00526e-07
4.07819e-07
9.47333e-08
4.13005e-07
8.93442e-08
4.17933e-07
8.43393e-08
4.22651e-07
7.9698e-08
4.27203e-07
7.53991e-08
4.31625e-07
7.14211e-08
4.35946e-07
6.77429e-08
4.4019e-07
6.43443e-08
4.44377e-07
6.12057e-08
4.4852e-07
5.83092e-08
4.52629e-07
5.56382e-08
4.56708e-07
5.31781e-08
4.60758e-07
5.09165e-08
4.64773e-07
4.87695e-08
3.39679e-07
-1.84638e-06
-4.08867e-06
6.16978e-09
2.70718e-08
2.84519e-07
5.35023e-08
2.78394e-07
7.9155e-08
2.71372e-07
1.03913e-07
2.63584e-07
1.27681e-07
2.55159e-07
1.50383e-07
2.46221e-07
1.71961e-07
2.36891e-07
1.9238e-07
2.27282e-07
2.1162e-07
2.175e-07
2.2968e-07
2.07641e-07
2.46573e-07
1.97794e-07
2.62325e-07
1.88037e-07
2.76977e-07
1.78438e-07
2.90576e-07
1.69054e-07
3.03178e-07
1.59935e-07
3.14848e-07
1.51121e-07
3.25651e-07
1.42643e-07
3.35656e-07
1.34524e-07
3.44934e-07
1.26781e-07
3.53556e-07
1.19424e-07
3.61589e-07
1.12457e-07
3.69101e-07
1.05879e-07
3.76154e-07
9.96871e-08
3.82808e-07
9.38721e-08
3.89118e-07
8.84234e-08
3.95134e-07
8.33281e-08
4.00902e-07
7.85718e-08
4.06461e-07
7.41385e-08
4.11848e-07
7.0012e-08
4.17094e-07
6.61755e-08
4.22225e-07
6.26121e-08
4.27264e-07
5.93053e-08
4.3223e-07
5.6239e-08
4.37142e-07
5.33976e-08
4.42014e-07
5.07662e-08
4.46862e-07
4.83304e-08
4.51701e-07
4.60767e-08
4.56545e-07
4.39258e-08
3.28652e-07
-1.71849e-06
-3.76187e-06
1.84522e-09
2.46864e-08
2.59833e-07
4.88033e-08
2.54277e-07
7.22396e-08
2.47936e-07
9.49013e-08
2.40923e-07
1.16711e-07
2.33349e-07
1.37609e-07
2.25324e-07
1.5755e-07
2.1695e-07
1.76507e-07
2.08325e-07
1.94465e-07
1.99541e-07
2.11426e-07
1.9068e-07
2.27402e-07
1.81819e-07
2.42416e-07
1.73023e-07
2.56501e-07
1.64353e-07
2.69697e-07
1.55858e-07
2.82052e-07
1.47581e-07
2.93616e-07
1.39557e-07
3.04445e-07
1.31814e-07
3.14595e-07
1.24374e-07
3.24124e-07
1.17252e-07
3.33089e-07
1.10459e-07
3.41546e-07
1.04e-07
3.4955e-07
9.78761e-08
3.5715e-07
9.20862e-08
3.64397e-07
8.66251e-08
3.71335e-07
8.14854e-08
3.78005e-07
7.66581e-08
3.84445e-07
7.21322e-08
3.90688e-07
6.7896e-08
3.96763e-07
6.39367e-08
4.02697e-07
6.02413e-08
4.08513e-07
5.67962e-08
4.14231e-07
5.35877e-08
4.19867e-07
5.06023e-08
4.25438e-07
4.78265e-08
4.30958e-07
4.52466e-08
4.36439e-07
4.2849e-08
4.41896e-07
4.06201e-08
4.47332e-07
3.84894e-08
3.17085e-07
-1.58824e-06
-3.44199e-06
-2.78981e-09
2.25897e-08
2.37243e-07
4.46715e-08
2.32195e-07
6.61561e-08
2.26451e-07
8.69677e-08
2.20111e-07
1.07045e-07
2.13272e-07
1.26339e-07
2.06029e-07
1.44817e-07
1.98472e-07
1.62457e-07
1.90685e-07
1.7925e-07
1.82748e-07
1.95197e-07
1.74733e-07
2.10311e-07
1.66705e-07
2.24611e-07
1.58723e-07
2.38126e-07
1.50838e-07
2.5089e-07
1.43094e-07
2.62943e-07
1.35529e-07
2.74326e-07
1.28174e-07
2.85086e-07
1.21054e-07
2.95269e-07
1.14191e-07
3.04923e-07
1.07598e-07
3.14096e-07
1.01286e-07
3.22833e-07
9.52625e-08
3.31179e-07
8.95298e-08
3.39177e-07
8.40882e-08
3.46867e-07
7.89355e-08
3.54285e-07
7.40673e-08
3.61465e-07
6.94774e-08
3.68439e-07
6.51581e-08
3.75235e-07
6.11009e-08
3.81875e-07
5.72962e-08
3.88383e-07
5.37338e-08
3.94776e-07
5.04031e-08
4.0107e-07
4.72934e-08
4.07279e-07
4.43937e-08
4.13412e-07
4.16929e-08
4.19479e-07
3.918e-08
4.25483e-07
3.68444e-08
4.31428e-07
3.46756e-08
4.37299e-07
3.26185e-08
3.05104e-07
-1.45605e-06
-3.12934e-06
-7.54935e-09
2.07282e-08
2.16515e-07
4.1002e-08
2.11921e-07
6.07498e-08
2.06703e-07
7.99111e-08
2.0095e-07
9.84369e-08
1.94746e-07
1.1629e-07
1.88176e-07
1.33443e-07
1.81318e-07
1.49882e-07
1.74247e-07
1.65599e-07
1.67031e-07
1.80599e-07
1.59734e-07
1.94891e-07
1.52413e-07
2.08495e-07
1.45119e-07
2.21435e-07
1.37898e-07
2.33739e-07
1.30789e-07
2.45442e-07
1.23826e-07
2.56579e-07
1.17036e-07
2.6719e-07
1.10444e-07
2.77312e-07
1.04068e-07
2.86987e-07
9.7923e-08
2.96254e-07
9.20193e-08
3.05152e-07
8.63646e-08
3.13718e-07
8.09636e-08
3.21988e-07
7.58182e-08
3.29995e-07
7.09284e-08
3.37771e-07
6.6292e-08
3.45343e-07
6.19055e-08
3.52737e-07
5.7764e-08
3.59976e-07
5.38617e-08
3.6708e-07
5.01917e-08
3.74068e-07
4.67467e-08
3.80952e-07
4.35186e-08
3.87746e-07
4.04991e-08
3.94461e-07
3.76796e-08
4.01102e-07
3.50512e-08
4.07677e-07
3.26053e-08
4.14188e-07
3.03329e-08
4.20639e-07
2.82254e-08
4.27017e-07
2.62402e-08
2.93327e-07
-1.32236e-06
-2.82433e-06
-1.16769e-08
1.90576e-08
1.97457e-07
3.77075e-08
1.93271e-07
5.58924e-08
1.88518e-07
7.35643e-08
1.83278e-07
9.06848e-08
1.77626e-07
1.07225e-07
1.71636e-07
1.23164e-07
1.65379e-07
1.38492e-07
1.58919e-07
1.53204e-07
1.52318e-07
1.67306e-07
1.45632e-07
1.80807e-07
1.38912e-07
1.93724e-07
1.32202e-07
2.06079e-07
1.25543e-07
2.17897e-07
1.18971e-07
2.29208e-07
1.12515e-07
2.40041e-07
1.06203e-07
2.50431e-07
1.00054e-07
2.60411e-07
9.4088e-08
2.70016e-07
8.83182e-08
2.7928e-07
8.27559e-08
2.88235e-07
7.74094e-08
2.96914e-07
7.22844e-08
3.05348e-07
6.73846e-08
3.13565e-07
6.27116e-08
3.21591e-07
5.82655e-08
3.29451e-07
5.40452e-08
3.37167e-07
5.00481e-08
3.44758e-07
4.62709e-08
3.52241e-07
4.27093e-08
3.59629e-07
3.93583e-08
3.66935e-07
3.62124e-08
3.74169e-07
3.32656e-08
3.81337e-07
3.05112e-08
3.88445e-07
2.79427e-08
3.95498e-07
2.55527e-08
4.02497e-07
2.3334e-08
4.09443e-07
2.12791e-08
4.16326e-07
1.9357e-08
2.81593e-07
-1.18763e-06
-2.52739e-06
-1.53565e-08
1.75414e-08
1.79916e-07
3.47157e-08
1.76097e-07
5.14778e-08
1.71756e-07
6.77897e-08
1.66966e-07
8.36215e-08
1.61794e-07
9.89508e-08
1.56307e-07
1.13763e-07
1.50567e-07
1.2805e-07
1.44632e-07
1.41811e-07
1.38557e-07
1.5505e-07
1.32393e-07
1.67779e-07
1.26183e-07
1.80013e-07
1.19968e-07
1.9177e-07
1.13786e-07
2.03074e-07
1.07667e-07
2.1395e-07
1.01639e-07
2.24426e-07
9.57269e-08
2.3453e-07
8.99499e-08
2.44293e-07
8.43252e-08
2.53745e-07
7.88667e-08
2.62915e-07
7.35857e-08
2.71833e-07
6.8491e-08
2.80528e-07
6.35894e-08
2.89027e-07
5.88858e-08
2.97355e-07
5.43836e-08
3.05536e-07
5.00848e-08
3.13591e-07
4.59902e-08
3.21539e-07
4.20996e-08
3.29398e-07
3.8412e-08
3.37182e-07
3.49256e-08
3.44902e-07
3.16378e-08
3.52569e-07
2.85456e-08
3.6019e-07
2.56451e-08
3.67769e-07
2.29322e-08
3.75309e-07
2.04019e-08
3.82813e-07
1.80489e-08
3.9028e-07
1.58674e-08
3.97708e-07
1.38512e-08
4.05084e-07
1.19807e-08
2.69804e-07
-1.05234e-06
-2.23899e-06
-1.85934e-08
1.61494e-08
1.63767e-07
3.19677e-08
1.60278e-07
4.74192e-08
1.56305e-07
6.24745e-08
1.51911e-07
7.71102e-08
1.47158e-07
9.13095e-08
1.42108e-07
1.05062e-07
1.36815e-07
1.18362e-07
1.31332e-07
1.3121e-07
1.25709e-07
1.43613e-07
1.1999e-07
1.55581e-07
1.14215e-07
1.67127e-07
1.08422e-07
1.7827e-07
1.02643e-07
1.89029e-07
9.69073e-08
1.99429e-07
9.12398e-08
2.09493e-07
8.56626e-08
2.19248e-07
8.01948e-08
2.28721e-07
7.48522e-08
2.37939e-07
6.96485e-08
2.4693e-07
6.45948e-08
2.55721e-07
5.97004e-08
2.64337e-07
5.49728e-08
2.72805e-07
5.0418e-08
2.81148e-07
4.60407e-08
2.89388e-07
4.18446e-08
2.97546e-07
3.78324e-08
3.05639e-07
3.4006e-08
3.13685e-07
3.03668e-08
3.21695e-07
2.69152e-08
3.29681e-07
2.36515e-08
3.37652e-07
2.05752e-08
3.45612e-07
1.76852e-08
3.53564e-07
1.49797e-08
3.6151e-07
1.24563e-08
3.69447e-07
1.01117e-08
3.77373e-07
7.94136e-09
3.85284e-07
5.93989e-09
3.93169e-07
4.09626e-09
2.57909e-07
-9.17085e-07
-1.95964e-06
-2.1436e-08
1.48571e-08
1.4891e-07
2.94152e-08
1.4572e-07
4.36461e-08
1.42074e-07
5.75269e-08
1.3803e-07
7.10398e-08
1.33646e-07
8.41722e-08
1.28975e-07
9.69165e-08
1.2407e-07
1.0927e-07
1.18979e-07
1.21235e-07
1.13744e-07
1.32817e-07
1.08408e-07
1.44026e-07
1.03006e-07
1.54875e-07
9.75725e-08
1.65382e-07
9.21367e-08
1.75564e-07
8.67251e-08
1.85443e-07
8.13609e-08
1.95041e-07
7.60643e-08
2.04383e-07
7.08529e-08
2.13493e-07
6.57419e-08
2.22397e-07
6.07441e-08
2.31122e-07
5.58705e-08
2.39692e-07
5.11304e-08
2.48133e-07
4.65317e-08
2.5647e-07
4.20811e-08
2.64726e-07
3.77842e-08
2.72925e-07
3.36459e-08
2.81087e-07
2.96706e-08
2.89231e-07
2.58621e-08
2.97374e-07
2.22238e-08
3.0553e-07
1.87589e-08
3.13711e-07
1.54703e-08
3.21926e-07
1.23608e-08
3.30178e-07
9.43262e-09
3.3847e-07
6.68774e-09
3.46799e-07
4.12747e-09
3.55158e-07
1.75235e-09
3.63538e-07
-4.38173e-10
3.71924e-07
-2.44602e-09
3.80292e-07
-4.27172e-09
2.45762e-07
-7.82555e-07
-1.68995e-06
-2.39308e-08
1.3645e-08
1.35265e-07
2.70195e-08
1.32346e-07
4.01016e-08
1.28992e-07
5.28735e-08
1.25258e-07
6.53214e-08
1.21198e-07
7.7436e-08
1.16861e-07
8.92121e-08
1.12294e-07
1.00649e-07
1.07542e-07
1.11748e-07
1.02644e-07
1.22517e-07
9.76386e-08
1.32965e-07
9.25581e-08
1.43105e-07
8.74332e-08
1.5295e-07
8.22911e-08
1.6252e-07
7.71558e-08
1.71832e-07
7.20485e-08
1.80908e-07
6.6988e-08
1.89771e-07
6.19903e-08
1.98443e-07
5.70694e-08
2.0695e-07
5.22374e-08
2.15316e-07
4.75047e-08
2.23566e-07
4.288e-08
2.31727e-07
3.83713e-08
2.39823e-07
3.39851e-08
2.47879e-07
2.97276e-08
2.55921e-07
2.56042e-08
2.63972e-07
2.16202e-08
2.72053e-07
1.77807e-08
2.80186e-07
1.40909e-08
2.88388e-07
1.05563e-08
2.96676e-07
7.18232e-09
3.05062e-07
3.97517e-09
3.13553e-07
9.412e-10
3.22154e-07
-1.91292e-09
3.30862e-07
-4.58034e-09
3.39668e-07
-7.05422e-09
3.48558e-07
-9.32801e-09
3.57508e-07
-1.13957e-08
3.6648e-07
-1.32441e-08
2.3339e-07
-6.49464e-07
-1.43069e-06
-2.58747e-08
1.24972e-08
1.22767e-07
2.47499e-08
1.20093e-07
3.67408e-08
1.17001e-07
4.84558e-08
1.13543e-07
5.98844e-08
1.09769e-07
7.10196e-08
1.05725e-07
8.1858e-08
1.01456e-07
9.23993e-08
9.70006e-08
1.02647e-07
9.23971e-08
1.12606e-07
8.76792e-08
1.22286e-07
8.28779e-08
1.31699e-07
7.80209e-08
1.40857e-07
7.31329e-08
1.49776e-07
6.82361e-08
1.58475e-07
6.33499e-08
1.66972e-07
5.8491e-08
1.75288e-07
5.36743e-08
1.83445e-07
4.89124e-08
1.91466e-07
4.42162e-08
1.99376e-07
3.95949e-08
2.07199e-07
3.50565e-08
2.14963e-07
3.0608e-08
2.22693e-07
2.62552e-08
2.30416e-07
2.20038e-08
2.38162e-07
1.78588e-08
2.45957e-07
1.38252e-08
2.53829e-07
9.90834e-09
2.61806e-07
6.11379e-09
2.69914e-07
2.44797e-09
2.78179e-07
-1.0818e-09
2.86621e-07
-4.46703e-09
2.9526e-07
-7.69785e-09
3.0411e-07
-1.0763e-08
3.13179e-07
-1.36496e-08
3.22468e-07
-1.63435e-08
3.3197e-07
-1.88294e-08
3.41665e-07
-2.1091e-08
3.51522e-07
-2.31011e-08
2.20787e-07
-5.18729e-07
-1.1829e-06
-2.69945e-08
1.14017e-08
1.11366e-07
2.25825e-08
1.08912e-07
3.35286e-08
1.06055e-07
4.42287e-08
1.02843e-07
5.46746e-08
9.93231e-08
6.4861e-08
9.5539e-08
7.47852e-08
9.15315e-08
8.44475e-08
8.73383e-08
9.38508e-08
8.29937e-08
1.03001e-07
7.85295e-08
1.11904e-07
7.3974e-08
1.20572e-07
6.93529e-08
1.29016e-07
6.46891e-08
1.3725e-07
6.00026e-08
1.45289e-07
5.5311e-08
1.5315e-07
5.06299e-08
1.60852e-07
4.59722e-08
1.68415e-07
4.13492e-08
1.75861e-07
3.67703e-08
1.83212e-07
3.22434e-08
1.90494e-07
2.77749e-08
1.97732e-07
2.33702e-08
2.04953e-07
1.90336e-08
2.12188e-07
1.47691e-08
2.19467e-07
1.05798e-08
2.26823e-07
6.46914e-09
2.34291e-07
2.44039e-09
2.41907e-07
-1.50244e-09
2.4971e-07
-5.35446e-09
2.57737e-07
-9.1094e-09
2.6603e-07
-1.27591e-08
2.74625e-07
-1.62932e-08
2.8356e-07
-1.96981e-08
2.92868e-07
-2.29572e-08
3.02574e-07
-2.60498e-08
3.12696e-07
-2.89514e-08
3.23239e-07
-3.16337e-08
3.34191e-07
-3.40534e-08
2.07365e-07
-3.91903e-07
-9.47874e-07
-2.7665e-08
1.0349e-08
1.01017e-07
2.0499e-08
9.87624e-08
3.04384e-08
9.61155e-08
4.01582e-08
9.31232e-08
4.96515e-08
8.98298e-08
5.89138e-08
8.62767e-08
6.79431e-08
8.25022e-08
7.67395e-08
7.85419e-08
8.53053e-08
7.4428e-08
9.36449e-08
7.019e-08
1.01764e-07
6.58545e-08
1.09672e-07
6.14453e-08
1.17378e-07
5.69835e-08
1.24892e-07
5.24877e-08
1.32229e-07
4.79741e-08
1.39403e-07
4.34566e-08
1.46428e-07
3.89467e-08
1.53323e-07
3.44543e-08
1.60106e-07
2.99872e-08
1.66798e-07
2.55517e-08
1.73421e-07
2.11524e-08
1.79998e-07
1.67926e-08
1.86557e-07
1.24745e-08
1.93127e-07
8.19912e-09
1.9974e-07
3.96679e-09
2.06432e-07
-2.22829e-10
2.13243e-07
-4.37037e-09
2.20217e-07
-8.47647e-09
2.27404e-07
-1.25414e-08
2.34859e-07
-1.65644e-08
2.42643e-07
-2.05432e-08
2.50823e-07
-2.44731e-08
2.59471e-07
-2.83458e-08
2.68661e-07
-3.21479e-08
2.78471e-07
-3.58594e-08
2.88971e-07
-3.94512e-08
3.0022e-07
-4.28831e-08
3.12258e-07
-4.60908e-08
1.9266e-07
-2.72306e-07
-7.27157e-07
-2.80575e-08
9.33232e-09
9.16843e-08
1.84858e-08
8.96089e-08
2.74508e-08
8.71505e-08
3.62194e-08
8.43546e-08
4.47857e-08
8.12635e-08
5.31455e-08
7.79168e-08
6.12969e-08
7.43509e-08
6.92394e-08
7.05994e-08
7.69743e-08
6.6693e-08
8.45046e-08
6.26596e-08
9.18348e-08
5.85242e-08
9.89708e-08
5.43093e-08
1.0592e-07
5.00346e-08
1.1269e-07
4.57175e-08
1.19291e-07
4.1373e-08
1.25734e-07
3.70137e-08
1.3203e-07
3.26503e-08
1.38193e-07
2.82912e-08
1.44238e-07
2.3943e-08
1.50179e-07
1.96106e-08
1.56034e-07
1.52968e-08
1.61824e-07
1.1003e-08
1.67569e-07
6.72896e-09
1.73296e-07
2.47286e-09
1.79031e-07
-1.76861e-09
1.84808e-07
-6.00018e-09
1.90666e-07
-1.0228e-08
1.96649e-07
-1.44595e-08
2.02811e-07
-1.87033e-08
2.09216e-07
-2.29692e-08
2.1594e-07
-2.72676e-08
2.23077e-07
-3.16095e-08
2.30736e-07
-3.6005e-08
2.39051e-07
-4.04627e-08
2.48178e-07
-4.49868e-08
2.583e-07
-4.95738e-08
2.69624e-07
-5.42065e-08
2.82373e-07
-5.88401e-08
1.77399e-07
-1.67332e-07
-5.23111e-07
-2.66472e-08
8.34647e-09
8.33378e-08
1.65332e-08
8.14221e-08
2.45516e-08
7.91321e-08
3.23946e-08
7.65116e-08
4.00568e-08
7.36014e-08
4.7534e-08
7.04396e-08
5.48238e-08
6.70611e-08
6.1925e-08
6.34982e-08
6.88377e-08
5.97803e-08
7.55633e-08
5.5934e-08
8.21042e-08
5.19834e-08
8.84638e-08
4.79498e-08
9.46462e-08
4.38522e-08
1.00657e-07
3.97071e-08
1.06501e-07
3.55288e-08
1.12185e-07
3.13293e-08
1.17717e-07
2.71184e-08
1.23104e-07
2.29041e-08
1.28355e-07
1.86922e-08
1.33479e-07
1.44867e-08
1.38486e-07