/*--------------------------------*- C++ -*----------------------------------*\
  =========                 |
  \\      /  F ield         | OpenFOAM: The Open Source CFD Toolbox
   \\    /   O peration     | Website:  https://openfoam.org
    \\  /    A nd           | Version:  7
     \\/     M anipulation  |
\*---------------------------------------------------------------------------*/
FoamFile
{
    version     2.0;
    format      ascii;
    class       surfaceScalarField;
    location    "25000";
    object      phib;
}
// * * * * * * * * * * * * * * * * * * * * * * * * * * * * * * * * * * * * * //

dimensions      [0 3 -1 0 0 0 0];

internalField   nonuniform List<scalar> 
6280
(
-9.74994e-21
-1.71006e-16
-2.1028e-20
-1.67992e-16
-3.6131e-20
-1.65028e-16
-5.90877e-20
-1.62113e-16
-9.88526e-20
-1.59241e-16
-1.24647e-09
-1.56402e-16
-1.31881e-05
-1.53454e-16
-1.51318e-05
-1.39721e-16
-1.56137e-05
-1.27748e-16
-1.58833e-05
-1.16861e-16
-1.60673e-05
-1.06787e-16
-1.62044e-05
-9.73858e-17
-1.63118e-05
-8.85678e-17
-1.63989e-05
-8.02703e-17
-1.64711e-05
-7.24455e-17
-1.65323e-05
-6.50551e-17
-1.65848e-05
-5.80675e-17
-1.66305e-05
-5.14557e-17
-1.66707e-05
-4.51961e-17
-1.67064e-05
-3.9268e-17
-1.67382e-05
-3.36528e-17
-1.67669e-05
-2.83335e-17
-1.67929e-05
-2.32948e-17
-1.68165e-05
-1.18276e-15
-1.61857e-05
-6.52533e-07
-1.44034e-05
-1.80237e-06
-1.18598e-05
-2.56239e-06
-9.65399e-06
-2.22334e-06
-8.32264e-06
-1.34752e-06
-7.51477e-06
-8.22834e-07
-7.00996e-06
-5.18723e-07
-6.67251e-06
-3.50434e-07
-6.41528e-06
-2.69388e-07
-6.17518e-06
-2.51526e-07
-5.89585e-06
-2.90078e-07
-5.51346e-06
-3.92531e-07
-4.94184e-06
-5.81158e-07
-4.05357e-06
-8.9725e-07
-2.66641e-06
-1.39557e-06
-2.09216e-06
-5.82046e-07
-6.10903e-21
-1.71e-16
-1.20979e-20
-1.67986e-16
-1.74583e-20
-1.65023e-16
-2.01783e-20
-1.6211e-16
-1.41234e-20
-1.59247e-16
1.79207e-20
-1.56434e-16
7.26445e-20
-1.53678e-16
5.99714e-20
-1.50985e-16
4.97361e-20
-1.48334e-16
4.28376e-20
-1.45726e-16
3.80159e-20
-1.43161e-16
3.45135e-20
-1.40641e-16
3.18949e-20
-1.38165e-16
2.99024e-20
-1.35732e-16
2.83779e-20
-1.33341e-16
2.72214e-20
-1.30993e-16
2.63678e-20
-1.28686e-16
2.57732e-20
-1.26419e-16
2.54045e-20
-1.24192e-16
2.52284e-20
-1.22005e-16
2.51953e-20
-1.19856e-16
2.52086e-20
-1.17745e-16
2.50662e-20
-1.1567e-16
1.5664e-18
-1.13632e-16
7.26246e-09
-1.11629e-16
2.5684e-08
-1.09686e-16
3.3791e-08
-1.07777e-16
-2.15304e-06
-1.0589e-16
-3.48566e-06
-1.03434e-16
-4.30139e-06
-1.00721e-16
-4.81635e-06
-9.79139e-17
-5.1646e-06
-9.50972e-17
-5.43258e-06
-9.23126e-17
-5.68308e-06
-8.95782e-17
-5.97228e-06
-8.68973e-17
-6.36395e-06
-8.42632e-17
-6.9442e-06
-8.34733e-17
-7.71876e-06
-1.2165e-07
-8.23904e-06
-8.7344e-07
-9.70454e-06
-6.25913e-07
-2.49491e-21
-1.70997e-16
-4.32869e-21
-1.67984e-16
-4.64038e-21
-1.65023e-16
-2.06455e-21
-1.62113e-16
5.28669e-21
-1.59254e-16
1.86791e-20
-1.56447e-16
3.32499e-20
-1.53692e-16
3.69924e-20
-1.50989e-16
3.65002e-20
-1.48334e-16
3.4698e-20
-1.45724e-16
3.26656e-20
-1.43159e-16
3.07757e-20
-1.40639e-16
2.91376e-20
-1.38163e-16
2.77665e-20
-1.3573e-16
2.66473e-20
-1.3334e-16
2.57601e-20
-1.30992e-16
2.50894e-20
-1.28685e-16
2.46301e-20
-1.26419e-16
2.43938e-20
-1.24192e-16
2.44207e-20
-1.22005e-16
2.48043e-20
-1.19856e-16
2.57436e-20
-1.17745e-16
2.76501e-20
-1.15672e-16
3.13605e-20
-1.13636e-16
3.62608e-20
-1.11636e-16
2.2997e-20
-1.09673e-16
-1.0938e-20
-1.07743e-16
-5.19576e-21
-1.05841e-16
-1.52398e-21
-1.03974e-16
9.68206e-22
-1.02142e-16
2.78072e-21
-1.00342e-16
4.21589e-21
-9.85737e-17
5.47534e-21
-9.68371e-17
6.71273e-21
-9.51312e-17
8.06594e-21
-9.34555e-17
9.6802e-21
-9.18095e-17
1.19897e-20
-9.01926e-17
4.55512e-11
-9.61097e-17
6.20146e-10
-7.32875e-07
-9.19013e-06
1.09651e-08
-2.02738e-22
-1.70997e-16
1.34147e-22
-1.67984e-16
1.54976e-21
-1.65024e-16
4.56175e-21
-1.62116e-16
9.4605e-21
-1.59259e-16
1.58193e-20
-1.56454e-16
2.18812e-20
-1.53698e-16
2.5465e-20
-1.50993e-16
2.70176e-20
-1.48335e-16
2.73311e-20
-1.45724e-16
2.6989e-20
-1.43159e-16
2.63456e-20
-1.40639e-16
2.55994e-20
-1.38162e-16
2.48559e-20
-1.3573e-16
2.41692e-20
-1.3334e-16
2.35654e-20
-1.30991e-16
2.30558e-20
-1.28685e-16
2.26447e-20
-1.26418e-16
2.23313e-20
-1.24192e-16
2.21096e-20
-1.22005e-16
2.19608e-20
-1.19856e-16
2.18332e-20
-1.17745e-16
2.15926e-20
-1.15672e-16
2.09058e-20
-1.13635e-16
1.898e-20
-1.11634e-16
1.44504e-20
-1.09668e-16
8.64712e-21
-1.07737e-16
6.1652e-21
-1.05838e-16
5.21723e-21
-1.03974e-16
4.97245e-21
-1.02141e-16
5.04228e-21
-1.00342e-16
5.24507e-21
-9.85739e-17
5.49583e-21
-9.68373e-17
5.75275e-21
-9.51314e-17
5.98895e-21
-9.34557e-17
6.17447e-21
-9.18097e-17
6.25979e-21
-9.01927e-17
6.67683e-21
-9.47287e-17
3.74751e-10
-1.01514e-06
-8.80738e-06
1.09113e-08
9.41283e-22
-1.70998e-16
2.18971e-21
-1.67985e-16
4.01137e-21
-1.65026e-16
6.56565e-21
-1.62118e-16
9.81622e-21
-1.59262e-16
1.34322e-20
-1.56457e-16
1.67992e-20
-1.53702e-16
1.93441e-20
-1.50995e-16
2.09839e-20
-1.48337e-16
2.18817e-20
-1.45725e-16
2.22514e-20
-1.43159e-16
2.22773e-20
-1.40639e-16
2.20951e-20
-1.38162e-16
2.1797e-20
-1.35729e-16
2.1442e-20
-1.33339e-16
2.1065e-20
-1.30991e-16
2.06841e-20
-1.28684e-16
2.03044e-20
-1.26418e-16
1.9919e-20
-1.24191e-16
1.95083e-20
-1.22004e-16
1.90362e-20
-1.19856e-16
1.84439e-20
-1.17745e-16
1.76439e-20
-1.15671e-16
1.65204e-20
-1.13634e-16
1.49582e-20
-1.11633e-16
1.29543e-20
-1.09666e-16
1.08578e-20
-1.07735e-16
9.19206e-21
-1.05837e-16
7.98036e-21
-1.03972e-16
7.11344e-21
-1.02141e-16
6.46896e-21
-1.00341e-16
5.94193e-21
-9.85734e-17
5.44574e-21
-9.68368e-17
4.90477e-21
-9.51309e-17
4.24565e-21
-9.34551e-17
3.38917e-21
-9.18088e-17
2.24368e-21
-9.01916e-17
7.4947e-22
-9.64943e-17
6.11486e-10
-1.59848e-06
-8.428e-06
1.06687e-08
1.39193e-21
-1.70999e-16
2.92424e-21
-1.67987e-16
4.7144e-21
-1.65028e-16
6.80309e-21
-1.62121e-16
9.12828e-21
-1.59265e-16
1.15193e-20
-1.5646e-16
1.37394e-20
-1.53704e-16
1.5586e-20
-1.50997e-16
1.69803e-20
-1.48338e-16
1.79432e-20
-1.45726e-16
1.85447e-20
-1.4316e-16
1.88662e-20
-1.40639e-16
1.89816e-20
-1.38162e-16
1.89498e-20
-1.35729e-16
1.88139e-20
-1.33339e-16
1.86029e-20
-1.30991e-16
1.83336e-20
-1.28684e-16
1.80124e-20
-1.26418e-16
1.76369e-20
-1.24191e-16
1.71961e-20
-1.22004e-16
1.66719e-20
-1.19855e-16
1.60402e-20
-1.17744e-16
1.52756e-20
-1.1567e-16
1.43595e-20
-1.13633e-16
1.32948e-20
-1.11632e-16
1.21251e-20
-1.09665e-16
1.09422e-20
-1.07734e-16
9.84402e-21
-1.05836e-16
8.86916e-21
-1.03971e-16
8.0105e-21
-1.0214e-16
7.23555e-21
-1.0034e-16
6.49985e-21
-9.85726e-17
5.75314e-21
-9.68361e-17
4.9406e-21
-9.51301e-17
4.00117e-21
-9.34541e-17
2.86392e-21
-9.18077e-17
1.44256e-21
-9.01901e-17
-4.28213e-11
-9.72528e-17
1.1952e-09
-2.22808e-06
-8.0502e-06
9.0646e-09
1.48936e-21
-1.71001e-16
3.02661e-21
-1.67989e-16
4.65835e-21
-1.65029e-16
6.38934e-21
-1.62122e-16
8.17654e-21
-1.59267e-16
9.93606e-21
-1.56461e-16
1.15662e-20
-1.53706e-16
1.2981e-20
-1.50999e-16
1.41344e-20
-1.48339e-16
1.50207e-20
-1.45727e-16
1.56611e-20
-1.43161e-16
1.60901e-20
-1.40639e-16
1.63446e-20
-1.38163e-16
1.64584e-20
-1.35729e-16
1.64591e-20
-1.33339e-16
1.63673e-20
-1.30991e-16
1.6197e-20
-1.28684e-16
1.59558e-20
-1.26417e-16
1.56465e-20
-1.24191e-16
1.52679e-20
-1.22003e-16
1.48162e-20
-1.19855e-16
1.42874e-20
-1.17744e-16
1.36798e-20
-1.1567e-16
1.29975e-20
-1.13632e-16
1.22536e-20
-1.11631e-16
1.14717e-20
-1.09664e-16
1.06824e-20
-1.07733e-16
9.91426e-21
-1.05835e-16
9.18413e-21
-1.03971e-16
8.4958e-21
-1.02139e-16
7.84282e-21
-1.0034e-16
7.21231e-21
-9.8572e-17
6.58818e-21
-9.68354e-17
5.9538e-21
-9.51294e-17
5.29428e-21
-9.34535e-17
4.59904e-21
-9.1807e-17
3.86523e-21
-9.01894e-17
3.40633e-21
-9.8072e-17
1.866e-09
-2.58657e-06
-7.67205e-06
6.28309e-09
1.42803e-21
-1.71002e-16
2.85913e-21
-1.6799e-16
4.30799e-21
-1.65031e-16
5.769e-21
-1.62124e-16
7.21538e-21
-1.59268e-16
8.6044e-21
-1.56463e-16
9.88807e-21
-1.53707e-16
1.10254e-20
-1.51e-16
1.19911e-20
-1.4834e-16
1.27772e-20
-1.45728e-16
1.33894e-20
-1.43161e-16
1.38424e-20
-1.4064e-16
1.41545e-20
-1.38163e-16
1.43447e-20
-1.3573e-16
1.443e-20
-1.33339e-16
1.44245e-20
-1.30991e-16
1.43394e-20
-1.28684e-16
1.41828e-20
-1.26417e-16
1.39601e-20
-1.24191e-16
1.36753e-20
-1.22003e-16
1.33316e-20
-1.19854e-16
1.29327e-20
-1.17743e-16
1.24838e-20
-1.15669e-16
1.19925e-20
-1.13632e-16
1.14696e-20
-1.1163e-16
1.09284e-20
-1.09664e-16
1.03833e-20
-1.07732e-16
9.84764e-21
-1.05834e-16
9.33149e-21
-1.0397e-16
8.84157e-21
-1.02139e-16
8.38188e-21
-1.00339e-16
7.95521e-21
-9.85716e-17
7.56517e-21
-9.68351e-17
7.21834e-21
-9.51291e-17
6.92694e-21
-9.34532e-17
6.71189e-21
-9.18067e-17
6.60683e-21
-9.01893e-17
7.37637e-21
-1.0051e-16
2.20231e-09
-2.69711e-06
-7.29455e-06
4.12609e-09
1.30627e-21
-1.71004e-16
2.59628e-21
-1.67991e-16
3.87097e-21
-1.65032e-16
5.12223e-21
-1.62125e-16
6.3329e-21
-1.59269e-16
7.47969e-21
-1.56464e-16
8.53787e-21
-1.53708e-16
9.48627e-21
-1.51001e-16
1.03108e-20
-1.48341e-16
1.10054e-20
-1.45728e-16
1.15714e-20
-1.43162e-16
1.20153e-20
-1.4064e-16
1.23467e-20
-1.38163e-16
1.25763e-20
-1.3573e-16
1.27151e-20
-1.33339e-16
1.27729e-20
-1.30991e-16
1.27584e-20
-1.28684e-16
1.26792e-20
-1.26417e-16
1.25417e-20
-1.2419e-16
1.23515e-20
-1.22003e-16
1.21143e-20
-1.19854e-16
1.1836e-20
-1.17743e-16
1.1523e-20
-1.15669e-16
1.11828e-20
-1.13632e-16
1.08238e-20
-1.1163e-16
1.0455e-20
-1.09664e-16
1.00856e-20
-1.07732e-16
9.72448e-21
-1.05834e-16
9.37947e-21
-1.0397e-16
9.05771e-21
-1.02138e-16
8.76581e-21
-1.00339e-16
8.51049e-21
-9.85713e-17
8.29932e-21
-9.68348e-17
8.14156e-21
-9.51289e-17
8.0488e-21
-9.34531e-17
8.03547e-21
-9.18067e-17
8.11885e-21
-9.01894e-17
9.43769e-21
-1.03861e-16
2.21837e-09
-2.68524e-06
-6.91947e-06
2.76447e-09
1.17006e-21
-1.71005e-16
2.31697e-21
-1.67992e-16
3.43622e-21
-1.65033e-16
4.51964e-21
-1.62126e-16
5.55551e-21
-1.5927e-16
6.53001e-21
-1.56465e-16
7.42927e-21
-1.53709e-16
8.24155e-21
-1.51002e-16
8.95875e-21
-1.48342e-16
9.57696e-21
-1.45729e-16
1.00963e-20
-1.43162e-16
1.05199e-20
-1.40641e-16
1.08533e-20
-1.38164e-16
1.11032e-20
-1.3573e-16
1.12768e-20
-1.33339e-16
1.13812e-20
-1.30991e-16
1.14234e-20
-1.28684e-16
1.14098e-20
-1.26417e-16
1.13466e-20
-1.2419e-16
1.12397e-20
-1.22003e-16
1.10948e-20
-1.19854e-16
1.0918e-20
-1.17743e-16
1.07154e-20
-1.15669e-16
1.04935e-20
-1.13631e-16
1.02589e-20
-1.1163e-16
1.00184e-20
-1.09663e-16
9.77879e-21
-1.07732e-16
9.54658e-21
-1.05834e-16
9.32791e-21
-1.0397e-16
9.1286e-21
-1.02138e-16
8.95419e-21
-1.00339e-16
8.81006e-21
-9.85712e-17
8.70157e-21
-9.68347e-17
8.63405e-21
-9.51289e-17
8.61268e-21
-9.34531e-17
8.64213e-21
-9.18068e-17
8.72584e-21
-9.01895e-17
1.03936e-20
-1.11779e-16
2.09535e-09
-2.62187e-06
-6.54802e-06
1.91152e-09
1.03927e-21
-1.71006e-16
2.0542e-21
-1.67993e-16
3.03854e-21
-1.65034e-16
3.98485e-21
-1.62127e-16
4.88462e-21
-1.59271e-16
5.7289e-21
-1.56466e-16
6.50927e-21
-1.5371e-16
7.21874e-21
-1.51002e-16
7.85248e-21
-1.48342e-16
8.40809e-21
-1.4573e-16
8.88548e-21
-1.43163e-16
9.28658e-21
-1.40641e-16
9.61483e-21
-1.38164e-16
9.87473e-21
-1.3573e-16
1.00714e-20
-1.3334e-16
1.02101e-20
-1.30991e-16
1.02965e-20
-1.28684e-16
1.03359e-20
-1.26417e-16
1.03337e-20
-1.2419e-16
1.02953e-20
-1.22003e-16
1.02258e-20
-1.19854e-16
1.01307e-20
-1.17743e-16
1.00151e-20
-1.15669e-16
9.88451e-21
-1.13631e-16
9.74416e-21
-1.1163e-16
9.59927e-21
-1.09663e-16
9.45489e-21
-1.07731e-16
9.31581e-21
-1.05834e-16
9.1865e-21
-1.03969e-16
9.07107e-21
-1.02138e-16
8.97323e-21
-1.00339e-16
8.89626e-21
-9.85711e-17
8.8429e-21
-9.68347e-17
8.81531e-21
-9.51288e-17
8.8148e-21
-9.34531e-17
8.84161e-21
-9.18068e-17
8.8946e-21
-9.01895e-17
1.13205e-20
-1.33972e-16
1.92947e-09
-2.53554e-06
-6.18093e-06
1.34318e-09
9.21385e-22
-1.71007e-16
1.81966e-21
-1.67994e-16
2.68843e-21
-1.65035e-16
3.52123e-21
-1.62128e-16
4.31159e-21
-1.59272e-16
5.05327e-21
-1.56466e-16
5.74075e-21
-1.5371e-16
6.36962e-21
-1.51003e-16
6.93687e-21
-1.48343e-16
7.44103e-21
-1.4573e-16
7.88213e-21
-1.43163e-16
8.26153e-21
-1.40641e-16
8.58165e-21
-1.38164e-16
8.84574e-21
-1.35731e-16
9.05759e-21
-1.3334e-16
9.22137e-21
-1.30991e-16
9.34144e-21
-1.28684e-16
9.42227e-21
-1.26417e-16
9.46835e-21
-1.2419e-16
9.4842e-21
-1.22003e-16
9.47428e-21
-1.19854e-16
9.44304e-21
-1.17743e-16
9.39485e-21
-1.15669e-16
9.33401e-21
-1.13631e-16
9.26466e-21
-1.11629e-16
9.19079e-21
-1.09663e-16
9.11611e-21
-1.07731e-16
9.0441e-21
-1.05834e-16
8.97787e-21
-1.03969e-16
8.92014e-21
-1.02138e-16
8.87321e-21
-1.00339e-16
8.83889e-21
-9.85711e-17
8.81843e-21
-9.68347e-17
8.81248e-21
-9.51288e-17
8.82097e-21
-9.34531e-17
8.84307e-21
-9.18068e-17
8.87708e-21
-9.01896e-17
1.34947e-20
-1.71563e-16
1.75551e-09
-2.437e-06
-5.81866e-06
9.43022e-10
8.18245e-22
-1.71008e-16
1.61547e-21
-1.67995e-16
2.38582e-21
-1.65036e-16
3.12382e-21
-1.62129e-16
3.82436e-21
-1.59273e-16
4.48288e-21
-1.56467e-16
5.09553e-21
-1.53711e-16
5.65934e-21
-1.51003e-16
6.17238e-21
-1.48344e-16
6.63375e-21
-1.45731e-16
7.04361e-21
-1.43164e-16
7.40302e-21
-1.40642e-16
7.71384e-21
-1.38165e-16
7.97853e-21
-1.35731e-16
8.20005e-21
-1.3334e-16
8.38165e-21
-1.30991e-16
8.52683e-21
-1.28684e-16
8.63921e-21
-1.26417e-16
8.72248e-21
-1.2419e-16
8.78034e-21
-1.22003e-16
8.81646e-21
-1.19854e-16
8.83445e-21
-1.17743e-16
8.83782e-21
-1.15669e-16
8.82997e-21
-1.13631e-16
8.81409e-21
-1.11629e-16
8.79321e-21
-1.09663e-16
8.77008e-21
-1.07731e-16
8.74719e-21
-1.05834e-16
8.72671e-21
-1.03969e-16
8.71046e-21
-1.02138e-16
8.69989e-21
-1.00339e-16
8.69603e-21
-9.85711e-17
8.69948e-21
-9.68347e-17
8.71041e-21
-9.51289e-17
8.72852e-21
-9.34531e-17
8.75306e-21
-9.18068e-17
8.78286e-21
-9.01896e-17
1.70846e-20
-2.30378e-16
1.58468e-09
-2.33047e-06
-5.46156e-06
6.51392e-10
7.2925e-22
-1.71008e-16
1.43976e-21
-1.67996e-16
2.12643e-21
-1.65036e-16
2.78467e-21
-1.62129e-16
3.41041e-21
-1.59273e-16
4.00018e-21
-1.56468e-16
4.55117e-21
-1.53712e-16
5.06128e-21
-1.51004e-16
5.52921e-21
-1.48344e-16
5.95443e-21
-1.45731e-16
6.33718e-21
-1.43164e-16
6.67835e-21
-1.40642e-16
6.9794e-21
-1.38165e-16
7.24229e-21
-1.35731e-16
7.46936e-21
-1.3334e-16
7.66319e-21
-1.30992e-16
7.8266e-21
-1.28684e-16
7.96249e-21
-1.26417e-16
8.07385e-21
-1.24191e-16
8.16368e-21
-1.22003e-16
8.23492e-21
-1.19854e-16
8.29047e-21
-1.17743e-16
8.33311e-21
-1.15669e-16
8.36549e-21
-1.13631e-16
8.39011e-21
-1.11629e-16
8.40923e-21
-1.09663e-16
8.42494e-21
-1.07731e-16
8.43905e-21
-1.05834e-16
8.45313e-21
-1.03969e-16
8.46844e-21
-1.02138e-16
8.48598e-21
-1.00339e-16
8.50643e-21
-9.85711e-17
8.53017e-21
-9.68347e-17
8.5573e-21
-9.51289e-17
8.58765e-21
-9.34531e-17
8.62078e-21
-9.18069e-17
8.65607e-21
-9.01896e-17
2.2628e-20
-2.75524e-16
1.42059e-09
-2.21784e-06
-5.10993e-06
4.35425e-10
6.52877e-22
-1.71009e-16
1.28918e-21
-1.67996e-16
1.9046e-21
-1.65037e-16
2.49531e-21
-1.6213e-16
3.05807e-21
-1.59274e-16
3.59015e-21
-1.56468e-16
4.08943e-21
-1.53712e-16
4.55438e-21
-1.51004e-16
4.98412e-21
-1.48344e-16
5.37832e-21
-1.45731e-16
5.73724e-21
-1.43164e-16
6.06166e-21
-1.40643e-16
6.35277e-21
-1.38165e-16
6.61214e-21
-1.35731e-16
6.84164e-21
-1.3334e-16
7.04336e-21
-1.30992e-16
7.21955e-21
-1.28684e-16
7.37254e-21
-1.26418e-16
7.50475e-21
-1.24191e-16
7.61855e-21
-1.22003e-16
7.71633e-21
-1.19854e-16
7.80038e-21
-1.17743e-16
7.8729e-21
-1.15669e-16
7.93597e-21
-1.13631e-16
7.99152e-21
-1.1163e-16
8.04131e-21
-1.09663e-16
8.08692e-21
-1.07731e-16
8.12974e-21
-1.05834e-16
8.17093e-21
-1.03969e-16
8.21145e-21
-1.02138e-16
8.25205e-21
-1.00339e-16
8.29326e-21
-9.85711e-17
8.33541e-21
-9.68347e-17
8.37865e-21
-9.51289e-17
8.42296e-21
-9.34532e-17
8.46819e-21
-9.18069e-17
8.51405e-21
-9.01897e-17
2.66555e-20
-3.06628e-16
1.26467e-09
-2.10019e-06
-4.76404e-06
2.75333e-10
5.8736e-22
-1.71009e-16
1.1601e-21
-1.67997e-16
1.71462e-21
-1.65038e-16
2.2478e-21
-1.6213e-16
2.75699e-21
-1.59274e-16
3.24005e-21
-1.56469e-16
3.69536e-21
-1.53712e-16
4.12176e-21
-1.51005e-16
4.51862e-21
-1.48345e-16
4.88576e-21
-1.45732e-16
5.22345e-21
-1.43165e-16
5.53235e-21
-1.40643e-16
5.81344e-21
-1.38165e-16
6.06801e-21
-1.35732e-16
6.29756e-21
-1.33341e-16
6.50378e-21
-1.30992e-16
6.68848e-21
-1.28685e-16
6.85354e-21
-1.26418e-16
7.00089e-21
-1.24191e-16
7.13244e-21
-1.22003e-16
7.2501e-21
-1.19854e-16
7.35568e-21
-1.17743e-16
7.45095e-21
-1.15669e-16
7.53753e-21
-1.13631e-16
7.61695e-21
-1.1163e-16
7.69058e-21
-1.09663e-16
7.75967e-21
-1.07731e-16
7.8253e-21
-1.05834e-16
7.88839e-21
-1.03969e-16
7.94971e-21
-1.02138e-16
8.00986e-21
-1.00339e-16
8.06932e-21
-9.85712e-17
8.12841e-21
-9.68348e-17
8.18733e-21
-9.5129e-17
8.24616e-21
-9.34532e-17
8.3049e-21
-9.1807e-17
8.36347e-21
-9.01897e-17
2.91885e-20
-3.18937e-16
1.11772e-09
-1.97833e-06
-4.42416e-06
1.58278e-10
5.30989e-22
-1.7101e-16
1.04907e-21
-1.67998e-16
1.55128e-21
-1.65038e-16
2.03505e-21
-1.62131e-16
2.49827e-21
-1.59275e-16
2.93922e-21
-1.56469e-16
3.35664e-21
-1.53713e-16
3.74965e-21
-1.51005e-16
4.1178e-21
-1.48345e-16
4.46099e-21
-1.45732e-16
4.77949e-21
-1.43165e-16
5.07385e-21
-1.40643e-16
5.34489e-21
-1.38166e-16
5.59368e-21
-1.35732e-16
5.82143e-21
-1.33341e-16
6.02951e-21
-1.30992e-16
6.21938e-21
-1.28685e-16
6.39257e-21
-1.26418e-16
6.55062e-21
-1.24191e-16
6.69507e-21
-1.22003e-16
6.82746e-21
-1.19854e-16
6.94923e-21
-1.17743e-16
7.06179e-21
-1.15669e-16
7.16644e-21
-1.13631e-16
7.2644e-21
-1.1163e-16
7.35678e-21
-1.09663e-16
7.44455e-21
-1.07732e-16
7.5286e-21
-1.05834e-16
7.60968e-21
-1.03969e-16
7.68844e-21
-1.02138e-16
7.76541e-21
-1.00339e-16
7.84102e-21
-9.85713e-17
7.9156e-21
-9.68349e-17
7.9894e-21
-9.51291e-17
8.06258e-21
-9.34533e-17
8.13524e-21
-9.1807e-17
8.2074e-21
-9.01898e-17
2.98467e-20
-3.15398e-16
9.80356e-10
-1.85295e-06
-4.09056e-06
7.52838e-11
4.82225e-22
-1.7101e-16
9.53026e-22
-1.67998e-16
1.40997e-21
-1.65039e-16
1.85099e-21
-1.62131e-16
2.27436e-21
-1.59275e-16
2.67874e-21
-1.5647e-16
3.06311e-21
-1.53713e-16
3.42683e-21
-1.51006e-16
3.76955e-21
-1.48346e-16
4.09124e-21
-1.45732e-16
4.39215e-21
-1.43165e-16
4.67275e-21
-1.40643e-16
4.93373e-21
-1.38166e-16
5.17596e-21
-1.35732e-16
5.40045e-21
-1.33341e-16
5.60832e-21
-1.30992e-16
5.80075e-21
-1.28685e-16
5.97897e-21
-1.26418e-16
6.14424e-21
-1.24191e-16
6.29781e-21
-1.22004e-16
6.44091e-21
-1.19854e-16
6.57472e-21
-1.17743e-16
6.70035e-21
-1.15669e-16
6.81888e-21
-1.13631e-16
6.93128e-21
-1.1163e-16
7.03844e-21
-1.09663e-16
7.14118e-21
-1.07732e-16
7.24021e-21
-1.05834e-16
7.33617e-21
-1.0397e-16
7.42961e-21
-1.02138e-16
7.521e-21
-1.00339e-16
7.61076e-21
-9.85714e-17
7.69923e-21
-9.6835e-17
7.78672e-21
-9.51291e-17
7.8735e-21
-9.34534e-17
7.95985e-21
-9.18071e-17
8.04606e-21
-9.01899e-17
2.89926e-20
-3.03643e-16
8.5285e-10
-1.72462e-06
-3.76351e-06
1.94346e-11
4.39734e-22
-1.71011e-16
8.69322e-22
-1.67998e-16
1.28679e-21
-1.65039e-16
1.69046e-21
-1.62132e-16
2.07895e-21
-1.59276e-16
2.4512e-21
-1.5647e-16
2.80641e-21
-1.53714e-16
3.14408e-21
-1.51006e-16
3.46397e-21
-1.48346e-16
3.76609e-21
-1.45733e-16
4.05067e-21
-1.43166e-16
4.31811e-21
-1.40644e-16
4.569e-21
-1.38166e-16
4.80406e-21
-1.35732e-16
5.02413e-21
-1.33341e-16
5.23012e-21
-1.30993e-16
5.42302e-21
-1.28685e-16
5.60382e-21
-1.26418e-16
5.77356e-21
-1.24191e-16
5.93325e-21
-1.22004e-16
6.08389e-21
-1.19855e-16
6.22645e-21
-1.17743e-16
6.36185e-21
-1.15669e-16
6.49094e-21
-1.13632e-16
6.61452e-21
-1.1163e-16
6.73333e-21
-1.09664e-16
6.84804e-21
-1.07732e-16
6.95924e-21
-1.05834e-16
7.06746e-21
-1.0397e-16
7.17316e-21
-1.02138e-16
7.27676e-21
-1.00339e-16
7.3786e-21
-9.85715e-17
7.47901e-21
-9.68351e-17
7.57825e-21
-9.51292e-17
7.67657e-21
-9.34535e-17
7.7742e-21
-9.18072e-17
7.8714e-21
-9.019e-17
2.73473e-20
-2.89546e-16
7.33186e-10
-1.59382e-06
-3.44332e-06
-8.88384e-12
4.02385e-22
-1.71011e-16
7.95725e-22
-1.67999e-16
1.17843e-21
-1.65039e-16
1.54914e-21
-1.62132e-16
1.90677e-21
-1.59276e-16
2.25046e-21
-1.5647e-16
2.5796e-21
-1.53714e-16
2.89382e-21
-1.51006e-16
3.19295e-21
-1.48346e-16
3.47701e-21
-1.45733e-16
3.74622e-21
-1.43166e-16
4.00095e-21
-1.40644e-16
4.24169e-21
-1.38166e-16
4.46906e-21
-1.35733e-16
4.68374e-21
-1.33342e-16
4.88651e-21
-1.30993e-16
5.07817e-21
-1.28685e-16
5.25956e-21
-1.26418e-16
5.43153e-21
-1.24192e-16
5.59492e-21
-1.22004e-16
5.75055e-21
-1.19855e-16
5.89923e-21
-1.17743e-16
6.04169e-21
-1.15669e-16
6.17866e-21
-1.13632e-16
6.3108e-21
-1.1163e-16
6.43871e-21
-1.09664e-16
6.56294e-21
-1.07732e-16
6.68398e-21
-1.05834e-16
6.80226e-21
-1.0397e-16
6.91818e-21
-1.02138e-16
7.03206e-21
-1.00339e-16
7.14418e-21
-9.85716e-17
7.25477e-21
-9.68352e-17
7.36403e-21
-9.51294e-17
7.47209e-21
-9.34536e-17
7.57905e-21
-9.18073e-17
7.68494e-21
-9.01901e-17
2.54911e-20
-2.72774e-16
6.22351e-10
-1.46096e-06
-3.13032e-06
-2.06529e-11
3.69227e-22
-1.71012e-16
7.30361e-22
-1.67999e-16
1.08212e-21
-1.6504e-16
1.42344e-21
-1.62132e-16
1.75344e-21
-1.59276e-16
2.07145e-21
-1.56471e-16
2.377e-21
-1.53714e-16
2.66982e-21
-1.51007e-16
2.94979e-21
-1.48346e-16
3.21697e-21
-1.45733e-16
3.47156e-21
-1.43166e-16
3.71388e-21
-1.40644e-16
3.94437e-21
-1.38167e-16
4.16355e-21
-1.35733e-16
4.37201e-21
-1.33342e-16
4.5704e-21
-1.30993e-16
4.75939e-21
-1.28685e-16
4.93971e-21
-1.26419e-16
5.11205e-21
-1.24192e-16
5.27712e-21
-1.22004e-16
5.43561e-21
-1.19855e-16
5.5882e-21
-1.17744e-16
5.73551e-21
-1.15669e-16
5.87814e-21
-1.13632e-16
6.01664e-21
-1.1163e-16
6.15152e-21
-1.09664e-16
6.28323e-21
-1.07732e-16
6.41218e-21
-1.05834e-16
6.53873e-21
-1.0397e-16
6.66319e-21
-1.02138e-16
6.78582e-21
-1.00339e-16
6.90685e-21
-9.85717e-17
7.02645e-21
-9.68353e-17
7.14475e-21
-9.51295e-17
7.26187e-21
-9.34537e-17
7.37785e-21
-9.18075e-17
7.49275e-21
-9.01902e-17
2.3448e-20
-2.53696e-16
5.21868e-10
-1.32646e-06
-2.82484e-06
-2.7228e-11
3.39469e-22
-1.71012e-16
6.71676e-22
-1.68e-16
9.95599e-22
-1.6504e-16
1.31039e-21
-1.62133e-16
1.61535e-21
-1.59277e-16
1.90997e-21
-1.56471e-16
2.1939e-21
-1.53715e-16
2.46693e-21
-1.51007e-16
2.729e-21
-1.48347e-16
2.98018e-21
-1.45734e-16
3.22067e-21
-1.43166e-16
3.45076e-21
-1.40644e-16
3.67084e-21
-1.38167e-16
3.88136e-21
-1.35733e-16
4.08283e-21
-1.33342e-16
4.27581e-21
-1.30993e-16
4.46088e-21
-1.28686e-16
4.63866e-21
-1.26419e-16
4.80974e-21
-1.24192e-16
4.97475e-21
-1.22004e-16
5.13427e-21
-1.19855e-16
5.28887e-21
-1.17744e-16
5.4391e-21
-1.1567e-16
5.58546e-21
-1.13632e-16
5.72844e-21
-1.1163e-16
5.86845e-21
-1.09664e-16
6.00589e-21
-1.07732e-16
6.1411e-21
-1.05834e-16
6.27439e-21
-1.0397e-16
6.406e-21
-1.02139e-16
6.53614e-21
-1.00339e-16
6.66499e-21
-9.85718e-17
6.79268e-21
-9.68354e-17
6.9193e-21
-9.51296e-17
7.04493e-21
-9.34538e-17
7.16959e-21
-9.18076e-17
7.29333e-21
-9.01903e-17
2.126e-20
-2.34305e-16
4.31293e-10
-1.19074e-06
-2.52727e-06
-3.02437e-11
3.12461e-22
-1.71012e-16
6.18384e-22
-1.68e-16
9.16963e-22
-1.6504e-16
1.20752e-21
-1.62133e-16
1.48953e-21
-1.59277e-16
1.76259e-21
-1.56471e-16
2.02643e-21
-1.53715e-16
2.28092e-21
-1.51007e-16
2.52604e-21
-1.48347e-16
2.76188e-21
-1.45734e-16
2.98862e-21
-1.43167e-16
3.20653e-21
-1.40645e-16
3.41596e-21
-1.38167e-16
3.61732e-21
-1.35733e-16
3.81105e-21
-1.33342e-16
3.99765e-21
-1.30993e-16
4.17764e-21
-1.28686e-16
4.35154e-21
-1.26419e-16
4.5199e-21
-1.24192e-16
4.68325e-21
-1.22004e-16
4.84211e-21
-1.19855e-16
4.99699e-21
-1.17744e-16
5.14838e-21
-1.1567e-16
5.29672e-21
-1.13632e-16
5.44245e-21
-1.11631e-16
5.58593e-21
-1.09664e-16
5.72751e-21
-1.07732e-16
5.8675e-21
-1.05835e-16
6.00615e-21
-1.0397e-16
6.14368e-21
-1.02139e-16
6.28024e-21
-1.00339e-16
6.41598e-21
-9.8572e-17
6.55099e-21
-9.68355e-17
6.68531e-21
-9.51297e-17
6.81897e-21
-9.3454e-17
6.95198e-21
-9.18077e-17
7.08429e-21
-9.01905e-17
1.91028e-20
-2.14361e-16
3.50326e-10
-1.05427e-06
-2.23803e-06
-3.06007e-11
2.87666e-22
-1.71013e-16
5.69434e-22
-1.68e-16
8.44669e-22
-1.65041e-16
1.11284e-21
-1.62133e-16
1.37355e-21
-1.59277e-16
1.62648e-21
-1.56471e-16
1.87144e-21
-1.53715e-16
2.10835e-21
-1.51007e-16
2.33722e-21
-1.48347e-16
2.55816e-21
-1.45734e-16
2.77133e-21
-1.43167e-16
2.977e-21
-1.40645e-16
3.17548e-21
-1.38167e-16
3.36714e-21
-1.35733e-16
3.55238e-21
-1.33342e-16
3.73165e-21
-1.30994e-16
3.90542e-21
-1.28686e-16
4.07416e-21
-1.26419e-16
4.23836e-21
-1.24192e-16
4.39852e-21
-1.22005e-16
4.5551e-21
-1.19855e-16
4.70859e-21
-1.17744e-16
4.85942e-21
-1.1567e-16
5.00803e-21
-1.13632e-16
5.15481e-21
-1.11631e-16
5.30012e-21
-1.09664e-16
5.44429e-21
-1.07732e-16
5.5876e-21
-1.05835e-16
5.73029e-21
-1.0397e-16
5.87255e-21
-1.02139e-16
6.01452e-21
-1.0034e-16
6.15631e-21
-9.85721e-17
6.29797e-21
-9.68357e-17
6.4395e-21
-9.51299e-17
6.58088e-21
-9.34541e-17
6.72207e-21
-9.18079e-17
6.86299e-21
-9.01906e-17
1.69608e-20
-1.94475e-16
2.78729e-10
-9.17565e-07
-1.9576e-06
-2.9112e-11
2.64647e-22
-1.71013e-16
5.23967e-22
-1.68e-16
7.77459e-22
-1.65041e-16
1.02472e-21
-1.62134e-16
1.26542e-21
-1.59277e-16
1.49934e-21
-1.56472e-16
1.72635e-21
-1.53715e-16
1.9464e-21
-1.51007e-16
2.15953e-21
-1.48347e-16
2.36583e-21
-1.45734e-16
2.5655e-21
-1.43167e-16
2.75876e-21
-1.40645e-16
2.94591e-21
-1.38167e-16
3.12728e-21
-1.35734e-16
3.30325e-21
-1.33343e-16
3.47423e-21
-1.30994e-16
3.64063e-21
-1.28686e-16
3.80291e-21
-1.26419e-16
3.96152e-21
-1.24192e-16
4.11692e-21
-1.22005e-16
4.26958e-21
-1.19855e-16
4.41994e-21
-1.17744e-16
4.56844e-21
-1.1567e-16
4.71551e-21
-1.13632e-16
4.86156e-21
-1.11631e-16
5.00694e-21
-1.09664e-16
5.15201e-21
-1.07733e-16
5.29706e-21
-1.05835e-16
5.44234e-21
-1.0397e-16
5.58807e-21
-1.02139e-16
5.7344e-21
-1.0034e-16
5.8814e-21
-9.85722e-17
6.0291e-21
-9.68358e-17
6.17746e-21
-9.513e-17
6.32636e-21
-9.34543e-17
6.47563e-21
-9.1808e-17
6.625e-21
-9.01907e-17
1.48815e-20
-1.75188e-16
2.16138e-10
-7.81191e-07
-1.68655e-06
-2.64165e-11
2.43055e-22
-1.71013e-16
4.81293e-22
-1.68001e-16
7.14322e-22
-1.65041e-16
9.41824e-22
-1.62134e-16
1.16356e-21
-1.59278e-16
1.37935e-21
-1.56472e-16
1.58912e-21
-1.53715e-16
1.79283e-21
-1.51008e-16
1.99055e-21
-1.48348e-16
2.18238e-21
-1.45734e-16
2.36849e-21
-1.43167e-16
2.54909e-21
-1.40645e-16
2.72447e-21
-1.38168e-16
2.89493e-21
-1.35734e-16
3.06081e-21
-1.33343e-16
3.22248e-21
-1.30994e-16
3.38035e-21
-1.28686e-16
3.53483e-21
-1.26419e-16
3.68636e-21
-1.24193e-16
3.83538e-21
-1.22005e-16
3.98234e-21
-1.19856e-16
4.1277e-21
-1.17744e-16
4.27191e-21
-1.1567e-16
4.41543e-21
-1.13633e-16
4.55867e-21
-1.11631e-16
4.70207e-21
-1.09665e-16
4.84602e-21
-1.07733e-16
4.99089e-21
-1.05835e-16
5.137e-21
-1.03971e-16
5.28463e-21
-1.02139e-16
5.43401e-21
-1.0034e-16
5.58526e-21
-9.85724e-17
5.73846e-21
-9.6836e-17
5.89357e-21
-9.51302e-17
6.05044e-21
-9.34544e-17
6.2088e-21
-9.18082e-17
6.36821e-21
-9.01909e-17
1.29172e-20
-1.56937e-16
1.62333e-10
-6.45749e-07
-1.42557e-06
-2.27903e-11
2.22611e-22
-1.71013e-16
4.40866e-22
-1.68001e-16
6.54456e-22
-1.65041e-16
8.63132e-22
-1.62134e-16
1.06671e-21
-1.59278e-16
1.26506e-21
-1.56472e-16
1.45812e-21
-1.53716e-16
1.64589e-21
-1.51008e-16
1.82842e-21
-1.48348e-16
2.00583e-21
-1.45735e-16
2.17826e-21
-1.43167e-16
2.34592e-21
-1.40645e-16
2.50905e-21
-1.38168e-16
2.66793e-21
-1.35734e-16
2.82288e-21
-1.33343e-16
2.97424e-21
-1.30994e-16
3.12237e-21
-1.28686e-16
3.26767e-21
-1.2642e-16
3.41055e-21
-1.24193e-16
3.55144e-21
-1.22005e-16
3.6908e-21
-1.19856e-16
3.82909e-21
-1.17744e-16
3.96678e-21
-1.1567e-16
4.10436e-21
-1.13633e-16
4.24233e-21
-1.11631e-16
4.38118e-21
-1.09665e-16
4.5214e-21
-1.07733e-16
4.6635e-21
-1.05835e-16
4.80793e-21
-1.03971e-16
4.95514e-21
-1.02139e-16
5.10552e-21
-1.0034e-16
5.2594e-21
-9.85725e-17
5.41705e-21
-9.68361e-17
5.5786e-21
-9.51303e-17
5.74406e-21
-9.34546e-17
5.91331e-21
-9.18083e-17
6.08601e-21
-9.01911e-17
1.10977e-20
-1.39965e-16
1.16958e-10
-5.11921e-07
-1.17545e-06
-1.85375e-11
2.03096e-22
-1.71014e-16
4.02258e-22
-1.68001e-16
5.97237e-22
-1.65042e-16
7.87837e-22
-1.62134e-16
9.73908e-22
-1.59278e-16
1.15535e-21
-1.56472e-16
1.33213e-21
-1.53716e-16
1.50425e-21
-1.51008e-16
1.67175e-21
-1.48348e-16
1.83473e-21
-1.45735e-16
1.99333e-21
-1.43167e-16
2.14773e-21
-1.40646e-16
2.29814e-21
-1.38168e-16
2.4448e-21
-1.35734e-16
2.588e-21
-1.33343e-16
2.72803e-21
-1.30994e-16
2.86522e-21
-1.28687e-16
2.99994e-21
-1.2642e-16
3.13258e-21
-1.24193e-16
3.26353e-21
-1.22005e-16
3.39323e-21
-1.19856e-16
3.52216e-21
-1.17745e-16
3.65079e-21
-1.1567e-16
3.77966e-21
-1.13633e-16
3.90932e-21
-1.11631e-16
4.04036e-21
-1.09665e-16
4.17338e-21
-1.07733e-16
4.30905e-21
-1.05835e-16
4.44803e-21
-1.03971e-16
4.59102e-21
-1.02139e-16
4.73873e-21
-1.0034e-16
4.89184e-21
-9.85727e-17
5.051e-21
-9.68363e-17
5.21679e-21
-9.51305e-17
5.38969e-21
-9.34547e-17
5.56999e-21
-9.18085e-17
5.75778e-21
-9.01913e-17
9.40831e-21
-1.24032e-16
7.93683e-11
-3.80863e-07
-9.3724e-07
-1.4376e-11
1.84345e-22
-1.71014e-16
3.65144e-22
-1.68001e-16
5.42193e-22
-1.65042e-16
7.1533e-22
-1.62134e-16
8.84432e-22
-1.59278e-16
1.04942e-21
-1.56472e-16
1.21026e-21
-1.53716e-16
1.36695e-21
-1.51008e-16
1.51953e-21
-1.48348e-16
1.66808e-21
-1.45735e-16
1.81271e-21
-1.43168e-16
1.95357e-21
-1.40646e-16
2.09082e-21
-1.38168e-16
2.22468e-21
-1.35734e-16
2.35537e-21
-1.33343e-16
2.48315e-21
-1.30994e-16
2.6083e-21
-1.28687e-16
2.73111e-21
-1.2642e-16
2.85194e-21
-1.24193e-16
2.97114e-21
-1.22005e-16
3.0891e-21
-1.19856e-16
3.20627e-21
-1.17745e-16
3.32311e-21
-1.15671e-16
3.44014e-21
-1.13633e-16
3.55793e-21
-1.11631e-16
3.67713e-21
-1.09665e-16
3.79845e-21
-1.07733e-16
3.92268e-21
-1.05835e-16
4.0507e-21
-1.03971e-16
4.18349e-21
-1.0214e-16
4.32215e-21
-1.0034e-16
4.46786e-21
-9.85728e-17
4.6219e-21
-9.68365e-17
4.78561e-21
-9.51307e-17
4.96035e-21
-9.34549e-17
5.14738e-21
-9.18087e-17
5.34776e-21
-9.01915e-17
7.78905e-21
-1.09134e-16
4.92511e-11
-2.55282e-07
-7.1225e-07
-1.05998e-11
1.66235e-22
-1.71014e-16
3.29284e-22
-1.68001e-16
4.88975e-22
-1.65042e-16
6.45169e-22
-1.62135e-16
7.97758e-22
-1.59278e-16
9.46671e-22
-1.56473e-16
1.09187e-21
-1.53716e-16
1.23335e-21
-1.51008e-16
1.37113e-21
-1.48348e-16
1.50526e-21
-1.45735e-16
1.63583e-21
-1.43168e-16
1.76295e-21
-1.40646e-16
1.88673e-21
-1.38168e-16
2.00732e-21
-1.35734e-16
2.12491e-21
-1.33343e-16
2.23967e-21
-1.30994e-16
2.35183e-21
-1.28687e-16
2.46161e-21
-1.2642e-16
2.56927e-21
-1.24193e-16
2.6751e-21