/*--------------------------------*- C++ -*----------------------------------*\
  =========                 |
  \\      /  F ield         | OpenFOAM: The Open Source CFD Toolbox
   \\    /   O peration     | Website:  https://openfoam.org
    \\  /    A nd           | Version:  7
     \\/     M anipulation  |
\*---------------------------------------------------------------------------*/
FoamFile
{
    version     2.0;
    format      ascii;
    class       volVectorField;
    location    "25000";
    object      Ua;
}
// * * * * * * * * * * * * * * * * * * * * * * * * * * * * * * * * * * * * * //

dimensions      [0 1 -1 0 0 0 0];

internalField   nonuniform List<vector> 
3200
(
(-1.09471e-06 1.58094e-06 0)
(-3.45571e-06 1.86152e-06 0)
(-6.41775e-06 2.53756e-06 0)
(-1.0691e-05 3.92626e-06 0)
(-1.76341e-05 6.769e-06 0)
(-3.00983e-05 1.27868e-05 0)
(-2.24251e-05 1.83316e-05 0)
(-4.05307e-06 2.71181e-05 0)
(-1.0633e-06 7.67768e-06 0)
(-5.30724e-07 4.02557e-06 0)
(-3.19006e-07 2.53353e-06 0)
(-2.11715e-07 1.75491e-06 0)
(-1.49866e-07 1.29269e-06 0)
(-1.11132e-07 9.94729e-07 0)
(-8.5404e-08 7.91347e-07 0)
(-6.75232e-08 6.46368e-07 0)
(-5.46379e-08 5.393e-07 0)
(-4.50761e-08 4.58017e-07 0)
(-3.77993e-08 3.94819e-07 0)
(-3.21405e-08 3.44643e-07 0)
(-2.76599e-08 3.041e-07 0)
(-2.40563e-08 2.70874e-07 0)
(-2.11164e-08 2.43266e-07 0)
(-1.8672e-08 2.20055e-07 0)
(-1.63299e-08 1.99986e-07 0)
(-1.37075e-08 1.83098e-07 0)
(-1.08507e-08 1.71019e-07 0)
(-8.26554e-09 1.61032e-07 0)
(-6.45876e-09 1.51858e-07 0)
(-5.35156e-09 1.4354e-07 0)
(-4.63897e-09 1.36078e-07 0)
(-4.14851e-09 1.2941e-07 0)
(-3.78126e-09 1.23446e-07 0)
(-3.47657e-09 1.18072e-07 0)
(-3.19172e-09 1.13147e-07 0)
(-2.89021e-09 1.08496e-07 0)
(-2.53513e-09 1.03919e-07 0)
(-2.08382e-09 9.9257e-08 0)
(-1.47887e-09 9.43913e-08 0)
(-6.00918e-10 8.8411e-08 0)
(-6.85914e-07 4.15246e-06 0)
(-2.04426e-06 4.71154e-06 0)
(-3.31854e-06 5.97575e-06 0)
(-4.22579e-06 8.31773e-06 0)
(-3.85136e-06 1.24839e-05 0)
(4.26357e-07 1.98948e-05 0)
(1.01686e-05 2.41949e-05 0)
(1.489e-05 6.53828e-06 0)
(1.23178e-05 3.82495e-06 0)
(1.03941e-05 2.65598e-06 0)
(9.07815e-06 1.96561e-06 0)
(8.14352e-06 1.51862e-06 0)
(7.45626e-06 1.20984e-06 0)
(6.93853e-06 9.84975e-07 0)
(6.54364e-06 8.13731e-07 0)
(6.24263e-06 6.77985e-07 0)
(6.01694e-06 5.66339e-07 0)
(5.85433e-06 4.71578e-07 0)
(5.74617e-06 3.89442e-07 0)
(5.68501e-06 3.1864e-07 0)
(5.66152e-06 2.62168e-07 0)
(5.6593e-06 2.30737e-07 0)
(5.6448e-06 2.50214e-07 0)
(5.54849e-06 3.75116e-07 0)
(4.16757e-06 1.44645e-07 0)
(1.65705e-06 -5.30185e-06 0)
(2.2453e-07 -1.11093e-05 0)
(-3.62588e-08 7.68973e-08 0)
(-7.86051e-08 8.95133e-08 0)
(-7.88559e-08 9.88258e-08 0)
(-6.95653e-08 1.03866e-07 0)
(-5.92336e-08 1.05708e-07 0)
(-5.00876e-08 1.05401e-07 0)
(-4.25021e-08 1.0366e-07 0)
(-3.62917e-08 1.00867e-07 0)
(-3.10743e-08 9.70889e-08 0)
(-2.62931e-08 9.2042e-08 0)
(-2.11251e-08 8.49838e-08 0)
(-1.55508e-08 7.50822e-08 0)
(-6.5359e-09 6.47196e-08 0)
(-2.80126e-07 5.54758e-06 0)
(-7.66146e-07 6.00273e-06 0)
(-1.00704e-06 6.92875e-06 0)
(-7.52822e-07 8.34239e-06 0)
(3.61778e-07 1.01499e-05 0)
(2.69086e-06 1.18426e-05 0)
(5.83053e-06 1.16944e-05 0)
(7.88673e-06 8.17822e-06 0)
(8.25166e-06 5.83018e-06 0)
(7.99405e-06 4.31149e-06 0)
(7.5635e-06 3.29317e-06 0)
(7.12311e-06 2.58178e-06 0)
(6.727e-06 2.06412e-06 0)
(6.38913e-06 1.67216e-06 0)
(6.10952e-06 1.3635e-06 0)
(5.88425e-06 1.11062e-06 0)
(5.70932e-06 8.94805e-07 0)
(5.58245e-06 7.02749e-07 0)
(5.50435e-06 5.24528e-07 0)
(5.48083e-06 3.52545e-07 0)
(5.52692e-06 1.81082e-07 0)
(5.67545e-06 6.39101e-09 0)
(5.99498e-06 -1.72699e-07 0)
(6.62564e-06 -3.55776e-07 0)
(7.59244e-06 -1.11461e-06 0)
(6.6534e-06 -7.42431e-06 0)
(1.35397e-06 -1.36498e-05 0)
(-1.81148e-06 -1.509e-06 0)
(-7.54484e-07 -9.50617e-07 0)
(-6.24016e-08 -6.21648e-07 0)
(4.20925e-07 -4.28756e-07 0)
(7.85572e-07 -3.21417e-07 0)
(1.08812e-06 -2.73071e-07 0)
(1.36846e-06 -2.71242e-07 0)
(1.65933e-06 -3.12712e-07 0)
(1.99252e-06 -4.01594e-07 0)
(2.4038e-06 -5.49319e-07 0)
(2.69449e-06 -7.76157e-07 0)
(2.62841e-06 -3.84626e-07 0)
(1.48397e-06 -4.94779e-08 0)
(-2.27631e-08 5.985e-06 0)
(-7.70126e-09 6.2498e-06 0)
(1.89067e-07 6.74327e-06 0)
(6.86193e-07 7.38671e-06 0)
(1.5744e-06 8.01724e-06 0)
(2.83838e-06 8.34234e-06 0)
(4.23297e-06 7.97238e-06 0)
(5.31599e-06 6.83289e-06 0)
(5.89269e-06 5.63198e-06 0)
(6.10221e-06 4.59475e-06 0)
(6.099e-06 3.75309e-06 0)
(5.98835e-06 3.08124e-06 0)
(5.83233e-06 2.54263e-06 0)
(5.66507e-06 2.10416e-06 0)
(5.50449e-06 1.73904e-06 0)
(5.35959e-06 1.42627e-06 0)
(5.23457e-06 1.14913e-06 0)
(5.1312e-06 8.93674e-07 0)
(5.04986e-06 6.47252e-07 0)
(4.98978e-06 3.96827e-07 0)
(4.94818e-06 1.2676e-07 0)
(4.91715e-06 -1.84768e-07 0)
(4.8758e-06 -5.72069e-07 0)
(4.77167e-06 -1.09362e-06 0)
(4.47833e-06 -1.8535e-06 0)
(3.75353e-06 -2.92507e-06 0)
(2.59337e-06 -3.42134e-06 0)
(1.66311e-06 -2.36325e-06 0)
(1.27801e-06 -1.67708e-06 0)
(1.14409e-06 -1.2318e-06 0)
(1.12444e-06 -9.48964e-07 0)
(1.15505e-06 -7.82202e-07 0)
(1.20598e-06 -7.05535e-07 0)
(1.26298e-06 -7.06826e-07 0)
(1.31834e-06 -7.84328e-07 0)
(1.3657e-06 -9.45207e-07 0)
(1.3961e-06 -1.20547e-06 0)
(1.39391e-06 -1.59085e-06 0)
(1.87176e-06 -6.15539e-07 0)
(1.55867e-06 -9.47372e-08 0)
(1.05686e-07 5.86525e-06 0)
(3.51544e-07 5.98814e-06 0)
(6.9625e-07 6.19936e-06 0)
(1.18758e-06 6.43471e-06 0)
(1.83934e-06 6.59847e-06 0)
(2.61031e-06 6.57462e-06 0)
(3.39435e-06 6.27144e-06 0)
(4.05813e-06 5.70748e-06 0)
(4.52798e-06 5.03524e-06 0)
(4.8129e-06 4.36426e-06 0)
(4.95521e-06 3.74775e-06 0)
(4.99963e-06 3.20298e-06 0)
(4.98208e-06 2.72896e-06 0)
(4.92816e-06 2.31693e-06 0)
(4.85483e-06 1.95569e-06 0)
(4.77263e-06 1.63391e-06 0)
(4.68754e-06 1.34099e-06 0)
(4.60214e-06 1.06715e-06 0)
(4.51623e-06 8.03269e-07 0)
(4.42685e-06 5.40553e-07 0)
(4.32774e-06 2.70421e-07 0)
(4.20822e-06 -1.52286e-08 0)
(4.0519e-06 -3.22592e-07 0)
(3.83593e-06 -6.51851e-07 0)
(3.53438e-06 -9.87051e-07 0)
(3.13399e-06 -1.27303e-06 0)
(2.6736e-06 -1.38794e-06 0)
(2.25117e-06 -1.27652e-06 0)
(1.9281e-06 -1.10108e-06 0)
(1.69471e-06 -9.29982e-07 0)
(1.52502e-06 -7.90155e-07 0)
(1.39348e-06 -6.90987e-07 0)
(1.27859e-06 -6.35253e-07 0)
(1.16214e-06 -6.24025e-07 0)
(1.0274e-06 -6.58839e-07 0)
(8.57228e-07 -7.42548e-07 0)
(6.32449e-07 -8.79506e-07 0)
(3.30621e-07 -1.0752e-06 0)
(1.2749e-06 -2.69028e-07 0)
(1.60421e-06 -2.13047e-08 0)
(1.56284e-07 5.48692e-06 0)
(4.84614e-07 5.52916e-06 0)
(8.57657e-07 5.59251e-06 0)
(1.29317e-06 5.64063e-06 0)
(1.78876e-06 5.62775e-06 0)
(2.31829e-06 5.51006e-06 0)
(2.83602e-06 5.26355e-06 0)
(3.29262e-06 4.90108e-06 0)
(3.6565e-06 4.46809e-06 0)
(3.92116e-06 4.01021e-06 0)
(4.09682e-06 3.55965e-06 0)
(4.20046e-06 3.13448e-06 0)
(4.24952e-06 2.74236e-06 0)
(4.2589e-06 2.38432e-06 0)
(4.24007e-06 2.05779e-06 0)
(4.20112e-06 1.75839e-06 0)
(4.14719e-06 1.4811e-06 0)
(4.08089e-06 1.22089e-06 0)
(4.00266e-06 9.73169e-07 0)
(3.91101e-06 7.34069e-07 0)
(3.80266e-06 5.00943e-07 0)
(3.67287e-06 2.73028e-07 0)
(3.5161e-06 5.24956e-08 0)
(3.32739e-06 -1.54124e-07 0)
(3.10499e-06 -3.34514e-07 0)
(2.85412e-06 -4.70561e-07 0)
(2.58997e-06 -5.43829e-07 0)
(2.33386e-06 -5.52342e-07 0)
(2.10109e-06 -5.179e-07 0)
(1.89523e-06 -4.61502e-07 0)
(1.71181e-06 -3.97879e-07 0)
(1.54219e-06 -3.35761e-07 0)
(1.37575e-06 -2.79333e-07 0)
(1.20068e-06 -2.29482e-07 0)
(1.00397e-06 -1.84514e-07 0)
(7.70804e-07 -1.40354e-07 0)
(4.83526e-07 -9.03015e-08 0)
(1.2026e-07 -2.43978e-08 0)
(1.12243e-06 1.13924e-08 0)
(1.54767e-06 3.23041e-08 0)
(1.67224e-07 5.01972e-06 0)
(5.07047e-07 5.02251e-06 0)
(8.62859e-07 5.01758e-06 0)
(1.24042e-06 4.98735e-06 0)
(1.63544e-06 4.9118e-06 0)
(2.03366e-06 4.7745e-06 0)
(2.41425e-06 4.56898e-06 0)
(2.75614e-06 4.3022e-06 0)
(3.04449e-06 3.99187e-06 0)
(3.2735e-06 3.65836e-06 0)
(3.44492e-06 3.3191e-06 0)
(3.56499e-06 2.98651e-06 0)
(3.64173e-06 2.66811e-06 0)
(3.68308e-06 2.36757e-06 0)
(3.69594e-06 2.08591e-06 0)
(3.68571e-06 1.82249e-06 0)
(3.65628e-06 1.57585e-06 0)
(3.61007e-06 1.34423e-06 0)
(3.54828e-06 1.12607e-06 0)
(3.47104e-06 9.20303e-07 0)
(3.37781e-06 7.26737e-07 0)
(3.26772e-06 5.46335e-07 0)
(3.14013e-06 3.81461e-07 0)
(2.99529e-06 2.35943e-07 0)
(2.83516e-06 1.14743e-07 0)
(2.66385e-06 2.29305e-08 0)
(2.48743e-06 -3.62054e-08 0)
(2.31257e-06 -6.33373e-08 0)
(2.14435e-06 -6.31645e-08 0)
(1.98508e-06 -4.15044e-08 0)
(1.83448e-06 -3.25425e-09 0)
(1.69037e-06 4.85764e-08 0)
(1.5495e-06 1.13221e-07 0)
(1.4082e-06 1.9229e-07 0)
(1.26292e-06 2.89929e-07 0)
(1.11081e-06 4.13139e-07 0)
(9.50359e-07 5.72329e-07 0)
(7.82385e-07 7.82139e-07 0)
(1.40775e-06 1.62334e-07 0)
(1.35426e-06 5.70933e-08 0)
(1.60338e-07 4.54667e-06 0)
(4.81358e-07 4.53256e-06 0)
(8.04716e-07 4.49998e-06 0)
(1.13143e-06 4.44142e-06 0)
(1.45787e-06 4.34885e-06 0)
(1.77623e-06 4.21652e-06 0)
(2.07631e-06 4.04333e-06 0)
(2.34814e-06 3.83356e-06 0)
(2.58427e-06 3.59576e-06 0)
(2.78095e-06 3.34015e-06 0)
(2.93795e-06 3.07647e-06 0)
(3.05755e-06 2.81263e-06 0)
(3.14346e-06 2.55438e-06 0)
(3.19986e-06 2.30547e-06 0)
(3.23079e-06 2.06803e-06 0)
(3.23975e-06 1.84306e-06 0)
(3.22959e-06 1.63089e-06 0)
(3.20244e-06 1.4315e-06 0)
(3.15984e-06 1.24484e-06 0)
(3.10286e-06 1.07108e-06 0)
(3.03231e-06 9.10747e-07 0)
(2.94893e-06 7.64821e-07 0)
(2.85374e-06 6.34756e-07 0)
(2.74817e-06 5.22338e-07 0)
(2.6343e-06 4.29418e-07 0)
(2.51482e-06 3.57494e-07 0)
(2.39286e-06 3.07252e-07 0)
(2.27151e-06 2.78282e-07 0)
(2.15341e-06 2.69231e-07 0)
(2.04045e-06 2.78383e-07 0)
(1.93383e-06 3.04245e-07 0)
(1.83431e-06 3.45977e-07 0)
(1.74261e-06 4.0364e-07 0)
(1.65988e-06 4.78306e-07 0)
(1.58822e-06 5.72089e-07 0)
(1.53135e-06 6.88086e-07 0)
(1.49541e-06 8.30251e-07 0)
(1.48995e-06 1.00302e-06 0)
(1.71972e-06 1.49712e-07 0)
(1.18719e-06 4.67671e-08 0)
(1.46667e-07 4.1033e-06 0)
(4.38173e-07 4.08342e-06 0)
(7.26135e-07 4.04238e-06 0)
(1.00975e-06 3.97755e-06 0)
(1.28617e-06 3.88627e-06 0)
(1.55086e-06 3.76713e-06 0)
(1.79843e-06 3.62087e-06 0)
(2.02373e-06 3.45056e-06 0)
(2.22279e-06 3.26112e-06 0)
(2.39336e-06 3.05841e-06 0)
(2.5349e-06 2.84826e-06 0)
(2.6483e-06 2.6358e-06 0)
(2.73534e-06 2.42524e-06 0)
(2.79833e-06 2.2197e-06 0)
(2.83969e-06 2.02144e-06 0)
(2.86176e-06 1.83198e-06 0)
(2.86663e-06 1.65234e-06 0)
(2.85611e-06 1.48325e-06 0)
(2.83177e-06 1.32528e-06 0)
(2.79498e-06 1.17903e-06 0)
(2.747e-06 1.04512e-06 0)
(2.68912e-06 9.24317e-07 0)
(2.62272e-06 8.17421e-07 0)
(2.54938e-06 7.25249e-07 0)
(2.47087e-06 6.48493e-07 0)
(2.38916e-06 5.8759e-07 0)
(2.30628e-06 5.42619e-07 0)
(2.22426e-06 5.13271e-07 0)
(2.14497e-06 4.98913e-07 0)
(2.0701e-06 4.98745e-07 0)
(2.0012e-06 5.11956e-07 0)
(1.93976e-06 5.37832e-07 0)
(1.88739e-06 5.75803e-07 0)
(1.84596e-06 6.2539e-07 0)
(1.81784e-06 6.86077e-07 0)
(1.80592e-06 7.57066e-07 0)
(1.81379e-06 8.3692e-07 0)
(1.84554e-06 9.22933e-07 0)
(1.84471e-06 1.16481e-07 0)
(1.07215e-06 3.28813e-08 0)
(1.31372e-07 3.70177e-06 0)
(3.91519e-07 3.68119e-06 0)
(6.45961e-07 3.64016e-06 0)
(8.93274e-07 3.57825e-06 0)
(1.13123e-06 3.49515e-06 0)
(1.35695e-06 3.3912e-06 0)
(1.56733e-06 3.26776e-06 0)
(1.7595e-06 3.12724e-06 0)
(1.93123e-06 2.97294e-06 0)
(2.08117e-06 2.80861e-06 0)
(2.20889e-06 2.63804e-06 0)
(2.31476e-06 2.46476e-06 0)
(2.39977e-06 2.29182e-06 0)
(2.46526e-06 2.12173e-06 0)
(2.51281e-06 1.95649e-06 0)
(2.54402e-06 1.79764e-06 0)
(2.56048e-06 1.64637e-06 0)
(2.56369e-06 1.5036e-06 0)
(2.55507e-06 1.37011e-06 0)
(2.53596e-06 1.24655e-06 0)
(2.50769e-06 1.1335e-06 0)
(2.47158e-06 1.03151e-06 0)
(2.42898e-06 9.41028e-07 0)
(2.38131e-06 8.62434e-07 0)
(2.33005e-06 7.95955e-07 0)
(2.2767e-06 7.41648e-07 0)
(2.2228e-06 6.99361e-07 0)
(2.16983e-06 6.68741e-07 0)
(2.11921e-06 6.49251e-07 0)
(2.07228e-06 6.40211e-07 0)
(2.03031e-06 6.40826e-07 0)
(1.99455e-06 6.50204e-07 0)
(1.96619e-06 6.6734e-07 0)
(1.94642e-06 6.91059e-07 0)
(1.93644e-06 7.19941e-07 0)
(1.93735e-06 7.52198e-07 0)
(1.95006e-06 7.85548e-07 0)
(1.97508e-06 8.16957e-07 0)
(1.86216e-06 9.56776e-08 0)
(9.91925e-07 2.49653e-08 0)
(1.16688e-07 3.34353e-06 0)
(3.47331e-07 3.32437e-06 0)
(5.71807e-07 3.28672e-06 0)
(7.88577e-07 3.23111e-06 0)
(9.95853e-07 3.15816e-06 0)
(1.19167e-06 3.06888e-06 0)
(1.37409e-06 2.96476e-06 0)
(1.54136e-06 2.8478e-06 0)
(1.69218e-06 2.72042e-06 0)
(1.82572e-06 2.58526e-06 0)
(1.9417e-06 2.44499e-06 0)
(2.04034e-06 2.30215e-06 0)
(2.12223e-06 2.15902e-06 0)
(2.18827e-06 2.01758e-06 0)
(2.23953e-06 1.8795e-06 0)
(2.27718e-06 1.74616e-06 0)
(2.30246e-06 1.61867e-06 0)
(2.31658e-06 1.49794e-06 0)
(2.32077e-06 1.38471e-06 0)
(2.3162e-06 1.2796e-06 0)
(2.30409e-06 1.18308e-06 0)
(2.28561e-06 1.09556e-06 0)
(2.26195e-06 1.0173e-06 0)
(2.23431e-06 9.4847e-07 0)
(2.20388e-06 8.891e-07 0)
(2.17186e-06 8.3909e-07 0)
(2.13938e-06 7.98193e-07 0)
(2.10755e-06 7.66023e-07 0)
(2.07742e-06 7.4206e-07 0)
(2.04994e-06 7.2566e-07 0)
(2.02599e-06 7.16066e-07 0)
(2.00637e-06 7.12405e-07 0)
(1.99173e-06 7.13685e-07 0)
(1.98264e-06 7.18785e-07 0)
(1.97949e-06 7.26433e-07 0)
(1.98244e-06 7.35205e-07 0)
(1.9914e-06 7.43518e-07 0)
(2.00592e-06 7.49515e-07 0)
(1.83891e-06 8.61882e-08 0)
(9.30554e-07 2.19539e-08 0)
(1.03452e-07 3.02561e-06 0)
(3.07761e-07 3.00858e-06 0)
(5.06162e-07 2.97537e-06 0)
(6.97213e-07 2.92682e-06 0)
(8.7946e-07 2.86392e-06 0)
(1.05148e-06 2.78782e-06 0)
(1.21194e-06 2.69996e-06 0)
(1.35974e-06 2.60204e-06 0)
(1.49404e-06 2.49593e-06 0)
(1.61433e-06 2.38361e-06 0)
(1.72047e-06 2.26709e-06 0)
(1.81259e-06 2.14827e-06 0)
(1.89113e-06 2.02889e-06 0)
(1.95673e-06 1.91053e-06 0)
(2.01017e-06 1.79456e-06 0)
(2.05234e-06 1.68211e-06 0)
(2.08421e-06 1.57418e-06 0)
(2.10677e-06 1.47156e-06 0)
(2.12102e-06 1.37491e-06 0)
(2.12797e-06 1.28474e-06 0)
(2.12864e-06 1.20145e-06 0)
(2.12401e-06 1.12533e-06 0)
(2.1151e-06 1.05655e-06 0)
(2.10286e-06 9.9519e-07 0)
(2.08824e-06 9.41193e-07 0)
(2.07216e-06 8.94408e-07 0)
(2.05548e-06 8.54575e-07 0)
(2.03901e-06 8.21331e-07 0)
(2.02349e-06 7.94213e-07 0)
(2.00957e-06 7.72671e-07 0)
(1.99782e-06 7.56074e-07 0)
(1.98869e-06 7.43715e-07 0)
(1.98254e-06 7.34821e-07 0)
(1.97958e-06 7.28563e-07 0)
(1.97986e-06 7.24066e-07 0)
(1.9833e-06 7.20433e-07 0)
(1.9896e-06 7.16769e-07 0)
(1.99831e-06 7.11989e-07 0)
(1.80292e-06 8.26317e-08 0)
(8.79673e-07 2.14402e-08 0)
(9.18716e-08 2.74353e-06 0)
(2.73255e-07 2.72873e-06 0)
(4.49261e-07 2.69997e-06 0)
(6.18616e-07 2.65817e-06 0)
(7.80133e-07 2.60436e-06 0)
(9.32728e-07 2.53968e-06 0)
(1.07545e-06 2.46542e-06 0)
(1.20755e-06 2.38303e-06 0)
(1.32845e-06 2.294e-06 0)
(1.43786e-06 2.1999e-06 0)
(1.53568e-06 2.10227e-06 0)
(1.62205e-06 2.0026e-06 0)
(1.6973e-06 1.90226e-06 0)
(1.76192e-06 1.80251e-06 0)
(1.81651e-06 1.70443e-06 0)
(1.86177e-06 1.609e-06 0)
(1.89846e-06 1.51703e-06 0)
(1.92738e-06 1.42918e-06 0)
(1.94935e-06 1.34602e-06 0)
(1.9652e-06 1.26798e-06 0)
(1.97575e-06 1.19539e-06 0)
(1.98182e-06 1.12845e-06 0)
(1.98422e-06 1.0673e-06 0)
(1.98372e-06 1.01196e-06 0)
(1.98105e-06 9.62363e-07 0)
(1.97693e-06 9.1837e-07 0)
(1.97199e-06 8.79749e-07 0)
(1.96682e-06 8.46195e-07 0)
(1.96195e-06 8.1734e-07 0)
(1.95783e-06 7.92755e-07 0)
(1.95481e-06 7.71966e-07 0)
(1.95319e-06 7.54457e-07 0)
(1.95315e-06 7.3969e-07 0)
(1.95476e-06 7.27111e-07 0)
(1.95802e-06 7.16173e-07 0)
(1.96281e-06 7.06347e-07 0)
(1.96891e-06 6.97151e-07 0)
(1.97605e-06 6.87772e-07 0)
(1.7637e-06 8.15619e-08 0)
(8.35086e-07 2.19135e-08 0)
(8.18793e-08 2.49261e-06 0)
(2.43534e-07 2.47986e-06 0)
(4.00408e-07 2.45516e-06 0)
(5.51412e-07 2.41937e-06 0)
(6.95576e-07 2.37346e-06 0)
(8.32053e-07 2.31846e-06 0)
(9.60136e-07 2.25551e-06 0)
(1.07927e-06 2.18582e-06 0)
(1.18909e-06 2.11063e-06 0)
(1.28937e-06 2.0312e-06 0)
(1.38009e-06 1.94875e-06 0)
(1.46137e-06 1.86448e-06 0)
(1.53348e-06 1.77946e-06 0)
(1.5968e-06 1.69472e-06 0)
(1.65181e-06 1.61115e-06 0)
(1.69907e-06 1.52953e-06 0)
(1.73918e-06 1.45053e-06 0)
(1.77278e-06 1.37472e-06 0)
(1.80054e-06 1.30257e-06 0)
(1.82313e-06 1.23442e-06 0)
(1.84122e-06 1.17055e-06 0)
(1.85545e-06 1.11113e-06 0)
(1.86648e-06 1.05626e-06 0)
(1.8749e-06 1.00597e-06 0)
(1.8813e-06 9.60192e-07 0)
(1.88621e-06 9.18815e-07 0)
(1.89012e-06 8.81659e-07 0)
(1.89347e-06 8.48494e-07 0)
(1.89663e-06 8.19048e-07 0)
(1.89993e-06 7.93009e-07 0)
(1.90362e-06 7.70041e-07 0)
(1.90789e-06 7.49792e-07 0)
(1.91285e-06 7.31902e-07 0)
(1.91856e-06 7.16016e-07 0)
(1.92502e-06 7.01794e-07 0)
(1.93214e-06 6.88927e-07 0)
(1.93982e-06 6.77142e-07 0)
(1.94794e-06 6.65619e-07 0)
(1.72406e-06 8.11231e-08 0)
(7.9463e-07 2.2571e-08 0)
(7.33043e-08 2.2685e-06 0)
(2.18052e-07 2.25756e-06 0)
(3.58594e-07 2.23639e-06 0)
(4.94017e-07 2.20577e-06 0)
(6.23528e-07 2.16654e-06 0)
(7.46454e-07 2.11964e-06 0)
(8.62254e-07 2.06605e-06 0)
(9.70517e-07 2.00677e-06 0)
(1.07097e-06 1.94284e-06 0)
(1.16348e-06 1.87528e-06 0)
(1.24804e-06 1.8051e-06 0)
(1.32477e-06 1.73325e-06 0)
(1.39388e-06 1.66062e-06 0)
(1.45568e-06 1.58803e-06 0)
(1.51058e-06 1.5162e-06 0)
(1.55899e-06 1.44579e-06 0)
(1.60142e-06 1.37735e-06 0)
(1.63838e-06 1.31136e-06 0)
(1.6704e-06 1.24818e-06 0)
(1.69803e-06 1.18814e-06 0)
(1.72178e-06 1.13144e-06 0)
(1.7422e-06 1.07825e-06 0)
(1.75978e-06 1.02866e-06 0)
(1.775e-06 9.82675e-07 0)
(1.78832e-06 9.4028e-07 0)
(1.80015e-06 9.01388e-07 0)
(1.81086e-06 8.65875e-07 0)
(1.82079e-06 8.33579e-07 0)
(1.83022e-06 8.04308e-07 0)
(1.83939e-06 7.7785e-07 0)
(1.8485e-06 7.53975e-07 0)
(1.85769e-06 7.32448e-07 0)
(1.86705e-06 7.13032e-07 0)
(1.87664e-06 6.95501e-07 0)
(1.88647e-06 6.79641e-07 0)
(1.89652e-06 6.65261e-07 0)
(1.90675e-06 6.52193e-07 0)
(1.9171e-06 6.39535e-07 0)
(1.68466e-06 8.03655e-08 0)
(7.57177e-07 2.2998e-08 0)
(6.59481e-08 2.06739e-06 0)
(1.96203e-07 2.058e-06 0)
(3.22771e-07 2.03982e-06 0)
(4.44896e-07 2.01355e-06 0)
(5.61932e-07 1.97992e-06 0)
(6.73341e-07 1.93974e-06 0)
(7.787e-07 1.89385e-06 0)
(8.77697e-07 1.84309e-06 0)
(9.70131e-07 1.78833e-06 0)
(1.05591e-06 1.73042e-06 0)
(1.13505e-06 1.67017e-06 0)
(1.20765e-06 1.60839e-06 0)
(1.27389e-06 1.54578e-06 0)
(1.33403e-06 1.48303e-06 0)
(1.38839e-06 1.42074e-06 0)
(1.43732e-06 1.35944e-06 0)
(1.48121e-06 1.29959e-06 0)
(1.52048e-06 1.24159e-06 0)
(1.55556e-06 1.18577e-06 0)
(1.58687e-06 1.13237e-06 0)
(1.61485e-06 1.0816e-06 0)
(1.63992e-06 1.03359e-06 0)
(1.66247e-06 9.88433e-07 0)
(1.68289e-06 9.46156e-07 0)
(1.70153e-06 9.06753e-07 0)
(1.71871e-06 8.70177e-07 0)
(1.73474e-06 8.3635e-07 0)
(1.74986e-06 8.05165e-07 0)
(1.76432e-06 7.76497e-07 0)
(1.77828e-06 7.50202e-07 0)
(1.79192e-06 7.26131e-07 0)
(1.80535e-06 7.04128e-07 0)
(1.81866e-06 6.8404e-07 0)
(1.83191e-06 6.65722e-07 0)
(1.84513e-06 6.49036e-07 0)
(1.85833e-06 6.33859e-07 0)
(1.87151e-06 6.20085e-07 0)
(1.88463e-06 6.06781e-07 0)
(1.64559e-06 7.88107e-08 0)
(7.22211e-07 2.29716e-08 0)
(5.96188e-08 1.88606e-06 0)
(1.77407e-07 1.87795e-06 0)
(2.91964e-07 1.86228e-06 0)
(4.02669e-07 1.83962e-06 0)
(5.08996e-07 1.81063e-06 0)
(6.10515e-07 1.77599e-06 0)
(7.06892e-07 1.73641e-06 0)
(7.97886e-07 1.69262e-06 0)
(8.83348e-07 1.64533e-06 0)
(9.63217e-07 1.59526e-06 0)
(1.03751e-06 1.54308e-06 0)
(1.10632e-06 1.48945e-06 0)
(1.1698e-06 1.43497e-06 0)
(1.22817e-06 1.3802e-06 0)
(1.28167e-06 1.32564e-06 0)
(1.33061e-06 1.27173e-06 0)
(1.37529e-06 1.21888e-06 0)
(1.41605e-06 1.1674e-06 0)
(1.45325e-06 1.11758e-06 0)
(1.48721e-06 1.06964e-06 0)
(1.51829e-06 1.02375e-06 0)
(1.54683e-06 9.80047e-07 0)
(1.57314e-06 9.38611e-07 0)
(1.59753e-06 8.99488e-07 0)
(1.62028e-06 8.6269e-07 0)
(1.64165e-06 8.282e-07 0)
(1.66188e-06 7.95973e-07 0)
(1.68117e-06 7.65948e-07 0)
(1.69971e-06 7.38045e-07 0)
(1.71766e-06 7.12173e-07 0)
(1.73514e-06 6.88235e-07 0)
(1.75227e-06 6.66131e-07 0)
(1.76914e-06 6.45763e-07 0)
(1.78579e-06 6.27036e-07 0)
(1.8023e-06 6.09863e-07 0)
(1.81867e-06 5.94169e-07 0)
(1.83493e-06 5.79895e-07 0)
(1.85106e-06 5.66153e-07 0)
(1.60694e-06 7.61637e-08 0)
(6.89587e-07 2.23044e-08 0)
(5.41437e-08 1.72176e-06 0)
(1.61148e-07 1.71473e-06 0)
(2.65315e-07 1.70112e-06 0)
(3.66137e-07 1.68145e-06 0)
(4.6319e-07 1.65628e-06 0)
(5.56128e-07 1.62618e-06 0)
(6.44688e-07 1.59177e-06 0)
(7.28683e-07 1.55366e-06 0)
(8.08001e-07 1.51245e-06 0)
(8.82601e-07 1.46874e-06 0)
(9.52505e-07 1.42311e-06 0)
(1.0178e-06 1.37609e-06 0)
(1.0786e-06 1.32819e-06 0)
(1.1351e-06 1.27989e-06 0)
(1.18751e-06 1.23159e-06 0)
(1.23605e-06 1.18368e-06 0)
(1.281e-06 1.1365e-06 0)
(1.32261e-06 1.09032e-06 0)
(1.36118e-06 1.04538e-06 0)
(1.39698e-06 1.0019e-06 0)
(1.43029e-06 9.60015e-07 0)
(1.46138e-06 9.19856e-07 0)
(1.49051e-06 8.81508e-07 0)
(1.51792e-06 8.45025e-07 0)
(1.54385e-06 8.10436e-07 0)
(1.5685e-06 7.77745e-07 0)
(1.59207e-06 7.46937e-07 0)
(1.61473e-06 7.17979e-07 0)
(1.63662e-06 6.90826e-07 0)
(1.65788e-06 6.65422e-07 0)
(1.67864e-06 6.41706e-07 0)
(1.69898e-06 6.19612e-07 0)
(1.71899e-06 5.99072e-07 0)
(1.73874e-06 5.80021e-07 0)
(1.75831e-06 5.62396e-07 0)
(1.77775e-06 5.46141e-07 0)
(1.79713e-06 5.31204e-07 0)
(1.81649e-06 5.1677e-07 0)
(1.56869e-06 7.20541e-08 0)
(6.59249e-07 2.03964e-08 0)
(4.93729e-08 1.57227e-06 0)
(1.46979e-07 1.56612e-06 0)
(2.42086e-07 1.55421e-06 0)
(3.34282e-07 1.53699e-06 0)
(4.23225e-07 1.51493e-06 0)
(5.0864e-07 1.48855e-06 0)
(5.90317e-07 1.45835e-06 0)
(6.68113e-07 1.42486e-06 0)
(7.41944e-07 1.38859e-06 0)
(8.11784e-07 1.35005e-06 0)
(8.77657e-07 1.30971e-06 0)
(9.39636e-07 1.26804e-06 0)
(9.97834e-07 1.22546e-06 0)
(1.0524e-06 1.18238e-06 0)
(1.1035e-06 1.13914e-06 0)
(1.15134e-06 1.09607e-06 0)
(1.19612e-06 1.05347e-06 0)
(1.23808e-06 1.01157e-06 0)
(1.27744e-06 9.70584e-07 0)
(1.31443e-06 9.30698e-07 0)
(1.34927e-06 8.92055e-07 0)
(1.38219e-06 8.5477e-07 0)
(1.4134e-06 8.1893e-07 0)
(1.4431e-06 7.84599e-07 0)
(1.47147e-06 7.51816e-07 0)
(1.49868e-06 7.20605e-07 0)
(1.5249e-06 6.90968e-07 0)
(1.55027e-06 6.62897e-07 0)
(1.5749e-06 6.3637e-07 0)
(1.59892e-06 6.11356e-07 0)
(1.62242e-06 5.87818e-07 0)
(1.64549e-06 5.6571e-07 0)
(1.6682e-06 5.44986e-07 0)
(1.69061e-06 5.25591e-07 0)
(1.71279e-06 5.07472e-07 0)
(1.73479e-06 4.90568e-07 0)
(1.75667e-06 4.74814e-07 0)
(1.77846e-06 4.59459e-07 0)
(1.52737e-06 6.64196e-08 0)
(6.27142e-07 1.71983e-08 0)
(4.51793e-08 1.43572e-06 0)
(1.34522e-07 1.43029e-06 0)
(2.21655e-07 1.41977e-06 0)
(3.06248e-07 1.40455e-06 0)
(3.88025e-07 1.38504e-06 0)
(4.66768e-07 1.36167e-06 0)
(5.42314e-07 1.3349e-06 0)
(6.1455e-07 1.30515e-06 0)
(6.83415e-07 1.27288e-06 0)
(7.48895e-07 1.23851e-06 0)
(8.11016e-07 1.20245e-06 0)
(8.69844e-07 1.16509e-06 0)
(9.25475e-07 1.12679e-06 0)
(9.78033e-07 1.0879e-06 0)
(1.02767e-06 1.04873e-06 0)
(1.07454e-06 1.00954e-06 0)
(1.11882e-06 9.70602e-07 0)
(1.16071e-06 9.32119e-07 0)
(1.20038e-06 8.94287e-07 0)
(1.23804e-06 8.57267e-07 0)
(1.27386e-06 8.21195e-07 0)
(1.30802e-06 7.86182e-07 0)
(1.34071e-06 7.52318e-07 0)
(1.37209e-06 7.19671e-07 0)
(1.4023e-06 6.88294e-07 0)
(1.4315e-06 6.58219e-07 0)
(1.45981e-06 6.29468e-07 0)
(1.48735e-06 6.02048e-07 0)
(1.51422e-06 5.75959e-07 0)
(1.54052e-06 5.51187e-07 0)
(1.56632e-06 5.27716e-07 0)
(1.59169e-06 5.05518e-07 0)
(1.6167e-06 4.84564e-07 0)
(1.64138e-06 4.64816e-07 0)
(1.66578e-06 4.46234e-07 0)
(1.68992e-06 4.2877e-07 0)
(1.71382e-06 4.12373e-07 0)
(1.73745e-06 3.96422e-07 0)
(1.48356e-06 5.95195e-08 0)
(5.93906e-07 1.33611e-08 0)
(4.14563e-08 1.3106e-06 0)
(1.2346e-07 1.30576e-06 0)
(2.03504e-07 1.29636e-06 0)
(2.81322e-07 1.28277e-06 0)
(3.56696e-07 1.26532e-06 0)
(4.29454e-07 1.24441e-06 0)
(4.99467e-07 1.2204e-06 0)
(5.66651e-07 1.19368e-06 0)
(6.30963e-07 1.16464e-06 0)
(6.92396e-07 1.13362e-06 0)
(7.5098e-07 1.10099e-06 0)
(8.06773e-07 1.06709e-06 0)
(8.5986e-07 1.03222e-06 0)
(9.10348e-07 9.96678e-07 0)
(9.58363e-07 9.60732e-07 0)
(1.00404e-06 9.24625e-07 0)
(1.04754e-06 8.88576e-07 0)
(1.089e-06 8.52781e-07 0)
(1.1286e-06 8.1741e-07 0)
(1.16648e-06 7.82613e-07 0)
(1.20281e-06 7.48517e-07 0)
(1.23774e-06 7.15233e-07 0)
(1.27141e-06 6.82849e-07 0)
(1.30397e-06 6.5144e-07 0)
(1.33553e-06 6.21065e-07 0)
(1.36623e-06 5.91771e-07 0)
(1.39616e-06 5.6359e-07 0)
(1.42543e-06 5.36548e-07 0)
(1.45411e-06 5.10658e-07 0)
(1.4823e-06 4.85927e-07 0)
(1.51004e-06 4.62354e-07 0)
(1.5374e-06 4.39931e-07 0)
(1.56441e-06 4.18646e-07 0)
(1.59113e-06 3.98483e-07 0)
(1.61756e-06 3.79419e-07 0)
(1.64373e-06 3.6143e-07 0)
(1.66965e-06 3.44491e-07 0)
(1.69531e-06 3.28133e-07 0)
(1.43964e-06 5.11767e-08 0)
(5.62311e-07 8.60306e-09 0)
(3.81152e-08 1.19569e-06 0)
(1.1353e-07 1.19131e-06 0)
(1.872e-07 1.18284e-06 0)
(2.58913e-07 1.17055e-06 0)
(3.28498e-07 1.15478e-06 0)
(3.95819e-07 1.13584e-06 0)
(4.60778e-07 1.11406e-06 0)
(5.23312e-07 1.08978e-06 0)
(5.83392e-07 1.06332e-06 0)
(6.4102e-07 1.03499e-06 0)
(6.96224e-07 1.0051e-06 0)
(7.49061e-07 9.73947e-07 0)
(7.99606e-07 9.41792e-07 0)
(8.47952e-07 9.08893e-07 0)
(8.9421e-07 8.75483e-07 0)
(9.38498e-07 8.41777e-07 0)
(9.80945e-07 8.0797e-07 0)
(1.02169e-06 7.74235e-07 0)
(1.06086e-06 7.40729e-07 0)
(1.09859e-06 7.07591e-07 0)
(1.13503e-06 6.74941e-07 0)
(1.1703e-06 6.42887e-07 0)
(1.20452e-06 6.11519e-07 0)
(1.23782e-06 5.80916e-07 0)
(1.27031e-06 5.51145e-07 0)
(1.30208e-06 5.22261e-07 0)
(1.33324e-06 4.94312e-07 0)
(1.36385e-06 4.67334e-07 0)
(1.394e-06 4.41358e-07 0)
(1.42374e-06 4.16407e-07 0)
(1.45313e-06 3.92496e-07 0)
(1.48221e-06 3.69637e-07 0)
(1.51101e-06 3.47834e-07 0)
(1.53956e-06 3.27087e-07 0)
(1.56789e-06 3.07392e-07 0)
(1.59599e-06 2.88741e-07 0)
(1.62388e-06 2.71123e-07 0)
(1.65154e-06 2.54201e-07 0)
(1.39498e-06 4.09884e-08 0)
(5.31672e-07 2.27894e-09 0)
(3.50828e-08 1.08998e-06 0)
(1.04514e-07 1.08599e-06 0)
(1.72387e-07 1.07825e-06 0)
(2.38535e-07 1.06702e-06 0)
(3.02822e-07 1.05259e-06 0)
(3.65145e-07 1.03523e-06 0)
(4.25427e-07 1.01525e-06 0)
(4.83625e-07 9.9291e-07 0)
(5.39721e-07 9.6851e-07 0)
(5.93722e-07 9.42321e-07 0)
(6.45659e-07 9.14606e-07 0)
(6.95584e-07 8.85617e-07 0)
(7.43566e-07 8.55591e-07 0)
(7.89689e-07 8.2475e-07 0)
(8.34049e-07 7.93298e-07 0)
(8.76753e-07 7.61425e-07 0)
(9.17913e-07 7.29305e-07 0)
(9.57647e-07 6.97095e-07 0)
(9.96076e-07 6.64937e-07 0)
(1.03332e-06 6.32961e-07 0)
(1.0695e-06 6.01281e-07 0)
(1.10472e-06 5.70001e-07 0)
(1.13911e-06 5.39212e-07 0)
(1.17276e-06 5.08998e-07 0)
(1.20578e-06 4.79431e-07 0)
(1.23825e-06 4.50576e-07 0)
(1.27026e-06 4.22492e-07 0)
(1.30188e-06 3.95228e-07 0)
(1.33316e-06 3.68831e-07 0)
(1.36417e-06 3.4334e-07 0)
(1.39494e-06 3.18788e-07 0)
(1.42552e-06 2.95203e-07 0)
(1.45592e-06 2.72609e-07 0)
(1.48616e-06 2.51022e-07 0)
(1.51625e-06 2.30455e-07 0)
(1.54619e-06 2.10913e-07 0)
(1.57598e-06 1.92399e-07 0)
(1.60558e-06 1.74706e-07 0)
(1.34907e-06 2.8635e-08 0)
(5.01781e-07 -6.20057e-09 0)
(3.22988e-08 9.92669e-07 0)
(9.62341e-08 9.88984e-07 0)
(1.58774e-07 9.81837e-07 0)
(2.19787e-07 9.71462e-07 0)
(2.79169e-07 9.58105e-07 0)
(3.36839e-07 9.4202e-07 0)
(3.92742e-07 9.23459e-07 0)
(4.46847e-07 9.02673e-07 0)
(4.99144e-07 8.7991e-07 0)
(5.49647e-07 8.55409e-07 0)
(5.98388e-07 8.294e-07 0)
(6.45416e-07 8.02103e-07 0)
(6.90793e-07 7.73725e-07 0)
(7.34597e-07 7.44459e-07 0)
(7.76916e-07 7.14486e-07 0)
(8.17843e-07 6.83974e-07 0)
(8.57482e-07 6.53077e-07 0)
(8.95938e-07 6.21937e-07 0)
(9.3332e-07 5.90683e-07 0)
(9.69739e-07 5.59434e-07 0)
(1.0053e-06 5.28299e-07 0)
(1.04012e-06 4.97377e-07 0)
(1.07428e-06 4.6676e-07 0)
(1.10791e-06 4.36532e-07 0)
(1.14107e-06 4.06771e-07 0)
(1.17387e-06 3.77551e-07 0)
(1.20637e-06 3.4894e-07 0)
(1.23865e-06 3.21001e-07 0)
(1.27076e-06 2.93796e-07 0)
(1.30275e-06 2.67381e-07 0)
(1.33467e-06 2.4181e-07 0)
(1.36653e-06 2.1713e-07 0)
(1.39835e-06 1.93384e-07 0)
(1.43015e-06 1.70611e-07 0)
(1.46191e-06 1.48842e-07 0)
(1.49364e-06 1.28097e-07 0)
(1.52532e-06 1.0839e-07 0)
(1.55691e-06 8.96281e-08 0)
(1.3016e-06 1.36607e-08 0)
(4.72447e-07 -1.73424e-08 0)
(2.97143e-08 9.03112e-07 0)
(8.85447e-08 8.99674e-07 0)
(1.46123e-07 8.93001e-07 0)
(2.02346e-07 8.83308e-07 0)
(2.57134e-07 8.70813e-07 0)
(3.10424e-07 8.55741e-07 0)
(3.62177e-07 8.38316e-07 0)
(4.12373e-07 8.1876e-07 0)
(4.61009e-07 7.9729e-07 0)
(5.08102e-07 7.74116e-07 0)
(5.53684e-07 7.49439e-07 0)
(5.97801e-07 7.2345e-07 0)
(6.40514e-07 6.9633e-07 0)
(6.81891e-07 6.6825e-07 0)
(7.22013e-07 6.39368e-07 0)
(7.60967e-07 6.09831e-07 0)
(7.98848e-07 5.79776e-07 0)
(8.35752e-07 5.49328e-07 0)
(8.71781e-07 5.18605e-07 0)
(9.07038e-07 4.87713e-07 0)
(9.41627e-07 4.56753e-07 0)
(9.75649e-07 4.25819e-07 0)
(1.0092e-06 3.94999e-07 0)
(1.04239e-06 3.64377e-07 0)
(1.0753e-06 3.34032e-07 0)
(1.10802e-06 3.04045e-07 0)
(1.14063e-06 2.74492e-07 0)
(1.17321e-06 2.45448e-07 0)
(1.20581e-06 2.1699e-07 0)
(1.23848e-06 1.89195e-07 0)
(1.27127e-06 1.62136e-07 0)
(1.30421e-06 1.35888e-07 0)
(1.3373e-06 1.10523e-07 0)
(1.37054e-06 8.61089e-08 0)
(1.40391e-06 6.27068e-08 0)
(1.43739e-06 4.0369e-08 0)
(1.47092e-06 1.91349e-08 0)
(1.50443e-06 -9.7822e-10 0)
(1.25168e-06 -5.0156e-09 0)
(4.43283e-07 -3.14136e-08 0)
(2.729e-08 8.20788e-07 0)
(8.1329e-08 8.17549e-07 0)
(1.34242e-07 8.11258e-07 0)
(1.8595e-07 8.0211e-07 0)
(2.3639e-07 7.90305e-07 0)
(2.85515e-07 7.76042e-07 0)
(3.33296e-07 7.59523e-07 0)
(3.79722e-07 7.40944e-07 0)
(4.24794e-07 7.20495e-07 0)
(4.68532e-07 6.98361e-07 0)
(5.10966e-07 6.74719e-07 0)
(5.5214e-07 6.49737e-07 0)
(5.9211e-07 6.23572e-07 0)
(6.3094e-07 5.96373e-07 0)
(6.68703e-07 5.68278e-07 0)
(7.05481e-07 5.39414e-07 0)
(7.41359e-07 5.09901e-07 0)
(7.76429e-07 4.79848e-07 0)
(8.10787e-07 4.49357e-07 0)
(8.44532e-07 4.18522e-07 0)
(8.77765e-07 3.87434e-07 0)
(9.10586e-07 3.56175e-07 0)
(9.43099e-07 3.24826e-07 0)
(9.75405e-07 2.93465e-07 0)
(1.0076e-06 2.62171e-07 0)
(1.03979e-06 2.31022e-07 0)
(1.07205e-06 2.00099e-07 0)
(1.10448e-06 1.69486e-07 0)
(1.13715e-06 1.39272e-07 0)
(1.17013e-06 1.09549e-07 0)
(1.20348e-06 8.04179e-08 0)
(1.23723e-06 5.19835e-08 0)
(1.27141e-06 2.43558e-08 0)
(1.30603e-06 -2.35145e-09 0)
(1.34106e-06 -2.80229e-08 0)
(1.37645e-06 -5.25444e-08 0)
(1.41213e-06 -7.58073e-08 0)
(1.44798e-06 -9.76493e-08 0)
(1.19942e-06 -2.88229e-08 0)
(4.14751e-07 -4.91919e-08 0)
(2.49945e-08 7.45281e-07 0)
(7.44944e-08 7.42202e-07 0)
(1.22981e-07 7.36218e-07 0)
(1.70393e-07 7.27511e-07 0)
(2.1668e-07 7.1626e-07 0)
(2.61808e-07 7.02649e-07 0)
(3.05755e-07 6.86855e-07 0)
(3.48515e-07 6.69054e-07 0)
(3.90092e-07 6.49417e-07 0)
(4.30505e-07 6.28105e-07 0)