/*--------------------------------*- C++ -*----------------------------------*\
  =========                 |
  \\      /  F ield         | OpenFOAM: The Open Source CFD Toolbox
   \\    /   O peration     | Website:  https://openfoam.org
    \\  /    A nd           | Version:  7
     \\/     M anipulation  |
\*---------------------------------------------------------------------------*/
FoamFile
{
    version     2.0;
    format      ascii;
    class       volVectorField;
    location    "25000";
    object      Ub;
}
// * * * * * * * * * * * * * * * * * * * * * * * * * * * * * * * * * * * * * //

dimensions      [0 1 -1 0 0 0 0];

internalField   nonuniform List<vector> 
3200
(
(-1.94999e-20 -9.87871e-16 0)
(-6.15559e-20 -9.87866e-16 0)
(-1.14318e-19 -9.87854e-16 0)
(-1.90438e-19 -9.87829e-16 0)
(-3.15881e-19 -9.87778e-16 0)
(-2.49295e-09 -9.92124e-16 0)
(-2.63786e-05 -1.29818e-06 0)
(-5.66397e-05 -2.50126e-05 0)
(-6.1491e-05 -6.72182e-06 0)
(-6.29941e-05 -3.35388e-06 0)
(-6.39012e-05 -2.01767e-06 0)
(-6.45433e-05 -1.34087e-06 0)
(-6.50324e-05 -9.50539e-07 0)
(-6.54213e-05 -7.05773e-07 0)
(-6.574e-05 -5.42997e-07 0)
(-6.60068e-05 -4.2978e-07 0)
(-6.62342e-05 -3.481e-07 0)
(-6.64307e-05 -2.87443e-07 0)
(-6.66025e-05 -2.41262e-07 0)
(-6.67542e-05 -2.05328e-07 0)
(-6.68893e-05 -1.76849e-07 0)
(-6.70104e-05 -1.53935e-07 0)
(-6.71196e-05 -1.35232e-07 0)
(-6.72188e-05 -1.19774e-07 0)
(-6.60044e-05 -2.99402e-06 0)
(-6.11782e-05 -8.21403e-06 0)
(-5.25264e-05 -1.18365e-05 0)
(-4.30276e-05 -1.04586e-05 0)
(-3.59533e-05 -6.47853e-06 0)
(-3.16748e-05 -4.05145e-06 0)
(-2.90495e-05 -2.62183e-06 0)
(-2.73649e-05 -1.8209e-06 0)
(-2.61756e-05 -1.43596e-06 0)
(-2.51809e-05 -1.36515e-06 0)
(-2.41421e-05 -1.58988e-06 0)
(-2.28186e-05 -2.16631e-06 0)
(-2.09106e-05 -3.23501e-06 0)
(-1.79908e-05 -5.05206e-06 0)
(-1.34399e-05 -7.96737e-06 0)
(-6.49691e-06 -1.21306e-05 0)
(-1.22181e-20 -9.87825e-16 0)
(-3.64139e-20 -9.87815e-16 0)
(-5.91124e-20 -9.87792e-16 0)
(-7.52732e-20 -9.8775e-16 0)
(-6.86035e-20 -9.87676e-16 0)
(7.5946e-21 -9.87544e-16 0)
(1.8113e-19 -9.86925e-16 0)
(2.65232e-19 -9.50896e-16 0)
(2.19415e-19 -9.19253e-16 0)
(1.85147e-19 -8.89995e-16 0)
(1.61707e-19 -8.62351e-16 0)
(1.45059e-19 -8.35947e-16 0)
(1.32817e-19 -8.1056e-16 0)
(1.23595e-19 -7.86046e-16 0)
(1.16561e-19 -7.62301e-16 0)
(1.11199e-19 -7.39247e-16 0)
(1.07178e-19 -7.16827e-16 0)
(1.04282e-19 -6.94991e-16 0)
(1.02355e-19 -6.73701e-16 0)
(1.01266e-19 -6.52926e-16 0)
(1.00847e-19 -6.32636e-16 0)
(1.00808e-19 -6.12809e-16 0)
(1.0055e-19 -5.93422e-16 0)
(3.18293e-18 -5.63525e-15 0)
(1.45249e-08 -2.88734e-06 0)
(6.5893e-08 -8.11818e-06 0)
(1.1895e-07 -1.17484e-05 0)
(-4.23849e-06 -1.03767e-05 0)
(-1.12774e-05 -6.40184e-06 0)
(-1.55741e-05 -3.97925e-06 0)
(-1.82355e-05 -2.55355e-06 0)
(-1.99619e-05 -1.75604e-06 0)
(-2.11944e-05 -1.37412e-06 0)
(-2.22313e-05 -1.30601e-06 0)
(-2.33107e-05 -1.53319e-06 0)
(-2.46725e-05 -2.11191e-06 0)
(-2.66163e-05 -3.18284e-06 0)
(-2.93259e-05 -5.68029e-06 0)
(-3.19156e-05 -1.28764e-05 0)
(-1.77299e-05 -6.81455e-05 0)
(-4.98983e-21 -9.878e-16 0)
(-1.36472e-20 -9.87792e-16 0)
(-1.79381e-20 -9.87775e-16 0)
(-1.34099e-20 -9.8775e-16 0)
(6.44428e-21 -9.87718e-16 0)
(4.79317e-20 -9.87688e-16 0)
(1.03858e-19 -9.8769e-16 0)
(1.40485e-19 -9.87753e-16 0)
(1.46985e-19 -9.87795e-16 0)
(1.42396e-19 -9.87822e-16 0)
(1.34727e-19 -9.8784e-16 0)
(1.26882e-19 -9.87853e-16 0)
(1.19827e-19 -9.87862e-16 0)
(1.13808e-19 -9.87869e-16 0)
(1.08828e-19 -9.87874e-16 0)
(1.04815e-19 -9.87879e-16 0)
(1.01699e-19 -9.87883e-16 0)
(9.94389e-20 -9.87886e-16 0)
(9.80478e-20 -9.87889e-16 0)
(9.7629e-20 -9.87892e-16 0)
(9.84499e-20 -9.87895e-16 0)
(1.01096e-19 -9.87898e-16 0)
(1.06787e-19 -9.87902e-16 0)
(1.18021e-19 -9.87905e-16 0)
(1.35242e-19 -9.87908e-16 0)
(1.18516e-19 -9.88031e-16 0)
(2.4118e-20 -9.88142e-16 0)
(-3.22675e-20 -9.88181e-16 0)
(-1.34395e-20 -9.85367e-16 0)
(-1.11155e-21 -9.81052e-16 0)
(7.49786e-21 -9.75964e-16 0)
(1.39932e-20 -9.7049e-16 0)
(1.93825e-20 -9.64831e-16 0)
(2.43761e-20 -9.59077e-16 0)
(2.95574e-20 -9.53248e-16 0)
(3.54923e-20 -9.47314e-16 0)
(4.33398e-20 -9.51119e-16 0)
(9.11025e-11 -6.78189e-07 0)
(1.3314e-09 -9.11567e-06 0)
(2.31706e-08 -0.000109148 0)
(-4.05475e-22 -9.87792e-16 0)
(-1.37181e-22 -9.87787e-16 0)
(3.36781e-21 -9.87778e-16 0)
(1.2223e-20 -9.87767e-16 0)
(2.80445e-20 -9.87756e-16 0)
(5.05596e-20 -9.8775e-16 0)
(7.5401e-20 -9.87756e-16 0)
(9.46926e-20 -9.87777e-16 0)
(1.04965e-19 -9.87798e-16 0)
(1.08697e-19 -9.87817e-16 0)
(1.0864e-19 -9.87832e-16 0)
(1.06669e-19 -9.87844e-16 0)
(1.0389e-19 -9.87853e-16 0)
(1.00911e-19 -9.87861e-16 0)
(9.80504e-20 -9.87868e-16 0)
(9.54692e-20 -9.87873e-16 0)
(9.32424e-20 -9.87878e-16 0)
(9.1401e-20 -9.87883e-16 0)
(8.9952e-20 -9.87887e-16 0)
(8.88819e-20 -9.87891e-16 0)
(8.81409e-20 -9.87896e-16 0)
(8.75881e-20 -9.87902e-16 0)
(8.68517e-20 -9.87909e-16 0)
(8.49967e-20 -9.87918e-16 0)
(7.97715e-20 -9.87932e-16 0)
(6.68609e-20 -9.87951e-16 0)
(4.61951e-20 -9.87959e-16 0)
(2.96246e-20 -9.87941e-16 0)
(2.27649e-20 -9.87928e-16 0)
(2.03794e-20 -9.8792e-16 0)
(2.00295e-20 -9.87915e-16 0)
(2.05747e-20 -9.87912e-16 0)
(2.14818e-20 -9.87911e-16 0)
(2.24972e-20 -9.87911e-16 0)
(2.34834e-20 -9.87912e-16 0)
(2.43269e-20 -9.87915e-16 0)
(2.48685e-20 -9.8792e-16 0)
(2.58732e-20 -1.06391e-15 0)
(7.49501e-10 -9.91982e-06 0)
(2.25721e-08 -0.000103966 0)
(1.88257e-21 -9.87794e-16 0)
(6.26199e-21 -9.87792e-16 0)
(1.24022e-20 -9.87788e-16 0)
(2.1154e-20 -9.87784e-16 0)
(3.27637e-20 -9.87781e-16 0)
(4.64969e-20 -9.87781e-16 0)
(6.04629e-20 -9.87787e-16 0)
(7.22866e-20 -9.87797e-16 0)
(8.0656e-20 -9.87809e-16 0)
(8.57313e-20 -9.87821e-16 0)
(8.82662e-20 -9.87832e-16 0)
(8.90573e-20 -9.87841e-16 0)
(8.87447e-20 -9.8785e-16 0)
(8.77843e-20 -9.87857e-16 0)
(8.6478e-20 -9.87864e-16 0)
(8.50139e-20 -9.87869e-16 0)
(8.34982e-20 -9.87875e-16 0)
(8.1977e-20 -9.8788e-16 0)
(8.04467e-20 -9.87884e-16 0)
(7.88546e-20 -9.87889e-16 0)
(7.70891e-20 -9.87894e-16 0)
(7.49602e-20 -9.87899e-16 0)
(7.21756e-20 -9.87904e-16 0)
(6.83286e-20 -9.8791e-16 0)
(6.29572e-20 -9.87916e-16 0)
(5.58251e-20 -9.87921e-16 0)
(4.76242e-20 -9.87923e-16 0)
(4.00997e-20 -9.87921e-16 0)
(3.43448e-20 -9.87918e-16 0)
(3.01876e-20 -9.87915e-16 0)
(2.71648e-20 -9.87913e-16 0)
(2.48218e-20 -9.87911e-16 0)
(2.27753e-20 -9.8791e-16 0)
(2.0701e-20 -9.8791e-16 0)
(1.83008e-20 -9.8791e-16 0)
(1.52696e-20 -9.87912e-16 0)
(1.12657e-20 -9.87914e-16 0)
(5.98629e-21 -1.06605e-15 0)
(1.22297e-09 -1.4832e-05 0)
(2.25603e-08 -9.95629e-05 0)
(2.78385e-21 -9.87801e-16 0)
(8.63233e-21 -9.878e-16 0)
(1.52773e-20 -9.87799e-16 0)
(2.3035e-20 -9.87798e-16 0)
(3.18627e-20 -9.87798e-16 0)
(4.12952e-20 -9.878e-16 0)
(5.05175e-20 -9.87805e-16 0)
(5.86508e-20 -9.87811e-16 0)
(6.51325e-20 -9.87819e-16 0)
(6.98469e-20 -9.87827e-16 0)
(7.29758e-20 -9.87835e-16 0)
(7.48218e-20 -9.87843e-16 0)
(7.56958e-20 -9.8785e-16 0)
(7.5863e-20 -9.87856e-16 0)
(7.55276e-20 -9.87862e-16 0)
(7.48337e-20 -9.87867e-16 0)
(7.3873e-20 -9.87872e-16 0)
(7.2692e-20 -9.87877e-16 0)
(7.12986e-20 -9.87881e-16 0)
(6.9666e-20 -9.87885e-16 0)
(6.7736e-20 -9.8789e-16 0)
(6.54241e-20 -9.87894e-16 0)
(6.26316e-20 -9.87898e-16 0)
(5.92701e-20 -9.87901e-16 0)
(5.53085e-20 -9.87904e-16 0)
(5.08398e-20 -9.87907e-16 0)
(4.61347e-20 -9.87908e-16 0)
(4.15725e-20 -9.87908e-16 0)
(3.74264e-20 -9.87908e-16 0)
(3.37593e-20 -9.87907e-16 0)
(3.04921e-20 -9.87906e-16 0)
(2.74708e-20 -9.87904e-16 0)
(2.4506e-20 -9.87903e-16 0)
(2.13875e-20 -9.87903e-16 0)
(1.78835e-20 -9.87902e-16 0)
(1.37302e-20 -9.87901e-16 0)
(8.61295e-21 -9.879e-16 0)
(-8.56427e-11 -1.08013e-15 0)
(2.30477e-09 -2.17153e-05 0)
(2.05196e-08 -9.51889e-05 0)
(2.97872e-21 -9.87809e-16 0)
(9.03193e-21 -9.87809e-16 0)
(1.53699e-20 -9.87809e-16 0)
(2.20954e-20 -9.8781e-16 0)
(2.91318e-20 -9.87811e-16 0)
(3.62252e-20 -9.87813e-16 0)
(4.30046e-20 -9.87817e-16 0)
(4.90945e-20 -9.87822e-16 0)
(5.42308e-20 -9.87827e-16 0)
(5.83102e-20 -9.87833e-16 0)
(6.13636e-20 -9.87839e-16 0)
(6.35024e-20 -9.87845e-16 0)
(6.48693e-20 -9.87851e-16 0)
(6.5606e-20 -9.87856e-16 0)
(6.5835e-20 -9.87861e-16 0)
(6.56528e-20 -9.87866e-16 0)
(6.51285e-20 -9.8787e-16 0)
(6.43055e-20 -9.87875e-16 0)
(6.32047e-20 -9.87878e-16 0)
(6.18289e-20 -9.87882e-16 0)
(6.01683e-20 -9.87886e-16 0)
(5.82073e-20 -9.87889e-16 0)
(5.59344e-20 -9.87892e-16 0)
(5.33546e-20 -9.87894e-16 0)
(5.05022e-20 -9.87896e-16 0)
(4.74506e-20 -9.87898e-16 0)
(4.43082e-20 -9.87899e-16 0)
(4.11933e-20 -9.879e-16 0)
(3.81968e-20 -9.879e-16 0)
(3.53599e-20 -9.87899e-16 0)
(3.26772e-20 -9.87899e-16 0)
(3.01103e-20 -9.87898e-16 0)
(2.7601e-20 -9.87896e-16 0)
(2.5084e-20 -9.87895e-16 0)
(2.24962e-20 -9.87893e-16 0)
(1.97867e-20 -9.87891e-16 0)
(1.69285e-20 -9.87888e-16 0)
(1.45431e-20 -1.08892e-15 0)
(3.73199e-09 -2.73226e-05 0)
(1.62982e-08 -9.08221e-05 0)
(2.85607e-21 -9.87818e-16 0)
(8.57433e-21 -9.87818e-16 0)
(1.43342e-20 -9.87818e-16 0)
(2.0154e-20 -9.87819e-16 0)
(2.59688e-20 -9.87821e-16 0)
(3.16396e-20 -9.87823e-16 0)
(3.69849e-20 -9.87826e-16 0)
(4.1827e-20 -9.8783e-16 0)
(4.6033e-20 -9.87834e-16 0)
(4.95365e-20 -9.87839e-16 0)
(5.23331e-20 -9.87844e-16 0)
(5.44635e-20 -9.87848e-16 0)
(5.59938e-20 -9.87853e-16 0)
(5.69985e-20 -9.87857e-16 0)
(5.75493e-20 -9.87862e-16 0)
(5.7709e-20 -9.87866e-16 0)
(5.7528e-20 -9.87869e-16 0)
(5.70444e-20 -9.87873e-16 0)
(5.62856e-20 -9.87876e-16 0)
(5.52707e-20 -9.87879e-16 0)
(5.40138e-20 -9.87882e-16 0)
(5.25287e-20 -9.87885e-16 0)
(5.0833e-20 -9.87887e-16 0)
(4.89525e-20 -9.87889e-16 0)
(4.69242e-20 -9.87891e-16 0)
(4.4796e-20 -9.87892e-16 0)
(4.26235e-20 -9.87893e-16 0)
(4.0462e-20 -9.87894e-16 0)
(3.83583e-20 -9.87894e-16 0)
(3.63461e-20 -9.87894e-16 0)
(3.44469e-20 -9.87893e-16 0)
(3.26742e-20 -9.87892e-16 0)
(3.10408e-20 -9.87891e-16 0)
(2.9567e-20 -9.8789e-16 0)
(2.82906e-20 -9.87888e-16 0)
(2.72777e-20 -9.87886e-16 0)
(2.66374e-20 -9.87884e-16 0)
(2.79664e-20 -1.10708e-15 0)
(4.40462e-09 -2.99843e-05 0)
(1.26568e-08 -8.6457e-05 0)
(2.61254e-21 -9.87825e-16 0)
(7.80509e-21 -9.87826e-16 0)
(1.29345e-20 -9.87827e-16 0)
(1.79864e-20 -9.87828e-16 0)
(2.29103e-20 -9.87829e-16 0)
(2.76252e-20 -9.87831e-16 0)
(3.20351e-20 -9.87834e-16 0)
(3.60483e-20 -9.87837e-16 0)
(3.95941e-20 -9.8784e-16 0)
(4.26324e-20 -9.87844e-16 0)
(4.51537e-20 -9.87848e-16 0)
(4.71736e-20 -9.87852e-16 0)
(4.8724e-20 -9.87855e-16 0)
(4.9846e-20 -9.87859e-16 0)
(5.05828e-20 -9.87863e-16 0)
(5.09759e-20 -9.87866e-16 0)
(5.10626e-20 -9.87869e-16 0)
(5.08753e-20 -9.87872e-16 0)
(5.04417e-20 -9.87875e-16 0)
(4.97863e-20 -9.87878e-16 0)
(4.89317e-20 -9.8788e-16 0)
(4.79007e-20 -9.87882e-16 0)
(4.6718e-20 -9.87884e-16 0)
(4.54116e-20 -9.87886e-16 0)
(4.40132e-20 -9.87887e-16 0)
(4.25575e-20 -9.87888e-16 0)
(4.10813e-20 -9.87889e-16 0)
(3.96202e-20 -9.87889e-16 0)
(3.82079e-20 -9.8789e-16 0)
(3.68743e-20 -9.8789e-16 0)
(3.5647e-20 -9.87889e-16 0)
(3.45526e-20 -9.87889e-16 0)
(3.36196e-20 -9.87888e-16 0)
(3.28818e-20 -9.87887e-16 0)
(3.23807e-20 -9.87886e-16 0)
(3.21686e-20 -9.87885e-16 0)
(3.23086e-20 -9.87884e-16 0)
(3.51131e-20 -1.13936e-15 0)
(4.43674e-09 -3.05443e-05 0)
(9.96567e-09 -8.21095e-05 0)
(2.34011e-21 -9.87833e-16 0)
(6.97404e-21 -9.87833e-16 0)
(1.15064e-20 -9.87834e-16 0)
(1.59117e-20 -9.87835e-16 0)
(2.01503e-20 -9.87836e-16 0)
(2.4171e-20 -9.87838e-16 0)
(2.79186e-20 -9.8784e-16 0)
(3.13416e-20 -9.87843e-16 0)
(3.44006e-20 -9.87846e-16 0)
(3.70714e-20 -9.87848e-16 0)
(3.93465e-20 -9.87852e-16 0)
(4.12324e-20 -9.87855e-16 0)
(4.27465e-20 -9.87858e-16 0)
(4.39132e-20 -9.87861e-16 0)
(4.47601e-20 -9.87864e-16 0)
(4.53161e-20 -9.87866e-16 0)
(4.56093e-20 -9.87869e-16 0)
(4.56665e-20 -9.87872e-16 0)
(4.55129e-20 -9.87874e-16 0)
(4.51726e-20 -9.87876e-16 0)
(4.4669e-20 -9.87878e-16 0)
(4.40257e-20 -9.8788e-16 0)
(4.32669e-20 -9.87882e-16 0)
(4.24178e-20 -9.87883e-16 0)
(4.15046e-20 -9.87884e-16 0)
(4.05545e-20 -9.87885e-16 0)
(3.95943e-20 -9.87886e-16 0)
(3.86507e-20 -9.87887e-16 0)
(3.7749e-20 -9.87887e-16 0)
(3.6913e-20 -9.87887e-16 0)
(3.61656e-20 -9.87887e-16 0)
(3.55285e-20 -9.87887e-16 0)
(3.50233e-20 -9.87887e-16 0)
(3.46712e-20 -9.87886e-16 0)
(3.44935e-20 -9.87886e-16 0)
(3.45096e-20 -9.87885e-16 0)
(3.47359e-20 -9.87885e-16 0)
(3.8239e-20 -1.20218e-15 0)
(4.1907e-09 -3.01173e-05 0)
(8.01374e-09 -7.77971e-05 0)
(2.07853e-21 -9.87839e-16 0)
(6.18693e-21 -9.87839e-16 0)
(1.01855e-20 -9.8784e-16 0)
(1.40468e-20 -9.87841e-16 0)
(1.77389e-20 -9.87842e-16 0)
(2.1227e-20 -9.87844e-16 0)
(2.44763e-20 -9.87846e-16 0)
(2.7456e-20 -9.87848e-16 0)
(3.01424e-20 -9.8785e-16 0)
(3.25211e-20 -9.87852e-16 0)
(3.45871e-20 -9.87855e-16 0)
(3.63441e-20 -9.87858e-16 0)
(3.78028e-20 -9.8786e-16 0)
(3.89791e-20 -9.87863e-16 0)
(3.98922e-20 -9.87865e-16 0)
(4.0563e-20 -9.87867e-16 0)
(4.10133e-20 -9.8787e-16 0)
(4.12648e-20 -9.87872e-16 0)
(4.13393e-20 -9.87874e-16 0)
(4.12581e-20 -9.87876e-16 0)
(4.10422e-20 -9.87877e-16 0)
(4.0713e-20 -9.87879e-16 0)
(4.02916e-20 -9.8788e-16 0)
(3.97993e-20 -9.87882e-16 0)
(3.92573e-20 -9.87883e-16 0)
(3.86868e-20 -9.87884e-16 0)
(3.81083e-20 -9.87884e-16 0)
(3.75414e-20 -9.87885e-16 0)
(3.70046e-20 -9.87885e-16 0)
(3.65152e-20 -9.87886e-16 0)
(3.60886e-20 -9.87886e-16 0)
(3.5739e-20 -9.87886e-16 0)
(3.54783e-20 -9.87886e-16 0)
(3.53164e-20 -9.87886e-16 0)
(3.52602e-20 -9.87886e-16 0)
(3.53128e-20 -9.87885e-16 0)
(3.54724e-20 -9.87885e-16 0)
(4.04301e-20 -1.37004e-15 0)
(3.85895e-09 -2.92678e-05 0)
(6.54531e-09 -7.35308e-05 0)
(1.84277e-21 -9.87845e-16 0)
(5.48208e-21 -9.87845e-16 0)
(9.01617e-21 -9.87846e-16 0)
(1.24193e-20 -9.87846e-16 0)
(1.56656e-20 -9.87847e-16 0)
(1.87297e-20 -9.87849e-16 0)
(2.1588e-20 -9.8785e-16 0)
(2.42208e-20 -9.87852e-16 0)
(2.6613e-20 -9.87854e-16 0)
(2.87558e-20 -9.87856e-16 0)
(3.06463e-20 -9.87858e-16 0)
(3.22873e-20 -9.8786e-16 0)
(3.36864e-20 -9.87862e-16 0)
(3.48548e-20 -9.87864e-16 0)
(3.58067e-20 -9.87867e-16 0)
(3.65579e-20 -9.87869e-16 0)
(3.71256e-20 -9.8787e-16 0)
(3.75274e-20 -9.87872e-16 0)
(3.77812e-20 -9.87874e-16 0)
(3.79051e-20 -9.87876e-16 0)
(3.79169e-20 -9.87877e-16 0)
(3.78346e-20 -9.87878e-16 0)
(3.76758e-20 -9.8788e-16 0)
(3.74577e-20 -9.87881e-16 0)
(3.71974e-20 -9.87882e-16 0)
(3.69109e-20 -9.87883e-16 0)
(3.66138e-20 -9.87883e-16 0)
(3.63204e-20 -9.87884e-16 0)
(3.60439e-20 -9.87884e-16 0)
(3.5796e-20 -9.87885e-16 0)
(3.55867e-20 -9.87885e-16 0)
(3.54242e-20 -9.87885e-16 0)
(3.53146e-20 -9.87885e-16 0)
(3.52618e-20 -9.87886e-16 0)
(3.52669e-20 -9.87886e-16 0)
(3.53281e-20 -9.87886e-16 0)
(3.54403e-20 -9.87886e-16 0)
(4.47436e-20 -1.70334e-15 0)
(3.51102e-09 -2.82186e-05 0)
(5.39707e-09 -6.93176e-05 0)
(1.63649e-21 -9.8785e-16 0)
(4.86743e-21 -9.8785e-16 0)
(8.00259e-21 -9.8785e-16 0)
(1.10193e-20 -9.87851e-16 0)
(1.38964e-20 -9.87852e-16 0)
(1.66145e-20 -9.87853e-16 0)
(1.91568e-20 -9.87855e-16 0)
(2.15098e-20 -9.87856e-16 0)
(2.36634e-20 -9.87858e-16 0)
(2.56122e-20 -9.87859e-16 0)
(2.73547e-20 -9.87861e-16 0)
(2.88933e-20 -9.87863e-16 0)
(3.02337e-20 -9.87865e-16 0)
(3.13847e-20 -9.87866e-16 0)
(3.23572e-20 -9.87868e-16 0)
(3.31634e-20 -9.8787e-16 0)
(3.38169e-20 -9.87871e-16 0)
(3.43321e-20 -9.87873e-16 0)
(3.47234e-20 -9.87875e-16 0)
(3.50056e-20 -9.87876e-16 0)
(3.51936e-20 -9.87877e-16 0)
(3.53018e-20 -9.87878e-16 0)
(3.53445e-20 -9.87879e-16 0)
(3.53356e-20 -9.8788e-16 0)
(3.52881e-20 -9.87881e-16 0)
(3.52146e-20 -9.87882e-16 0)
(3.51266e-20 -9.87883e-16 0)
(3.50345e-20 -9.87883e-16 0)
(3.49478e-20 -9.87884e-16 0)
(3.48744e-20 -9.87884e-16 0)
(3.48207e-20 -9.87885e-16 0)
(3.47918e-20 -9.87885e-16 0)
(3.4791e-20 -9.87885e-16 0)
(3.48198e-20 -9.87886e-16 0)
(3.48779e-20 -9.87886e-16 0)
(3.49632e-20 -9.87886e-16 0)
(3.50718e-20 -9.87886e-16 0)
(5.17349e-20 -2.24079e-15 0)
(3.16935e-09 -2.70549e-05 0)
(4.47214e-09 -6.5162e-05 0)
(1.4585e-21 -9.87854e-16 0)
(4.33802e-21 -9.87854e-16 0)
(7.13238e-21 -9.87855e-16 0)
(9.82219e-21 -9.87855e-16 0)
(1.23902e-20 -9.87856e-16 0)
(1.48212e-20 -9.87857e-16 0)
(1.71027e-20 -9.87858e-16 0)
(1.92249e-20 -9.8786e-16 0)
(2.1181e-20 -9.87861e-16 0)
(2.29673e-20 -9.87862e-16 0)
(2.45832e-20 -9.87864e-16 0)
(2.60311e-20 -9.87865e-16 0)
(2.73155e-20 -9.87867e-16 0)
(2.84434e-20 -9.87868e-16 0)
(2.94233e-20 -9.8787e-16 0)
(3.02651e-20 -9.87871e-16 0)
(3.09796e-20 -9.87873e-16 0)
(3.15782e-20 -9.87874e-16 0)
(3.20727e-20 -9.87875e-16 0)
(3.24751e-20 -9.87877e-16 0)
(3.27972e-20 -9.87878e-16 0)
(3.30508e-20 -9.87879e-16 0)
(3.32471e-20 -9.8788e-16 0)
(3.33972e-20 -9.87881e-16 0)
(3.35112e-20 -9.87881e-16 0)
(3.35987e-20 -9.87882e-16 0)
(3.36683e-20 -9.87883e-16 0)
(3.3728e-20 -9.87883e-16 0)
(3.37844e-20 -9.87884e-16 0)
(3.38431e-20 -9.87884e-16 0)
(3.39088e-20 -9.87885e-16 0)
(3.39848e-20 -9.87885e-16 0)
(3.40732e-20 -9.87885e-16 0)
(3.41749e-20 -9.87886e-16 0)
(3.42899e-20 -9.87886e-16 0)
(3.44169e-20 -9.87886e-16 0)
(3.45537e-20 -9.87886e-16 0)
(6.2568e-20 -2.82036e-15 0)
(2.84119e-09 -2.58112e-05 0)
(3.71204e-09 -6.10679e-05 0)
(1.30575e-21 -9.87858e-16 0)
(3.88412e-21 -9.87858e-16 0)
(6.38756e-21 -9.87859e-16 0)
(8.79982e-21 -9.87859e-16 0)
(1.11068e-20 -9.8786e-16 0)
(1.32964e-20 -9.87861e-16 0)
(1.53592e-20 -9.87862e-16 0)
(1.72876e-20 -9.87863e-16 0)
(1.9077e-20 -9.87864e-16 0)
(2.07249e-20 -9.87865e-16 0)
(2.22311e-20 -9.87866e-16 0)
(2.35978e-20 -9.87868e-16 0)
(2.48289e-20 -9.87869e-16 0)
(2.59298e-20 -9.8787e-16 0)
(2.69076e-20 -9.87872e-16 0)
(2.777e-20 -9.87873e-16 0)
(2.85258e-20 -9.87874e-16 0)
(2.91842e-20 -9.87875e-16 0)
(2.97546e-20 -9.87876e-16 0)
(3.02466e-20 -9.87877e-16 0)
(3.06698e-20 -9.87878e-16 0)
(3.10334e-20 -9.87879e-16 0)
(3.13465e-20 -9.8788e-16 0)
(3.16177e-20 -9.87881e-16 0)
(3.1855e-20 -9.87882e-16 0)
(3.20656e-20 -9.87882e-16 0)
(3.22565e-20 -9.87883e-16 0)
(3.24333e-20 -9.87884e-16 0)
(3.26013e-20 -9.87884e-16 0)
(3.27648e-20 -9.87885e-16 0)
(3.2927e-20 -9.87885e-16 0)
(3.30906e-20 -9.87885e-16 0)
(3.32573e-20 -9.87886e-16 0)
(3.34281e-20 -9.87886e-16 0)
(3.36032e-20 -9.87886e-16 0)
(3.37823e-20 -9.87887e-16 0)
(3.39645e-20 -9.87887e-16 0)
(7.03391e-20 -3.24546e-15 0)
(2.52934e-09 -2.45044e-05 0)
(3.08e-09 -5.70385e-05 0)
(1.17472e-21 -9.87862e-16 0)
(3.49493e-21 -9.87862e-16 0)
(5.74945e-21 -9.87862e-16 0)
(7.92484e-21 -9.87863e-16 0)
(1.00096e-20 -9.87863e-16 0)
(1.19941e-20 -9.87864e-16 0)
(1.38708e-20 -9.87865e-16 0)
(1.56342e-20 -9.87866e-16 0)
(1.72807e-20 -9.87867e-16 0)
(1.88088e-20 -9.87868e-16 0)
(2.02184e-20 -9.87869e-16 0)
(2.15116e-20 -9.8787e-16 0)
(2.26916e-20 -9.87871e-16 0)
(2.37629e-20 -9.87872e-16 0)
(2.47311e-20 -9.87873e-16 0)
(2.56027e-20 -9.87874e-16 0)
(2.63845e-20 -9.87875e-16 0)
(2.7084e-20 -9.87876e-16 0)
(2.77088e-20 -9.87877e-16 0)
(2.82667e-20 -9.87878e-16 0)
(2.87651e-20 -9.87879e-16 0)
(2.92116e-20 -9.8788e-16 0)
(2.96133e-20 -9.87881e-16 0)
(2.99769e-20 -9.87882e-16 0)
(3.03089e-20 -9.87882e-16 0)
(3.06151e-20 -9.87883e-16 0)
(3.09005e-20 -9.87884e-16 0)
(3.11699e-20 -9.87884e-16 0)
(3.14274e-20 -9.87885e-16 0)
(3.16762e-20 -9.87885e-16 0)
(3.19191e-20 -9.87886e-16 0)
(3.21584e-20 -9.87886e-16 0)
(3.23955e-20 -9.87886e-16 0)
(3.26315e-20 -9.87887e-16 0)
(3.2867e-20 -9.87887e-16 0)
(3.31021e-20 -9.87887e-16 0)
(3.33367e-20 -9.87887e-16 0)
(7.5104e-20 -3.48748e-15 0)
(2.23543e-09 -2.31452e-05 0)
(2.55199e-09 -5.30771e-05 0)
(1.06198e-21 -9.87865e-16 0)
(3.16012e-21 -9.87865e-16 0)
(5.2007e-21 -9.87865e-16 0)
(7.17266e-21 -9.87866e-16 0)
(9.06664e-21 -9.87866e-16 0)
(1.0875e-20 -9.87867e-16 0)
(1.25917e-20 -9.87868e-16 0)
(1.42126e-20 -9.87868e-16 0)
(1.57349e-20 -9.87869e-16 0)
(1.71576e-20 -9.8787e-16 0)
(1.8481e-20 -9.87871e-16 0)
(1.97067e-20 -9.87872e-16 0)
(2.08375e-20 -9.87873e-16 0)
(2.18771e-20 -9.87874e-16 0)
(2.28302e-20 -9.87875e-16 0)
(2.37019e-20 -9.87876e-16 0)
(2.44978e-20 -9.87877e-16 0)
(2.52239e-20 -9.87878e-16 0)
(2.58864e-20 -9.87879e-16 0)
(2.64914e-20 -9.87879e-16 0)
(2.70451e-20 -9.8788e-16 0)
(2.75534e-20 -9.87881e-16 0)
(2.8022e-20 -9.87882e-16 0)
(2.84565e-20 -9.87882e-16 0)
(2.88617e-20 -9.87883e-16 0)
(2.92424e-20 -9.87884e-16 0)
(2.96027e-20 -9.87884e-16 0)
(2.99463e-20 -9.87885e-16 0)
(3.02766e-20 -9.87885e-16 0)
(3.05963e-20 -9.87886e-16 0)
(3.09077e-20 -9.87886e-16 0)
(3.12129e-20 -9.87887e-16 0)
(3.15132e-20 -9.87887e-16 0)
(3.181e-20 -9.87887e-16 0)
(3.2104e-20 -9.87888e-16 0)
(3.23956e-20 -9.87888e-16 0)
(3.26853e-20 -9.87888e-16 0)
(7.61083e-20 -3.53637e-15 0)
(1.96071e-09 -2.17421e-05 0)
(2.11128e-09 -4.91866e-05 0)
(9.6445e-22 -9.87868e-16 0)
(2.8705e-21 -9.87868e-16 0)
(4.726e-21 -9.87868e-16 0)
(6.52192e-21 -9.87869e-16 0)
(8.2507e-21 -9.87869e-16 0)
(9.9062e-21 -9.8787e-16 0)
(1.14837e-20 -9.8787e-16 0)
(1.29799e-20 -9.87871e-16 0)
(1.43928e-20 -9.87872e-16 0)
(1.57216e-20 -9.87872e-16 0)
(1.69668e-20 -9.87873e-16 0)
(1.81298e-20 -9.87874e-16 0)
(1.92129e-20 -9.87875e-16 0)
(2.02194e-20 -9.87876e-16 0)
(2.11528e-20 -9.87877e-16 0)
(2.20175e-20 -9.87877e-16 0)
(2.28181e-20 -9.87878e-16 0)
(2.35594e-20 -9.87879e-16 0)
(2.42464e-20 -9.8788e-16 0)
(2.48841e-20 -9.87881e-16 0)
(2.54774e-20 -9.87881e-16 0)
(2.60313e-20 -9.87882e-16 0)
(2.65501e-20 -9.87883e-16 0)
(2.70385e-20 -9.87883e-16 0)
(2.75003e-20 -9.87884e-16 0)
(2.79394e-20 -9.87885e-16 0)
(2.83592e-20 -9.87885e-16 0)
(2.87628e-20 -9.87886e-16 0)
(2.91528e-20 -9.87886e-16 0)
(2.95315e-20 -9.87887e-16 0)
(2.99012e-20 -9.87887e-16 0)
(3.02635e-20 -9.87887e-16 0)
(3.062e-20 -9.87888e-16 0)
(3.09719e-20 -9.87888e-16 0)
(3.13204e-20 -9.87888e-16 0)
(3.16667e-20 -9.87889e-16 0)
(3.20118e-20 -9.87889e-16 0)
(7.40773e-20 -3.45111e-15 0)
(1.7057e-09 -2.03023e-05 0)
(1.74457e-09 -4.53703e-05 0)
(8.79469e-22 -9.87871e-16 0)
(2.61811e-21 -9.87871e-16 0)
(4.31222e-21 -9.87871e-16 0)
(5.95449e-21 -9.87871e-16 0)
(7.53882e-21 -9.87872e-16 0)
(9.06029e-21 -9.87872e-16 0)
(1.05152e-20 -9.87873e-16 0)
(1.1901e-20 -9.87873e-16 0)
(1.32161e-20 -9.87874e-16 0)
(1.44601e-20 -9.87874e-16 0)
(1.56335e-20 -9.87875e-16 0)
(1.67375e-20 -9.87876e-16 0)
(1.77742e-20 -9.87877e-16 0)
(1.87461e-20 -9.87877e-16 0)
(1.96564e-20 -9.87878e-16 0)
(2.05085e-20 -9.87879e-16 0)
(2.13063e-20 -9.8788e-16 0)
(2.20537e-20 -9.8788e-16 0)
(2.27548e-20 -9.87881e-16 0)
(2.34136e-20 -9.87882e-16 0)
(2.40343e-20 -9.87883e-16 0)
(2.46207e-20 -9.87883e-16 0)
(2.51766e-20 -9.87884e-16 0)
(2.57056e-20 -9.87885e-16 0)
(2.62109e-20 -9.87885e-16 0)
(2.66957e-20 -9.87886e-16 0)
(2.71627e-20 -9.87886e-16 0)
(2.76146e-20 -9.87887e-16 0)
(2.80534e-20 -9.87887e-16 0)
(2.84812e-20 -9.87888e-16 0)
(2.88998e-20 -9.87888e-16 0)
(2.93107e-20 -9.87888e-16 0)
(2.97152e-20 -9.87889e-16 0)
(3.01145e-20 -9.87889e-16 0)
(3.05096e-20 -9.87889e-16 0)
(3.09015e-20 -9.8789e-16 0)
(3.12912e-20 -9.8789e-16 0)
(7.04374e-20 -3.30699e-15 0)
(1.46637e-09 -1.88318e-05 0)
(1.4486e-09 -4.16314e-05 0)
(8.0477e-22 -9.87873e-16 0)
(2.39622e-21 -9.87873e-16 0)
(3.9483e-21 -9.87873e-16 0)
(5.45513e-21 -9.87873e-16 0)
(6.91181e-21 -9.87874e-16 0)
(8.31445e-21 -9.87874e-16 0)
(9.66012e-21 -9.87875e-16 0)
(1.09468e-20 -9.87875e-16 0)
(1.21735e-20 -9.87876e-16 0)
(1.33399e-20 -9.87876e-16 0)
(1.44465e-20 -9.87877e-16 0)
(1.54944e-20 -9.87878e-16 0)
(1.64853e-20 -9.87878e-16 0)
(1.74215e-20 -9.87879e-16 0)
(1.83056e-20 -9.8788e-16 0)
(1.91405e-20 -9.87881e-16 0)
(1.99294e-20 -9.87881e-16 0)
(2.06755e-20 -9.87882e-16 0)
(2.13822e-20 -9.87883e-16 0)
(2.20529e-20 -9.87883e-16 0)
(2.26909e-20 -9.87884e-16 0)
(2.32996e-20 -9.87885e-16 0)
(2.38818e-20 -9.87885e-16 0)
(2.44407e-20 -9.87886e-16 0)
(2.49789e-20 -9.87886e-16 0)
(2.5499e-20 -9.87887e-16 0)
(2.60033e-20 -9.87887e-16 0)
(2.64938e-20 -9.87888e-16 0)
(2.69725e-20 -9.87888e-16 0)
(2.74409e-20 -9.87889e-16 0)
(2.79005e-20 -9.87889e-16 0)
(2.83525e-20 -9.8789e-16 0)
(2.87979e-20 -9.8789e-16 0)
(2.92376e-20 -9.8789e-16 0)
(2.96722e-20 -9.87891e-16 0)
(3.01023e-20 -9.87891e-16 0)
(3.0528e-20 -9.87891e-16 0)
(6.63521e-20 -3.1349e-15 0)
(1.2447e-09 -1.73356e-05 0)
(1.2034e-09 -3.79737e-05 0)
(7.38453e-22 -9.87875e-16 0)
(2.19917e-21 -9.87875e-16 0)
(3.62497e-21 -9.87875e-16 0)
(5.01113e-21 -9.87876e-16 0)
(6.35375e-21 -9.87876e-16 0)
(7.64977e-21 -9.87876e-16 0)
(8.8969e-21 -9.87877e-16 0)
(1.00936e-20 -9.87877e-16 0)
(1.12392e-20 -9.87878e-16 0)
(1.23335e-20 -9.87878e-16 0)
(1.33771e-20 -9.87879e-16 0)
(1.43709e-20 -9.8788e-16 0)
(1.53165e-20 -9.8788e-16 0)
(1.62158e-20 -9.87881e-16 0)
(1.70711e-20 -9.87881e-16 0)
(1.78848e-20 -9.87882e-16 0)
(1.86596e-20 -9.87883e-16 0)
(1.93982e-20 -9.87883e-16 0)
(2.01035e-20 -9.87884e-16 0)
(2.07783e-20 -9.87885e-16 0)
(2.14255e-20 -9.87885e-16 0)
(2.20476e-20 -9.87886e-16 0)
(2.26474e-20 -9.87886e-16 0)
(2.32273e-20 -9.87887e-16 0)
(2.37896e-20 -9.87887e-16 0)
(2.43363e-20 -9.87888e-16 0)
(2.48695e-20 -9.87888e-16 0)
(2.53908e-20 -9.87889e-16 0)
(2.59018e-20 -9.87889e-16 0)
(2.64038e-20 -9.8789e-16 0)
(2.6898e-20 -9.8789e-16 0)
(2.73853e-20 -9.87891e-16 0)
(2.78666e-20 -9.87891e-16 0)
(2.83424e-20 -9.87891e-16 0)
(2.88132e-20 -9.87892e-16 0)
(2.92794e-20 -9.87892e-16 0)
(2.97412e-20 -9.87892e-16 0)
(6.18815e-20 -2.93503e-15 0)
(1.04374e-09 -1.58183e-05 0)
(9.89281e-10 -3.44009e-05 0)
(6.78939e-22 -9.87877e-16 0)
(2.02229e-21 -9.87877e-16 0)
(3.33455e-21 -9.87877e-16 0)
(4.61197e-21 -9.87878e-16 0)
(5.85147e-21 -9.87878e-16 0)
(7.05065e-21 -9.87878e-16 0)
(8.20775e-21 -9.87879e-16 0)
(9.32165e-21 -9.87879e-16 0)
(1.03918e-20 -9.8788e-16 0)
(1.14183e-20 -9.8788e-16 0)
(1.24017e-20 -9.87881e-16 0)
(1.33429e-20 -9.87881e-16 0)
(1.42432e-20 -9.87882e-16 0)
(1.51044e-20 -9.87882e-16 0)
(1.59284e-20 -9.87883e-16 0)
(1.67173e-20 -9.87884e-16 0)
(1.74734e-20 -9.87884e-16 0)
(1.81991e-20 -9.87885e-16 0)
(1.88968e-20 -9.87885e-16 0)
(1.9569e-20 -9.87886e-16 0)
(2.0218e-20 -9.87886e-16 0)
(2.08463e-20 -9.87887e-16 0)
(2.14559e-20 -9.87888e-16 0)
(2.20491e-20 -9.87888e-16 0)
(2.26278e-20 -9.87889e-16 0)
(2.31938e-20 -9.87889e-16 0)
(2.37487e-20 -9.8789e-16 0)
(2.4294e-20 -9.8789e-16 0)
(2.4831e-20 -9.87891e-16 0)
(2.53608e-20 -9.87891e-16 0)
(2.58843e-20 -9.87892e-16 0)
(2.64023e-20 -9.87892e-16 0)
(2.69153e-20 -9.87892e-16 0)
(2.74239e-20 -9.87893e-16 0)
(2.79284e-20 -9.87893e-16 0)
(2.8429e-20 -9.87893e-16 0)
(2.89258e-20 -9.87894e-16 0)
(5.71067e-20 -2.72057e-15 0)
(8.62585e-10 -1.42849e-05 0)
(8.02098e-10 -3.09173e-05 0)
(6.24922e-22 -9.87879e-16 0)
(1.86169e-21 -9.87879e-16 0)
(3.07069e-21 -9.87879e-16 0)
(4.24897e-21 -9.8788e-16 0)
(5.39411e-21 -9.8788e-16 0)
(6.50425e-21 -9.8788e-16 0)
(7.57805e-21 -9.8788e-16 0)
(8.61472e-21 -9.87881e-16 0)
(9.61394e-21 -9.87881e-16 0)
(1.05758e-20 -9.87882e-16 0)
(1.1501e-20 -9.87882e-16 0)
(1.23903e-20 -9.87883e-16 0)
(1.3245e-20 -9.87883e-16 0)
(1.40666e-20 -9.87884e-16 0)
(1.48567e-20 -9.87884e-16 0)
(1.56174e-20 -9.87885e-16 0)
(1.63506e-20 -9.87886e-16 0)
(1.70584e-20 -9.87886e-16 0)
(1.77429e-20 -9.87887e-16 0)
(1.84063e-20 -9.87887e-16 0)
(1.90507e-20 -9.87888e-16 0)
(1.96782e-20 -9.87888e-16 0)
(2.02907e-20 -9.87889e-16 0)
(2.08902e-20 -9.87889e-16 0)
(2.14783e-20 -9.8789e-16 0)
(2.20567e-20 -9.8789e-16 0)
(2.26269e-20 -9.87891e-16 0)
(2.319e-20 -9.87891e-16 0)
(2.37473e-20 -9.87892e-16 0)
(2.42997e-20 -9.87892e-16 0)
(2.48478e-20 -9.87893e-16 0)
(2.53925e-20 -9.87893e-16 0)
(2.59339e-20 -9.87894e-16 0)
(2.64726e-20 -9.87894e-16 0)
(2.70086e-20 -9.87894e-16 0)
(2.75419e-20 -9.87895e-16 0)
(2.80725e-20 -9.87895e-16 0)
(5.23741e-20 -2.50128e-15 0)
(7.00651e-10 -1.27402e-05 0)
(6.3945e-10 -2.75275e-05 0)
(5.75331e-22 -9.87881e-16 0)
(1.7142e-21 -9.87881e-16 0)
(2.82821e-21 -9.87881e-16 0)
(3.91503e-21 -9.87881e-16 0)
(4.97278e-21 -9.87881e-16 0)
(6.00005e-21 -9.87882e-16 0)
(6.99583e-21 -9.87882e-16 0)
(7.95959e-21 -9.87882e-16 0)
(8.89115e-21 -9.87883e-16 0)
(9.79076e-21 -9.87883e-16 0)
(1.0659e-20 -9.87884e-16 0)
(1.14967e-20 -9.87884e-16 0)
(1.2305e-20 -9.87885e-16 0)
(1.30852e-20 -9.87885e-16 0)
(1.3839e-20 -9.87886e-16 0)
(1.45681e-20 -9.87886e-16 0)
(1.52741e-20 -9.87887e-16 0)
(1.59592e-20 -9.87887e-16 0)
(1.6625e-20 -9.87888e-16 0)
(1.72738e-20 -9.87889e-16 0)
(1.79072e-20 -9.87889e-16 0)
(1.85274e-20 -9.8789e-16 0)
(1.9136e-20 -9.8789e-16 0)
(1.97349e-20 -9.87891e-16 0)
(2.03257e-20 -9.87891e-16 0)
(2.09099e-20 -9.87892e-16 0)
(2.14888e-20 -9.87892e-16 0)
(2.20638e-20 -9.87893e-16 0)
(2.26358e-20 -9.87893e-16 0)
(2.32057e-20 -9.87894e-16 0)
(2.37741e-20 -9.87894e-16 0)
(2.43417e-20 -9.87895e-16 0)
(2.49086e-20 -9.87895e-16 0)
(2.54749e-20 -9.87895e-16 0)
(2.60408e-20 -9.87896e-16 0)
(2.66059e-20 -9.87896e-16 0)
(2.71701e-20 -9.87897e-16 0)
(4.76476e-20 -2.27923e-15 0)
(5.57459e-10 -1.119e-05 0)
(4.99235e-10 -2.42367e-05 0)
(5.29295e-22 -9.87882e-16 0)
(1.57723e-21 -9.87882e-16 0)
(2.60285e-21 -9.87883e-16 0)
(3.60435e-21 -9.87883e-16 0)
(4.58027e-21 -9.87883e-16 0)
(5.52952e-21 -9.87883e-16 0)
(6.45139e-21 -9.87884e-16 0)
(7.34551e-21 -9.87884e-16 0)
(8.21186e-21 -9.87884e-16 0)
(9.05072e-21 -9.87885e-16 0)
(9.86266e-21 -9.87885e-16 0)
(1.06485e-20 -9.87886e-16 0)
(1.14093e-20 -9.87886e-16 0)
(1.21464e-20 -9.87887e-16 0)
(1.28611e-20 -9.87887e-16 0)
(1.3555e-20 -9.87888e-16 0)
(1.42297e-20 -9.87888e-16 0)
(1.48871e-20 -9.87889e-16 0)
(1.55289e-20 -9.87889e-16 0)
(1.61569e-20 -9.8789e-16 0)
(1.6773e-20 -9.8789e-16 0)
(1.7379e-20 -9.87891e-16 0)
(1.79768e-20 -9.87891e-16 0)
(1.85679e-20 -9.87892e-16 0)
(1.91541e-20 -9.87893e-16 0)
(1.9737e-20 -9.87893e-16 0)
(2.03179e-20 -9.87894e-16 0)
(2.08981e-20 -9.87894e-16 0)
(2.14788e-20 -9.87895e-16 0)
(2.20608e-20 -9.87895e-16 0)
(2.26449e-20 -9.87896e-16 0)
(2.32316e-20 -9.87896e-16 0)
(2.3821e-20 -9.87897e-16 0)
(2.44131e-20 -9.87897e-16 0)
(2.50076e-20 -9.87897e-16 0)
(2.5604e-20 -9.87898e-16 0)
(2.62013e-20 -9.87898e-16 0)
(4.30131e-20 -2.06084e-15 0)
(4.32276e-10 -9.64027e-06 0)
(3.79443e-10 -2.1051e-05 0)
(4.86111e-22 -9.87884e-16 0)
(1.4487e-21 -9.87884e-16 0)
(2.39123e-21 -9.87884e-16 0)
(3.31229e-21 -9.87884e-16 0)
(4.21076e-21 -9.87884e-16 0)
(5.08581e-21 -9.87885e-16 0)
(5.93693e-21 -9.87885e-16 0)
(6.7639e-21 -9.87885e-16 0)
(7.56677e-21 -9.87886e-16 0)
(8.34586e-21 -9.87886e-16 0)
(9.10173e-21 -9.87886e-16 0)
(9.83516e-21 -9.87887e-16 0)
(1.05471e-20 -9.87887e-16 0)
(1.12388e-20 -9.87888e-16 0)
(1.19115e-20 -9.87888e-16 0)
(1.25666e-20 -9.87889e-16 0)