/*--------------------------------*- C++ -*----------------------------------*\
  =========                 |
  \\      /  F ield         | OpenFOAM: The Open Source CFD Toolbox
   \\    /   O peration     | Website:  https://openfoam.org
    \\  /    A nd           | Version:  7
     \\/     M anipulation  |
\*---------------------------------------------------------------------------*/
FoamFile
{
    version     2.0;
    format      ascii;
    class       volScalarField;
    location    "20000";
    object      p;
}
// * * * * * * * * * * * * * * * * * * * * * * * * * * * * * * * * * * * * * //

dimensions      [1 -1 -2 0 0 0 0];

internalField   nonuniform List<scalar> 
3200
(
112.157
112.192
112.263
112.369
112.513
112.7
112.936
113.233
113.611
114.101
114.763
115.702
118.433
352.295
558.503
748.913
928.698
1100.35
1265.32
1424.57
1578.77
1728.42
1873.91
2015.55
2153.6
2288.28
2419.77
2548.22
2673.79
2795.01
2911.37
3023.08
3130.26
3232.8
3330.23
3421.53
3504.94
3577.51
3634.53
3668.5
109.629
109.662
109.727
109.823
109.952
110.115
110.313
110.549
110.823
111.128
111.443
111.704
111.746
111.384
111.109
110.925
110.809
110.747
110.731
110.757
110.826
110.94
111.104
111.33
111.637
112.055
112.636
113.819
242.113
363.102
478.041
589.487
698.578
806.2
913.377
1021.51
1132.63
1249.68
1376.75
1471.68
107.033
107.061
107.116
107.197
107.303
107.432
107.584
107.753
107.933
108.112
108.269
108.375
108.394
108.322
108.229
108.148
108.091
108.062
108.061
108.087
108.141
108.221
108.325
108.449
108.584
108.712
108.793
108.748
108.501
108.294
108.142
108.031
107.954
107.906
107.883
107.886
107.915
107.985
116.069
179.249
104.378
104.401
104.445
104.509
104.592
104.69
104.8
104.918
105.038
105.149
105.243
105.307
105.336
105.332
105.313
105.29
105.274
105.27
105.28
105.303
105.34
105.389
105.445
105.504
105.558
105.596
105.606
105.578
105.513
105.438
105.367
105.308
105.262
105.23
105.211
105.204
105.206
105.213
105.255
107.778
101.675
101.693
101.727
101.777
101.839
101.912
101.992
102.075
102.158
102.233
102.298
102.347
102.38
102.398
102.406
102.411
102.417
102.426
102.441
102.462
102.488
102.518
102.55
102.58
102.604
102.619
102.622
102.612
102.59
102.562
102.533
102.507
102.485
102.469
102.459
102.456
102.457
102.463
102.498
103.716
98.9339
98.9476
98.974
99.0116
99.0584
99.1125
99.1712
99.2318
99.2912
99.3466
99.3955
99.4363
99.4686
99.4933
99.5126
99.5287
99.5439
99.5597
99.5771
99.5964
99.6172
99.6386
99.6595
99.6784
99.6937
99.7042
99.7092
99.7086
99.7036
99.6957
99.6867
99.6783
99.6716
99.6675
99.6664
99.6685
99.6738
99.6822
99.7214
100.842
96.164
96.1745
96.1946
96.2231
96.2584
96.299
96.343
96.3883
96.4332
96.4759
96.515
96.5498
96.5799
96.6059
96.6286
96.6489
96.6679
96.6864
96.7048
96.7234
96.7418
96.7599
96.777
96.7925
96.8058
96.8166
96.8248
96.8304
96.834
96.8363
96.8379
96.8397
96.8422
96.8459
96.8511
96.858
96.8666
96.8771
96.92
98.0265
93.3721
93.3802
93.3955
93.4173
93.4443
93.4753
93.509
93.544
93.5791
93.6133
93.6456
93.6756
93.7031
93.7281
93.7512
93.7725
93.7927
93.8121
93.8309
93.8492
93.8669
93.884
93.9003
93.9154
93.9293
93.9418
93.9529
93.9629
93.9719
93.9802
93.9882
93.9963
94.0047
94.0136
94.0232
94.0337
94.045
94.0571
94.1037
95.1996
90.5632
90.5695
90.5814
90.5983
90.6193
90.6435
90.67
90.6978
90.7261
90.7542
90.7814
90.8076
90.8324
90.8558
90.878
90.8991
90.9192
90.9387
90.9575
90.9758
90.9935
91.0107
91.0272
91.0431
91.0582
91.0727
91.0865
91.0997
91.1125
91.125
91.1374
91.1499
91.1625
91.1754
91.1885
91.202
91.2156
91.2294
91.281
92.3628
87.7413
87.7462
87.7556
87.7689
87.7856
87.805
87.8263
87.8489
87.8723
87.8959
87.9193
87.9423
87.9646
87.9863
88.0072
88.0275
88.0472
88.0663
88.0851
88.1034
88.1213
88.1388
88.156
88.1729
88.1894
88.2056
88.2216
88.2375
88.2533
88.2691
88.285
88.3011
88.3174
88.3338
88.3503
88.3669
88.3834
88.3995
88.4598
89.5224
84.909
84.9129
84.9205
84.9312
84.9448
84.9606
84.9781
84.997
85.0167
85.0369
85.0573
85.0777
85.0979
85.1179
85.1375
85.1568
85.1757
85.1945
85.2129
85.2312
85.2492
85.2672
85.285
85.3028
85.3205
85.3383
85.3561
85.3742
85.3925
85.4111
85.43
85.4494
85.4692
85.4893
85.5098
85.5305
85.5512
85.5716
85.6515
86.6856
82.0683
82.0716
82.0778
82.0867
82.0979
82.1111
82.1258
82.1418
82.1588
82.1763
82.1944
82.2126
82.231
82.2493
82.2677
82.2859
82.3041
82.3222
82.3403
82.3584
82.3765
82.3946
82.4129
82.4313
82.4499
82.4688
82.4881
82.5078
82.528
82.5489
82.5705
82.5929
82.6161
82.6403
82.6654
82.6915
82.7185
82.7463
82.8704
83.8601
79.2209
79.2236
79.2288
79.2363
79.2458
79.2569
79.2696
79.2834
79.2982
79.3137
79.3297
79.3461
79.3629
79.3798
79.3969
79.4142
79.4315
79.4489
79.4665
79.4842
79.5021
79.5201
79.5385
79.5572
79.5762
79.5957
79.6158
79.6366
79.658
79.6804
79.7038
79.7284
79.7543
79.7818
79.8111
79.8426
79.8764
79.9132
80.1159
81.0441
76.3678
76.3701
76.3745
76.3809
76.389
76.3987
76.4097
76.4218
76.4348
76.4486
76.463
76.4779
76.4932
76.5088
76.5248
76.541
76.5574
76.574
76.5909
76.608
76.6254
76.6431
76.6612
76.6797
76.6986
76.7181
76.7383
76.7591
76.7809
76.8036
76.8274
76.8525
76.8792
76.9077
76.9384
76.9717
77.0081
77.0484
77.3276
78.2079
73.5099
73.5119
73.5157
73.5212
73.5283
73.5367
73.5464
73.557
73.5686
73.581
73.594
73.6075
73.6216
73.636
73.6508
73.6659
73.6813
73.6971
73.7131
73.7294
73.7461
73.7631
73.7805
73.7983
73.8166
73.8355
73.8549
73.875
73.8959
73.9176
73.9403
73.9641
73.9892
74.0156
74.0436
74.0735
74.1055
74.1398
74.4196
75.3149
70.6478
70.6495
70.6528
70.6577
70.6639
70.6713
70.6799
70.6894
70.6998
70.7109
70.7226
70.735
70.7478
70.7611
70.7748
70.7888
70.8032
70.8179
70.8329
70.8483
70.864
70.88
70.8964
70.9132
70.9304
70.9481
70.9662
70.9848
71.004
71.0238
71.0442
71.0652
71.0869
71.1094
71.1324
71.1562
71.1805
71.2051
71.4175
72.3823
67.782
67.7835
67.7865
67.7908
67.7963
67.8029
67.8105
67.819
67.8283
67.8383
67.849
67.8602
67.8719
67.8841
67.8966
67.9096
67.9229
67.9365
67.9504
67.9647
67.9792
67.9941
68.0093
68.0247
68.0405
68.0566
68.073
68.0898
68.1068
68.1242
68.1418
68.1597
68.1777
68.1958
68.2139
68.2318
68.2494
68.2663
68.4107
69.4535
64.913
64.9144
64.917
64.9208
64.9257
64.9316
64.9384
64.946
64.9544
64.9634
64.973
64.9832
64.9939
65.0049
65.0164
65.0283
65.0405
65.0529
65.0657
65.0788
65.0921
65.1056
65.1194
65.1335
65.1477
65.1621
65.1767
65.1914
65.2063
65.2212
65.2361
65.251
65.2657
65.2803
65.2944
65.308
65.321
65.333
65.4346
66.5451
62.0412
62.0424
62.0448
62.0481
62.0525
62.0578
62.0638
62.0707
62.0782
62.0863
62.095
62.1042
62.1138
62.1239
62.1343
62.145
62.1561
62.1674
62.179
62.1908
62.2029
62.2151
62.2275
62.24
62.2527
62.2654
62.2782
62.291
62.3038
62.3165
62.3291
62.3415
62.3537
62.3654
62.3767
62.3875
62.3975
62.4068
62.4848
63.6545
59.1669
59.168
59.1701
59.1731
59.1769
59.1816
59.1871
59.1932
59.1999
59.2072
59.215
59.2232
59.2319
59.241
59.2503
59.26
59.27
59.2802
59.2906
59.3012
59.3119
59.3228
59.3338
59.3449
59.3561
59.3672
59.3784
59.3895
59.4005
59.4114
59.422
59.4325
59.4426
59.4523
59.4616
59.4705
59.4787
59.4864
59.5506
60.7764
56.2903
56.2913
56.2931
56.2958
56.2993
56.3034
56.3083
56.3137
56.3197
56.3262
56.3332
56.3406
56.3483
56.3564
56.3648
56.3734
56.3823
56.3914
56.4007
56.4101
56.4196
56.4292
56.4389
56.4487
56.4584
56.4681
56.4778
56.4874
56.4969
56.5062
56.5153
56.5241
56.5327
56.541
56.5489
56.5563
56.5634
56.57
56.6251
57.9078
53.4118
53.4126
53.4143
53.4166
53.4197
53.4234
53.4277
53.4325
53.4378
53.4436
53.4498
53.4563
53.4632
53.4704
53.4778
53.4854
53.4933
53.5013
53.5095
53.5178
53.5261
53.5346
53.5431
53.5515
53.56
53.5685
53.5768
53.5851
53.5932
53.6012
53.609
53.6166
53.624
53.6311
53.6379
53.6444
53.6506
53.6564
53.7046
55.0474
50.5315
50.5322
50.5336
50.5357
50.5384
50.5417
50.5455
50.5497
50.5544
50.5595
50.5649
50.5707
50.5767
50.583
50.5895
50.5963
50.6031
50.6101
50.6173
50.6245
50.6318
50.6391
50.6464
50.6538
50.6611
50.6683
50.6755
50.6826
50.6896
50.6965
50.7032
50.7098
50.7161
50.7223
50.7282
50.734
50.7395
50.7447
50.787
52.195
47.6496
47.6502
47.6515
47.6533
47.6557
47.6585
47.6618
47.6655
47.6696
47.6741
47.6788
47.6839
47.6891
47.6946
47.7002
47.7061
47.712
47.7181
47.7242
47.7304
47.7367
47.7429
47.7492
47.7555
47.7617
47.7679
47.7741
47.7801
47.7861
47.792
47.7977
47.8034
47.8089
47.8142
47.8195
47.8245
47.8294
47.8341
47.8713
49.351
44.7664
44.7669
44.768
44.7696
44.7716
44.7741
44.777
44.7802
44.7837
44.7876
44.7917
44.796
44.8005
44.8052
44.8101
44.815
44.8201
44.8253
44.8305
44.8357
44.841
44.8463
44.8516
44.8568
44.8621
44.8673
44.8724
44.8775
44.8825
44.8875
44.8924
44.8972
44.9019
44.9066
44.9111
44.9156
44.9199
44.9242
44.9567
46.5166
41.8819
41.8824
41.8834
41.8847
41.8865
41.8886
41.8911
41.8938
41.8968
41.9001
41.9036
41.9073
41.9111
41.9151
41.9192
41.9233
41.9276
41.9319
41.9362
41.9405
41.9449
41.9492
41.9536
41.9579
41.9621
41.9664
41.9706
41.9747
41.9789
41.9829
41.987
41.991
41.995
41.9989
42.0028
42.0067
42.0106
42.0145
42.0426
43.6935
38.9965
38.9969
38.9977
38.9989
39.0004
39.0022
39.0042
39.0066
39.0091
39.0119
39.0148
39.0178
39.021
39.0243
39.0277
39.0311
39.0346
39.038
39.0415
39.045
39.0485
39.0519
39.0553
39.0587
39.062
39.0653
39.0686
39.0718
39.075
39.0782
39.0813
39.0845
39.0877
39.091
39.0942
39.0976
39.1009
39.1044
39.1285
40.885
36.1102
36.1105
36.1112
36.1122
36.1134
36.1149
36.1167
36.1186
36.1207
36.123
36.1254
36.1279
36.1305
36.1331
36.1358
36.1385
36.1412
36.144
36.1466
36.1493
36.1519
36.1545
36.157
36.1594
36.1618
36.1641
36.1664
36.1686
36.1709
36.1731
36.1753
36.1776
36.18
36.1824
36.1849
36.1876
36.1904
36.1933
36.2133
38.0956
33.2232
33.2235
33.224
33.2248
33.2258
33.2271
33.2285
33.2301
33.2318
33.2336
33.2355
33.2375
33.2395
33.2416
33.2437
33.2457
33.2478
33.2498
33.2517
33.2536
33.2554
33.2571
33.2587
33.2602
33.2616
33.263
33.2642
33.2654
33.2666
33.2677
33.2689
33.2701
33.2713
33.2728
33.2744
33.2762
33.2782
33.2806
33.2961
35.3313
30.3356
30.3358
30.3362
30.3369
30.3377
30.3387
30.3398
30.3411
30.3424
30.3439
30.3454
30.3469
30.3484
30.35
30.3515
30.3529
30.3543
30.3557
30.3569
30.358
30.3591
30.3599
30.3607
30.3613
30.3617
30.3621
30.3622
30.3623
30.3622
30.3621
30.362
30.3618
30.3617
30.3618
30.3621
30.3627
30.3636
30.3651
30.3753
32.5984
27.4474
27.4476
27.448
27.4485
27.4491
27.4499
27.4508
27.4518
27.4528
27.4539
27.455
27.4561
27.4572
27.4583
27.4593
27.4603
27.4611
27.4619
27.4625
27.4629
27.4632
27.4634
27.4633
27.463
27.4625
27.4618
27.4609
27.4597
27.4584
27.4568
27.455
27.4531
27.4512
27.4493
27.4476
27.4462
27.4454
27.4453
27.4491
29.8986
24.5589
24.5591
24.5594
24.5598
24.5603
24.5609
24.5615
24.5622
24.563
24.5638
24.5646
24.5654
24.5661
24.5668
24.5674
24.5678
24.5682
24.5685
24.5686
24.5685
24.5682
24.5676
24.5669
24.5658
24.5645
24.5628
24.5608
24.5585
24.5557
24.5526
24.549
24.545
24.5407
24.5359
24.531
24.5261
24.5216
24.5179
24.5159
27.1018
21.6701
21.6702
21.6705
21.6708
21.6711
21.6716
21.6721
21.6726
21.6731
21.6737
21.6742
21.6747
21.6751
21.6754
21.6757
21.6758
21.6758
21.6757
21.6753
21.6748
21.674
21.673
21.6717
21.6701
21.6681
21.6657
21.6629
21.6596
21.6557
21.6512
21.6459
21.6398
21.6327
21.6245
21.615
21.6041
21.5917
21.578
21.5636
21.8764
18.7811
18.7812
18.7813
18.7816
18.7818
18.7821
18.7825
18.7828
18.7832
18.7835
18.7838
18.7841
18.7843
18.7844
18.7844
18.7843
18.784
18.7836
18.783
18.7822
18.7811
18.7798
18.7782
18.7762
18.7739
18.7711
18.7679
18.7641
18.7597
18.7546
18.7486
18.7415
18.733
18.7228
18.7102
18.6943
18.6736
18.6459
18.6072
18.5808
15.8919
15.892
15.8921
15.8922
15.8924
15.8926
15.8928
15.8931
15.8933
15.8935
15.8936
15.8937
15.8938
15.8937
15.8935
15.8933
15.8928
15.8923
15.8915
15.8905
15.8894
15.8879
15.8862
15.8842
15.8819
15.8792
15.8761
15.8725
15.8684
15.8638
15.8585
15.8526
15.8459
15.8384
15.8301
15.8212
15.8119
15.803
15.7962
15.7945
13.0026
13.0026
13.0027
13.0028
13.0029
13.0031
13.0032
13.0033
13.0035
13.0035
13.0036
13.0036
13.0035
13.0034
13.0031
13.0028
13.0023
13.0017
13.0009
12.9999
12.9988
12.9974
12.9959
12.994
12.992
12.9896
12.9869
12.984
12.9807
12.9771
12.9732
12.9691
12.9647
12.9602
12.9558
12.9516
12.9481
12.9455
12.9445
12.9456
10.1132
10.1132
10.1133
10.1133
10.1134
10.1135
10.1136
10.1136
10.1137
10.1137
10.1137
10.1136
10.1135
10.1133
10.1131
10.1127
10.1123
10.1117
10.111
10.1102
10.1092
10.108
10.1067
10.1052
10.1036
10.1017
10.0997
10.0975
10.0951
10.0926
10.09
10.0874
10.0848
10.0823
10.0801
10.0783
10.077
10.0764
10.0766
10.0778
7.22374
7.22375
7.22378
7.22382
7.22386
7.22391
7.22395
7.22399
7.224
7.224
7.22396
7.22389
7.22378
7.22361
7.22338
7.22308
7.22271
7.22226
7.22171
7.22107
7.22032
7.21947
7.2185
7.21742
7.21622
7.21492
7.21352
7.21204
7.21049
7.20891
7.20732
7.20578
7.20433
7.20304
7.20197
7.20119
7.20076
7.20074
7.20118
7.20207
4.33425
4.33426
4.33428
4.3343
4.33432
4.33434
4.33436
4.33437
4.33437
4.33436
4.33433
4.33427
4.33419
4.33408
4.33393
4.33373
4.33349
4.3332
4.33286
4.33246
4.33199
4.33147
4.33088
4.33023
4.32952
4.32875
4.32794
4.3271
4.32624
4.32537
4.32453
4.32373
4.32301
4.3224
4.32193
4.32162
4.32151
4.32161
4.32193
4.32247
1.44475
1.44476
1.44476
1.44477
1.44477
1.44478
1.44478
1.44479
1.44479
1.44478
1.44477
1.44475
1.44472
1.44468
1.44462
1.44456
1.44447
1.44438
1.44426
1.44412
1.44396
1.44379
1.44359
1.44337
1.44314
1.44289
1.44262
1.44235
1.44207
1.4418
1.44154
1.44129
1.44108
1.4409
1.44076
1.44069
1.44067
1.44071
1.44083
1.44101
3672.73
3646.22
3595.2
3527.99
3449.88
3364.2
3272.97
3177.37
3078.03
2975.11
2868.42
2757.39
2640.96
2517.93
2392.4
2264.44
2133.98
2000.94
1865.23
1726.77
1585.43
1441.08
1293.58
1142.72
988.251
829.82
666.909
498.682
323.565
137.917
117.797
116.564
115.741
115.158
114.731
114.413
114.177
114.009
113.899
113.845
1478.86
1390.16
1264.1
1150.31
1043.66
940.804
839.607
738.72
637.328
534.988
431.543
327.065
221.703
116.406
113.953
113.2
112.668
112.283
112.002
111.798
111.657
111.568
111.527
111.533
111.587
111.694
111.864
112.117
112.482
113.013
113.168
112.941
112.609
112.281
111.991
111.751
111.561
111.419
111.325
111.277
174.599
111.78
108.378
108.316
108.289
108.289
108.315
108.369
108.451
108.566
108.721
108.925
109.194
109.539
109.668
109.606
109.471
109.318
109.176
109.056
108.965
108.904
108.875
108.879
108.917
108.991
109.101
109.247
109.417
109.58
109.645
109.589
109.456
109.289
109.117
108.958
108.824
108.719
108.647
108.61
106.751
105.62
105.613
105.612
105.617
105.633
105.661
105.706
105.766
105.845
105.94
106.051
106.17
106.28
106.348
106.365
106.342
106.296
106.241
106.187
106.142
106.11
106.096
106.1
106.125
106.169
106.231
106.305
106.382
106.444
106.47
106.449
106.387
106.3
106.201
106.102
106.014
105.942
105.891
105.864
103.36
102.865
102.859
102.862
102.87
102.885
102.908
102.94
102.98
103.028
103.083
103.143
103.202
103.254
103.293
103.315
103.319
103.311
103.296
103.277
103.26
103.248
103.244
103.249
103.264
103.29
103.322
103.359
103.395
103.421
103.43
103.418
103.385
103.336
103.279
103.218
103.162
103.115
103.081
103.063
100.519
100.074
100.068
100.069
100.075
100.086
100.101
100.122
100.147
100.176
100.208
100.242
100.275
100.305
100.329
100.347
100.358
100.362
100.362
100.359
100.355
100.354
100.355
100.361
100.371
100.386
100.403
100.421
100.438
100.449
100.451
100.442
100.422
100.394
100.36
100.323
100.288
100.258
100.235
100.224
97.6998
97.252
97.245
97.2449
97.248
97.2542
97.2635
97.2758
97.2909
97.3083
97.3275
97.3475
97.3674
97.386
97.4025
97.416
97.4264
97.4337
97.4386
97.4418
97.4443
97.447
97.4508
97.4562
97.4634
97.4721
97.4817
97.491
97.4986
97.5027
97.5021
97.4956
97.4832
97.4657
97.4447
97.422
97.4
97.381
97.3669
97.3593
94.8641
94.407
94.3991
94.3977
94.3985
94.4014
94.4064
94.4134
94.4222
94.4325
94.4439
94.4561
94.4684
94.4804
94.4916
94.5016
94.5102
94.5173
94.5232
94.5281
94.5324
94.5366
94.5409
94.5456
94.5508
94.5563
94.5618
94.5667
94.5701
94.5715
94.5699
94.5651
94.557
94.5459
94.5327
94.5185
94.5048
94.4928
94.4838
94.479
92.0129
91.5456
91.537
91.5347
91.5339
91.5346
91.5367
91.5402
91.5449
91.5508
91.5574
91.5648
91.5724
91.5802
91.5877
91.5948
91.6014
91.6073
91.6126
91.6173
91.6216
91.6257
91.6296
91.6335
91.6373
91.641
91.6443
91.6469
91.6485
91.6487
91.6471
91.6436
91.6381
91.6309
91.6225
91.6135
91.6048
91.5973
91.5916
91.5885
89.1505
88.6726
88.6635
88.6606
88.6588
88.6579
88.6582
88.6594
88.6615
88.6644
88.6681
88.6722
88.6768
88.6817
88.6866
88.6914
88.6961
88.7005
88.7047
88.7086
88.7122
88.7156
88.7188
88.7218
88.7246
88.7271
88.7292
88.7307
88.7314
88.7311
88.7298
88.7272
88.7235
88.7188
88.7133
88.7076
88.702
88.6972
88.6936
88.6916
86.2794
85.791
85.7817
85.7784
85.7758
85.7741
85.7731
85.7728
85.7732
85.7742
85.7758
85.7779
85.7804
85.7832
85.7862
85.7892
85.7923
85.7954
85.7984
85.8012
85.804
85.8065
85.8089
85.8111
85.8131
85.8148
85.8161
85.8169
85.8172
85.8168
85.8157
85.8139
85.8113
85.8082
85.8046
85.8009
85.7973
85.7942
85.7919
85.7906
83.4006
82.9029
82.8936
82.8901
82.8871
82.8848
82.8829
82.8817
82.881
82.8807
82.881
82.8816
82.8826
82.884
82.8855
82.8872
82.889
82.8909
82.8928
82.8947
82.8965
82.8983
82.8999
82.9014
82.9027
82.9038
82.9046
82.905
82.9051
82.9047
82.9038
82.9025
82.9007
82.8985
82.8962
82.8937
82.8914
82.8893
82.8878
82.887
80.5125
80.0097
80.0007
79.9971
79.994
79.9912
79.9889
79.987
79.9855
79.9845
79.9838
79.9834
79.9834
79.9836
79.9841
79.9848
79.9856
79.9865
79.9875
79.9886
79.9896
79.9906
79.9916
79.9925
79.9932
79.9938
79.9942
79.9944
79.9943
79.9939
79.9932
79.9922
79.9909
79.9894
79.9878
79.9861
79.9846
79.9832
79.9822
79.9817
77.6127
77.1126
77.1041
77.1005
77.0973
77.0944
77.0918
77.0895
77.0875
77.0858
77.0845
77.0834
77.0826
77.0821
77.0818
77.0816
77.0817
77.0818
77.0821
77.0825
77.0829
77.0833
77.0837
77.0841
77.0844
77.0846
77.0847
77.0846
77.0844
77.084
77.0834
77.0826
77.0816
77.0806
77.0794
77.0783
77.0772
77.0763
77.0756
77.0753
74.7048
74.2128
74.2048
74.2013
74.198
74.195
74.1921
74.1896
74.1872
74.1852
74.1834
74.1818
74.1804
74.1793
74.1784
74.1777
74.1771
74.1767
74.1764
74.1762
74.1761
74.176
74.176
74.1759
74.1759
74.1758
74.1756
74.1754
74.1751
74.1746
74.174
74.1734
74.1726
74.1718
74.171
74.1702
74.1694
74.1688
74.1683
74.1681
71.7997
71.3115
71.3036
71.3001
71.2967
71.2935
71.2905
71.2878
71.2852
71.2828
71.2806
71.2787
71.2769
71.2754
71.274
71.2729
71.2719
71.271
71.2702
71.2696
71.2691
71.2686
71.2682
71.2679
71.2675
71.2672
71.2668
71.2664
71.266
71.2655
71.265
71.2644
71.2638
71.2631
71.2625
71.2619
71.2613
71.2608
71.2605
71.2603
68.9015
68.4088
68.4008
68.3972
68.3937
68.3904
68.3873
68.3843
68.3815
68.3789
68.3765
68.3742
68.3722
68.3703
68.3687
68.3672
68.3658
68.3646
68.3635
68.3626
68.3617
68.361
68.3603
68.3597
68.3592
68.3586
68.3581
68.3576
68.3571
68.3566
68.3561
68.3555
68.355
68.3544
68.3539
68.3534
68.353
68.3526
68.3524
68.3522
66.0063
65.5047
65.4965
65.4928
65.4892
65.4857
65.4824
65.4793
65.4764
65.4736
65.471
65.4685
65.4663
65.4642
65.4623
65.4605
65.4589
65.4575
65.4562
65.455
65.454
65.453
65.4521
65.4514
65.4506
65.45
65.4493
65.4488
65.4482
65.4477
65.4471
65.4466
65.4461
65.4456
65.4452
65.4448
65.4444
65.4442
65.444
65.4439
63.1103
62.5989
62.5906
62.5868
62.583
62.5795
62.5761
62.5729
62.5698
62.5669
62.5642
62.5616
62.5592
62.557
62.5549
62.553
62.5513
62.5497
62.5482
62.5469
62.5457
62.5446
62.5436
62.5427
62.5419
62.5411
62.5404
62.5398
62.5392
62.5387
62.5381
62.5376
62.5372
62.5368
62.5364
62.536
62.5357
62.5355
62.5353
62.5353
60.212
59.6913
59.683
59.6791
59.6754
59.6717
59.6683
59.665
59.6619
59.6589
59.6561
59.6535
59.651
59.6487
59.6466
59.6446
59.6427
59.6411
59.6395
59.6381
59.6368
59.6357
59.6346
59.6337
59.6328
59.632
59.6313
59.6307
59.6301
59.6295
59.629
59.6286
59.6281
59.6278
59.6274
59.6271
59.6269
59.6267
59.6265
59.6265
57.3112
56.782
56.7738
56.7699
56.7661
56.7625
56.759
56.7557
56.7526
56.7496
56.7468
56.7441
56.7417
56.7394
56.7372
56.7352
56.7334
56.7317
56.7301
56.7287
56.7274
56.7263
56.7252
56.7243
56.7234
56.7226
56.7219
56.7213
56.7207
56.7202
56.7198
56.7193
56.719
56.7186
56.7183
56.7181
56.7179
56.7177
56.7176
56.7176
54.4078
53.8709
53.8629
53.859
53.8552
53.8516
53.8482
53.8449
53.8419
53.8389
53.8362
53.8336
53.8312
53.829
53.8269
53.8249
53.8232
53.8215
53.8201
53.8187
53.8175
53.8164
53.8154
53.8145
53.8137
53.8129
53.8123
53.8117
53.8112
53.8108
53.8103
53.81
53.8097
53.8094
53.8091
53.8089
53.8088
53.8086
53.8086
53.8085
51.502
50.9579
50.9502
50.9464
50.9427
50.9392
50.9359
50.9327
50.9298
50.927
50.9243
50.9219
50.9196
50.9175
50.9155
50.9138
50.9121
50.9106
50.9093
50.908
50.9069
50.9059
50.9051
50.9043
50.9036
50.9029
50.9024
50.9019
50.9015
50.9011
50.9008
50.9005
50.9002
50.9
50.8998
50.8997
50.8996
50.8995
50.8994
50.8994
48.5938
48.0431
48.0358
48.0321
48.0285
48.0252
48.022
48.019
48.0162
48.0136
48.0112
48.009
48.0069
48.005
48.0033
48.0017
48.0002
47.999
47.9978
47.9968
47.9958
47.995
47.9943
47.9937
47.9931
47.9927
47.9922
47.9919
47.9916
47.9913
47.9911
47.9909
47.9907
47.9906
47.9905
47.9904
47.9903
47.9902
47.9902
47.9902
45.6834
45.1264
45.1195
45.1159
45.1126
45.1095
45.1065
45.1038
45.1013
45.0989
45.0968
45.0948
45.0931
45.0915
45.09
45.0887
45.0876
45.0866
45.0857
45.0849
45.0843
45.0837
45.0832
45.0828
45.0824
45.0821
45.0819
45.0817
45.0815
45.0814
45.0813
45.0812
45.0811
45.0811
45.081
45.081
45.081
45.0809
45.0809
45.0809
42.7711
42.2076
42.2012
42.1979
42.1948
42.192
42.1893
42.1869
42.1848
42.1828
42.1811
42.1795
42.1781
42.1769
42.1759
42.175
42.1742
42.1736
42.1731
42.1726
42.1723
42.172
42.1718
42.1716
42.1715
42.1714
42.1714
42.1714
42.1714
42.1714
42.1714
42.1714
42.1715
42.1715
42.1716
42.1716
42.1716
42.1716
42.1717
42.1717
39.8568
39.2865
39.2807
39.2777
39.275
39.2725
39.2703
39.2684
39.2667
39.2652
39.264
39.263
39.2621
39.2615
39.2609
39.2605
39.2602
39.26
39.2599
39.2599
39.2599
39.26
39.2601
39.2602
39.2604
39.2606
39.2608
39.261
39.2612
39.2613
39.2615
39.2617
39.2618
39.262
39.2621
39.2622
39.2623
39.2624
39.2624
39.2624
36.9402
36.3628
36.3577
36.3551
36.3529
36.3509
36.3493
36.348
36.347
36.3462
36.3457
36.3453
36.3452
36.3451
36.3452
36.3455
36.3457
36.3461
36.3465
36.3469
36.3474
36.3479
36.3483
36.3488
36.3493
36.3497
36.3502
36.3506
36.351
36.3513
36.3517
36.352
36.3522
36.3525
36.3527
36.3529
36.353
36.3531
36.3532
36.3532
34.0195
33.4358
33.4316
33.4296
33.428
33.4268
33.4261
33.4257
33.4256
33.4257
33.4261
33.4267
33.4274
33.4282
33.4291
33.43
33.431
33.432
33.4329
33.4339
33.4349
33.4358
33.4366
33.4375
33.4382
33.439
33.4397
33.4403
33.4409
33.4414
33.4419
33.4424
33.4427
33.4431
33.4434
33.4436
33.4438
33.444
33.4441
33.4441
31.0902
30.5044
30.5015
30.5003
30.4998
30.4999
30.5004
30.5013
30.5025
30.5039
30.5055
30.5073
30.5091
30.5109
30.5127
30.5145
30.5162
30.5179
30.5195
30.5211
30.5225
30.5239
30.5251
30.5263
30.5274
30.5284
30.5294
30.5302
30.531
30.5317
30.5323
30.5329
30.5334
30.5338
30.5342
30.5345
30.5348
30.5349
30.5351
30.5351
28.1432
27.5668
27.5659
27.5663
27.5676
27.5696
27.5721
27.575
27.5781
27.5813
27.5845
27.5877
27.5908
27.5938
27.5967
27.5994
27.6019
27.6043
27.6066
27.6087
27.6106
27.6124
27.6141
27.6156
27.617
27.6182
27.6194
27.6204
27.6214
27.6222
27.623
27.6236
27.6242
27.6247
27.6252
27.6255
27.6258
27.626
27.6262
27.6263
25.1459
24.62
24.622
24.6257
24.6305
24.636
24.6418
24.6476
24.6533
24.6588
24.664
24.6689
24.6735
24.6777
24.6816
24.6853
24.6886
24.6917
24.6945
24.6971
24.6995
24.7016
24.7036
24.7054
24.707
24.7085
24.7098
24.711
24.7121
24.7131
24.7139
24.7147
24.7153
24.7159
24.7164
24.7168
24.7171
24.7173
24.7175
24.7176
21.8156
21.6551
21.6652
21.6772
21.6894
21.7011
21.7119
21.7217
21.7306
21.7386
21.7458
21.7524
21.7583
21.7636
21.7684
21.7728
21.7768
21.7804
21.7837
21.7866
21.7893
21.7917
21.7939
21.7959
21.7977
21.7993
21.8008
21.8021
21.8032
21.8043
21.8052
21.806
21.8067
21.8073
21.8078
21.8082
21.8085
21.8088
21.8089
21.809
18.5945
18.6493
18.6953
18.7286
18.7538
18.7736
18.7896
18.8029
18.8143
18.824
18.8325
18.84
18.8467
18.8527
18.858
18.8628
18.867
18.8709
18.8744
18.8775
18.8804
18.8829
18.8852
18.8873
18.8891
18.8908
18.8923
18.8936
18.8948
18.8959
18.8968
18.8976
18.8983
18.8989
18.8994
18.8998
18.9002
18.9004
18.9006
18.9007
15.8003
15.813
15.8288
15.845
15.8604
15.8746
15.8873
15.8987
15.9088
15.9179
15.926
15.9332
15.9397
15.9455
15.9507
15.9554
15.9597
15.9635
15.9669
15.97
15.9728
15.9753
15.9776
15.9796
15.9814
15.983
15.9844
15.9857
15.9869
15.9879
15.9888
15.9896
15.9902
15.9908
15.9913
15.9917
15.992
15.9923
15.9924
15.9925
12.9488
12.9543
12.9614
12.9695
12.9782
12.987
12.9955
13.0037
13.0114
13.0186
13.0252
13.0313
13.0369
13.042
13.0466
13.0508
13.0546
13.0581
13.0612
13.064
13.0666
13.0688
13.0709
13.0727
13.0744
13.0759
13.0772
13.0784
13.0794
13.0803
13.0811
13.0818
13.0825
13.083
13.0834
13.0838
13.0841
13.0843
13.0844
13.0845
10.0799
10.0829
10.0868
10.0914
10.0964
10.1018
10.1073
10.1128
10.1181
10.1233
10.1282
10.1329
10.1372
10.1413
10.145
10.1484
10.1516
10.1544
10.157
10.1594
10.1615
10.1634
10.1652
10.1667
10.1681
10.1694
10.1705
10.1715
10.1724
10.1732
10.1738
10.1744
10.1749
10.1754
10.1757
10.176
10.1763
10.1765
10.1766
10.1767
7.20341
7.20522
7.20747
7.21013
7.2131
7.21632
7.21971
7.22317
7.22665
7.23009
7.23343
7.23664
7.23969
7.24256
7.24525
7.24775
7.25006
7.25218
7.25412
7.25589
7.25749
7.25894
7.26026
7.26144
7.26249
7.26344
7.26429
7.26504
7.2657
7.26629
7.26681
7.26725
7.26764
7.26797
7.26825
7.26848
7.26867
7.2688
7.26889
7.26894
4.32323
4.32421
4.32542
4.32683
4.32842
4.33015
4.332
4.33391
4.33586
4.33781
4.33973
4.34159
4.34339
4.3451
4.34671
4.34822
4.34962
4.35092
4.35211
4.3532
4.3542
4.3551
4.35591
4.35665
4.35731
4.3579
4.35842
4.35889
4.35931
4.35967
4.35999
4.36027
4.36052
4.36072
4.3609
4.36104
4.36115
4.36124
4.36129
4.36132
1.44126
1.44157
1.44195
1.4424
1.4429
1.44345
1.44403
1.44464
1.44527
1.4459
1.44653
1.44714
1.44773
1.4483
1.44883
1.44934
1.44981
1.45024
1.45065
1.45101
1.45135
1.45165
1.45193
1.45218
1.4524
1.4526
1.45278
1.45294
1.45308
1.45321
1.45332
1.45341
1.45349
1.45356
1.45362
1.45367
1.45371
1.45374
1.45376
1.45377
)
;

boundaryField
{
    top
    {
        type            fixedValue;
        value           uniform 0;
    }
    inlet
    {
        type            darcyGradPressure;
        gradient        nonuniform List<scalar> 
80
(
9.81
9.81
9.81
9.81
9.81
9.81
9.81
9.81
9.81
9.81
9.81
9.81
9.98684
8247.39
9533.79
9683.19
9736.86
9762.69
9777.1
9785.94
9791.72
9795.69
9798.52
9800.61
9802.18
9803.39
9804.34
9805.1
9805.71
9806.18
9806.56
9806.86
9807.12
9807.33
9807.51
9807.68
9807.83
9807.98
9808.12
9808.28
9809.48
9809.43
9809.37
9809.32
9809.27
9809.21
9809.15
9809.09
9809.01
9808.92
9808.81
9808.67
9808.5
9808.28
9808.01
9807.67
9807.24
9806.69
9805.96
9804.99
9803.65
9801.76
9798.97
9794.67
9787.62
9774.98
9749.28
9683.85
9384.91
298.561
9.81
9.81
9.81
9.81
9.81
9.81
9.81
9.81
9.81
9.81
)
;
        value           nonuniform List<scalar> 
80
(
113.383
113.418
113.489
113.595
113.739
113.926
114.162
114.459
114.837
115.328
115.989
116.929
119.681
1383.22
1750.23
1959.31
2145.81
2320.68
2487.46
2647.81
2802.73
2952.88
3098.72
3240.62
3378.87
3513.7
3645.31
3773.86
3899.5
4020.78
4137.19
4248.94
4356.15
4458.72
4556.17
4647.49
4730.92
4803.51
4860.54
4894.54
4898.92
4872.4
4821.37
4754.15
4676.04
4590.35
4499.11
4403.51
4304.15
4201.22
4094.52
3983.47
3867.02
3743.96
3618.4
3490.4
3359.88
3226.77
3090.98
2952.39
2810.88
2666.31
2518.45
2367.06
2211.7
2051.69
1885.57
1709.16
1496.68
175.237
119.023
117.791
116.967
116.384
115.957
115.639
115.404
115.235
115.126
115.071
)
;
    }
    axis
    {
        type            darcyGradPressure;
        gradient        uniform -0;
        value           nonuniform List<scalar> 
80
(
112.157
109.629
107.033
104.378
101.675
98.9339
96.164
93.3721
90.5632
87.7413
84.909
82.0683
79.2209
76.3678
73.5099
70.6478
67.782
64.913
62.0412
59.1669
56.2903
53.4118
50.5315
47.6496
44.7664
41.8819
38.9965
36.1102
33.2232
30.3356
27.4474
24.5589
21.6701
18.7811
15.8919
13.0026
10.1132
7.22374
4.33425
1.44475
113.845
111.277
108.61
105.864
103.063
100.224
97.3593
94.479
91.5885
88.6916
85.7906
82.887
79.9817
77.0753
74.1681
71.2603
68.3522
65.4439
62.5353
59.6265
56.7176
53.8085
50.8994
47.9902
45.0809
42.1717
39.2624
36.3532
33.4441
30.5351
27.6263
24.7176
21.809
18.9007
15.9925
13.0845
10.1767
7.26894
4.36132
1.45377
)
;
    }
    frontAndBack
    {
        type            empty;
    }
}


// ************************************************************************* //
