/*--------------------------------*- C++ -*----------------------------------*\
  =========                 |
  \\      /  F ield         | OpenFOAM: The Open Source CFD Toolbox
   \\    /   O peration     | Website:  https://openfoam.org
    \\  /    A nd           | Version:  7
     \\/     M anipulation  |
\*---------------------------------------------------------------------------*/
FoamFile
{
    version     2.0;
    format      ascii;
    class       surfaceScalarField;
    location    "20000";
    object      phia;
}
// * * * * * * * * * * * * * * * * * * * * * * * * * * * * * * * * * * * * * //

dimensions      [0 3 -1 0 0 0 0];

internalField   nonuniform List<scalar> 
6280
(
-2.93018e-07
2.93018e-07
-5.91711e-07
2.98693e-07
-9.07571e-07
3.15859e-07
-1.25453e-06
3.46963e-07
-1.65159e-06
3.97052e-07
-2.12703e-06
4.75449e-07
-2.72623e-06
5.99193e-07
-3.5263e-06
8.00078e-07
-4.66557e-06
1.13927e-06
-6.40379e-06
1.73822e-06
-9.24898e-06
2.84519e-06
-1.42289e-05
4.98018e-06
-3.37972e-06
6.96738e-06
-6.27004e-07
1.05025e-06
-2.93011e-07
3.97912e-07
-1.71062e-07
2.77598e-07
-1.11677e-07
2.12536e-07
-7.82305e-08
1.69789e-07
-5.75649e-08
1.39391e-07
-4.3944e-08
1.16717e-07
-3.45511e-08
9.92437e-08
-2.78156e-08
8.55114e-08
-2.28349e-08
7.44856e-08
-1.90681e-08
6.54855e-08
-1.61542e-08
5.80674e-08
-1.3857e-08
5.18691e-08
-1.2017e-08
4.66304e-08
-1.0545e-08
4.21542e-08
-9.27412e-09
3.64776e-08
-8.20909e-09
3.2075e-08
-7.34008e-09
2.85596e-08
-6.61556e-09
2.56752e-08
-5.98723e-09
2.3258e-08
-5.40939e-09
2.11884e-08
-4.83531e-09
1.93665e-08
-4.21359e-09
1.77019e-08
-3.48945e-09
1.61086e-08
-2.6004e-09
1.45199e-08
-1.44845e-09
1.28908e-08
1.13134e-08
-6.23923e-11
-2.69809e-07
5.62827e-07
-5.41935e-07
5.70819e-07
-8.23246e-07
5.97171e-07
-1.12061e-06
6.44328e-07
-1.44074e-06
7.17183e-07
-1.78901e-06
8.23716e-07
-2.16569e-06
9.7587e-07
-2.55584e-06
1.19023e-06
-2.90361e-06
1.48703e-06
-3.0486e-06
1.88321e-06
-2.57101e-06
2.36759e-06
-4.18286e-07
2.82746e-06
3.70031e-06
2.84878e-06
2.85469e-06
1.89587e-06
1.94602e-06
1.30658e-06
1.24986e-06
9.7376e-07
6.804e-07
7.81994e-07
1.76947e-07
6.73241e-07
-3.03025e-07
6.19364e-07
-7.9469e-07
6.08382e-07
-1.33418e-06
6.3873e-07
-1.96666e-06
7.17995e-07
-2.75715e-06
8.64976e-07
-3.80728e-06
1.11561e-06
-5.284e-06
1.53479e-06
-7.4705e-06
2.23837e-06
-1.08574e-05
3.43354e-06
-4.30264e-06
4.45316e-06
-6.86275e-07
7.86543e-07
-3.53717e-07
2.47014e-07
-2.25481e-07
1.88322e-07
-1.5757e-07
1.55764e-07
-1.16164e-07
1.31776e-07
-8.86964e-08
1.12431e-07
-6.9258e-08
9.60091e-08
-5.45082e-08
8.13661e-08
-4.20906e-08
6.74728e-08
-2.96558e-08
5.31962e-08
-1.34528e-08
3.68005e-08
2.21085e-08
-3.79871e-10
-2.31455e-07
7.94282e-07
-4.61132e-07
8.00495e-07
-6.90609e-07
8.26648e-07
-9.19958e-07
8.73677e-07
-1.1465e-06
9.43728e-07
-1.3626e-06
1.03982e-06
-1.55184e-06
1.1651e-06
-1.68292e-06
1.32131e-06
-1.70136e-06
1.50547e-06
-1.52214e-06
1.70399e-06
-1.03815e-06
1.88361e-06
-1.93054e-07
1.98237e-06
7.38231e-07
1.91749e-06
9.64642e-07
1.66946e-06
8.54566e-07
1.41666e-06
6.12433e-07
1.21589e-06
3.21136e-07
1.07329e-06
1.22604e-08
9.82117e-07
-3.03318e-07
9.34942e-07
-6.21874e-07
9.26938e-07
-9.39473e-07
9.56329e-07
-1.2454e-06
1.02392e-06
-1.51237e-06
1.13195e-06
-1.67838e-06
1.28162e-06
-1.61134e-06
1.46775e-06
-1.03982e-06
1.66685e-06
5.81719e-07
1.81201e-06
3.29413e-06
1.74075e-06
2.80506e-06
1.27562e-06
2.10716e-06
9.44912e-07
1.5561e-06
7.39383e-07
1.10149e-06
6.10375e-07
7.02632e-07
5.30633e-07
3.29102e-07
4.85961e-07
-4.51682e-08
4.70279e-07
-4.47266e-07
4.83464e-07
-9.1084e-07
5.31047e-07
-7.90661e-07
5.44849e-07
-8.6286e-08
1.02487e-07
1.14002e-08
6.40756e-09
-1.88179e-07
9.82461e-07
-3.71791e-07
9.84108e-07
-5.48968e-07
1.00382e-06
-7.1636e-07
1.04107e-06
-8.68201e-07
1.09557e-06
-9.95188e-07
1.1668e-06
-1.0833e-06
1.25322e-06
-1.1131e-06
1.35112e-06
-1.06081e-06
1.45318e-06
-9.03846e-07
1.54702e-06
-6.34924e-07
1.61468e-06
-2.87902e-07
1.63534e-06
3.52071e-08
1.59438e-06
2.05095e-07
1.49957e-06
2.35187e-07
1.38656e-06
1.70055e-07
1.28103e-06
4.7775e-08
1.19557e-06
-1.0483e-07
1.13472e-06
-2.68937e-07
1.09905e-06
-4.29469e-07
1.08747e-06
-5.71277e-07
1.09814e-06
-6.75804e-07
1.12845e-06
-7.18237e-07
1.17438e-06
-6.65908e-07
1.22929e-06
-4.80521e-07
1.28236e-06
-1.30791e-07
1.31712e-06
3.69392e-07
1.31182e-06
8.64407e-07
1.24573e-06
1.01888e-06
1.12115e-06
9.73001e-07
9.9079e-07
8.34478e-07
8.77906e-07
6.56713e-07
7.88141e-07
4.66654e-07
7.20691e-07
2.79814e-07
6.72801e-07
1.08819e-07
6.41275e-07
-3.03388e-08
6.22622e-07
-1.11658e-07
6.12365e-07
-1.70255e-07
6.03527e-07
-3.09762e-08
1.56208e-07
2.38977e-09
1.27161e-08
-1.47584e-07
1.13005e-06
-2.89556e-07
1.12608e-06
-4.22653e-07
1.13692e-06
-5.42791e-07
1.16121e-06
-6.44662e-07
1.19744e-06
-7.21505e-07
1.24364e-06
-7.65245e-07
1.29696e-06
-7.67348e-07
1.35322e-06
-7.2084e-07
1.40667e-06
-6.2391e-07
1.45009e-06
-4.84862e-07
1.47564e-06
-3.26382e-07
1.47686e-06
-1.83732e-07
1.45173e-06
-8.93196e-08
1.40516e-06
-5.0577e-08
1.34782e-06
-5.95194e-08
1.28997e-06
-1.0273e-07
1.23878e-06
-1.66296e-07
1.19829e-06
-2.37338e-07
1.17009e-06
-3.03962e-07
1.15409e-06
-3.54753e-07
1.14893e-06
-3.78449e-07
1.15214e-06
-3.64271e-07
1.1602e-06
-3.03412e-07
1.16844e-06
-1.92242e-07
1.17119e-06
-3.75202e-08
1.1624e-06
1.37399e-07
1.1369e-06
2.90397e-07
1.09273e-06
3.7793e-07
1.03361e-06
3.99987e-07
9.68733e-07
3.72201e-07
9.05692e-07
3.11376e-07
8.48966e-07
2.31542e-07
8.00526e-07
1.43635e-07
7.60708e-07
5.60526e-08
7.28857e-07
-2.50486e-08
7.03723e-07
-9.63984e-08
6.83715e-07
-1.59977e-07
6.67156e-07
-1.60928e-08
1.87417e-07
6.72838e-10
4.74156e-09
-1.13439e-07
1.24348e-06
-2.21469e-07
1.23411e-06
-3.20745e-07
1.2362e-06
-4.07706e-07
1.24817e-06
-4.78492e-07
1.26823e-06
-5.2905e-07
1.2942e-06
-5.55527e-07
1.32344e-06
-5.55024e-07
1.35272e-06
-5.26722e-07
1.37837e-06
-4.73231e-07
1.3966e-06
-4.01668e-07
1.40407e-06
-3.23576e-07
1.39877e-06
-2.52637e-07
1.38079e-06
-2.0011e-07
1.35263e-06
-1.70749e-07
1.31846e-06
-1.63422e-07
1.28264e-06
-1.73356e-07
1.24872e-06
-1.94072e-07
1.219e-06
-2.18602e-07
1.19462e-06
-2.40145e-07
1.17564e-06
-2.52473e-07
1.16126e-06
-2.50338e-07
1.15001e-06
-2.3003e-07
1.13989e-06
-1.90186e-07
1.12859e-06
-1.32731e-07
1.11374e-06
-6.36516e-08
1.09332e-06
7.08771e-09
1.06617e-06
6.74275e-08
1.03239e-06
1.07469e-07
9.93572e-07
1.23924e-07
9.52278e-07
1.18529e-07
9.11087e-07
9.54992e-08
8.71996e-07
5.97533e-08
8.36271e-07
1.59258e-08
8.04535e-07
-3.21309e-08
7.76914e-07
-8.16135e-08
7.53206e-07
-1.3093e-07
7.33032e-07
-1.79654e-07
7.15936e-07
-1.44299e-08
2.00344e-07
5.65663e-10
4.20554e-09
-8.65961e-08
1.33008e-06
-1.6859e-07
1.3161e-06
-2.43134e-07
1.31074e-06
-3.07517e-07
1.31255e-06
-3.5919e-07
1.3199e-06
-3.95925e-07
1.33094e-06
-4.16098e-07
1.34361e-06
-4.19087e-07
1.35571e-06
-4.05721e-07
1.36501e-06
-3.78631e-07
1.36951e-06
-3.42282e-07
1.36772e-06
-3.02476e-07
1.35897e-06
-2.65223e-07
1.34354e-06
-2.35285e-07
1.3227e-06
-2.15116e-07
1.29829e-06
-2.04786e-07
1.27231e-06
-2.02531e-07
1.24646e-06
-2.05472e-07
1.22195e-06
-2.10245e-07
1.1994e-06
-2.13505e-07
1.1789e-06
-2.12319e-07
1.16007e-06
-2.04503e-07
1.14219e-06
-1.88934e-07
1.12432e-06
-1.65799e-07
1.10546e-06
-1.36741e-07
1.08468e-06
-1.04768e-07
1.06135e-06
-7.38211e-08
1.03522e-06
-4.79694e-08
1.00654e-06
-3.03968e-08
9.75999e-07
-2.26791e-08
9.4456e-07
-2.48351e-08
9.13243e-07
-3.57807e-08
8.82941e-07
-5.38408e-08
8.54332e-07
-7.71649e-08
8.27859e-07
-1.04015e-07
8.03764e-07
-1.32935e-07
7.82126e-07
-1.62823e-07
7.62919e-07
-1.9283e-07
7.4601e-07
-1.38738e-08
2.04788e-07
5.67751e-10
4.13334e-09
-6.6344e-08
1.39642e-06
-1.29037e-07
1.3788e-06
-1.85873e-07
1.36758e-06
-2.34909e-07
1.36159e-06
-2.74524e-07
1.35951e-06
-3.03521e-07
1.35993e-06
-3.21283e-07
1.36137e-06
-3.27932e-07
1.36235e-06
-3.24458e-07
1.36153e-06
-3.12743e-07
1.3578e-06
-2.95418e-07
1.3504e-06
-2.75514e-07
1.33906e-06
-2.55956e-07
1.32398e-06
-2.39039e-07
1.30578e-06
-2.26076e-07
1.28533e-06
-2.17333e-07
1.26357e-06
-2.12203e-07
1.24133e-06
-2.09484e-07
1.21923e-06
-2.07692e-07
1.1976e-06
-2.05337e-07
1.17654e-06
-2.01161e-07
1.15589e-06
-1.94326e-07
1.13536e-06
-1.84541e-07
1.11454e-06
-1.72125e-07
1.09304e-06
-1.57982e-07
1.07053e-06
-1.43469e-07
1.04683e-06
-1.30174e-07
1.02192e-06
-1.19612e-07
9.9598e-07
-1.12949e-07
9.69336e-07
-1.10812e-07
9.42424e-07
-1.13275e-07
9.15706e-07
-1.19951e-07
8.89617e-07
-1.30145e-07
8.64526e-07
-1.43007e-07
8.40721e-07
-1.57657e-07
8.18413e-07
-1.73278e-07
7.97747e-07
-1.89173e-07
7.78815e-07
-2.04704e-07
7.61617e-07
-1.33808e-08
2.0356e-07
5.67489e-10
4.13375e-09
-5.14088e-08
1.44783e-06
-1.00032e-07
1.42742e-06
-1.44245e-07
1.41179e-06
-1.82696e-07
1.40004e-06
-2.1435e-07
1.39117e-06
-2.38554e-07
1.38414e-06
-2.55098e-07
1.37791e-06
-2.64262e-07
1.37152e-06
-2.66824e-07
1.3641e-06
-2.64012e-07
1.35498e-06
-2.57371e-07
1.34376e-06
-2.48567e-07
1.33026e-06
-2.39154e-07
1.31457e-06
-2.30364e-07
1.29699e-06
-2.22969e-07
1.27793e-06
-2.17256e-07
1.25786e-06
-2.13094e-07
1.23717e-06
-2.10054e-07
1.21619e-06
-2.07554e-07
1.1951e-06
-2.05004e-07
1.17399e-06
-2.01921e-07
1.15281e-06
-1.98023e-07
1.13146e-06
-1.93274e-07
1.10979e-06
-1.87894e-07
1.08766e-06
-1.82328e-07
1.06497e-06
-1.77164e-07
1.04167e-06
-1.73033e-07
1.01779e-06
-1.70497e-07
9.93444e-07
-1.6995e-07
9.68788e-07
-1.71554e-07
9.44028e-07
-1.7523e-07
9.19382e-07
-1.80678e-07
8.95066e-07
-1.8743e-07
8.71278e-07
-1.94907e-07
8.48197e-07
-2.0248e-07
8.25987e-07
-2.09537e-07
8.04803e-07
-2.15527e-07
7.84805e-07
-2.19924e-07
7.66105e-07
-1.28628e-08
1.97015e-07
5.57799e-10
4.19718e-09
-4.05001e-08
1.48833e-06
-7.89145e-08
1.46584e-06
-1.14079e-07
1.44696e-06
-1.45062e-07
1.43102e-06
-1.71193e-07
1.4173e-06
-1.92096e-07
1.40504e-06
-2.07708e-07
1.39353e-06
-2.18282e-07
1.38209e-06
-2.24359e-07
1.37017e-06
-2.26719e-07
1.35734e-06
-2.2629e-07
1.34333e-06
-2.24037e-07
1.328e-06
-2.20855e-07
1.31139e-06
-2.17472e-07
1.29361e-06
-2.14392e-07
1.27485e-06
-2.11886e-07
1.25535e-06
-2.10022e-07
1.2353e-06
-2.08714e-07
1.21488e-06
-2.078e-07
1.19419e-06
-2.07099e-07
1.17329e-06
-2.06476e-07
1.15219e-06
-2.05876e-07
1.13086e-06
-2.05346e-07
1.10926e-06
-2.0503e-07
1.08734e-06
-2.05146e-07
1.06508e-06
-2.05947e-07
1.04247e-06
-2.07677e-07
1.01952e-06
-2.10515e-07
9.96282e-07
-2.14536e-07
9.7281e-07
-2.19685e-07
9.49176e-07
-2.25753e-07
9.25451e-07
-2.32386e-07
9.01698e-07
-2.39082e-07
8.77975e-07
-2.45218e-07
8.54333e-07
-2.50059e-07
8.30829e-07
-2.52796e-07
8.0754e-07
-2.5258e-07
7.84589e-07
-2.4846e-07
7.62101e-07
-1.23001e-08
1.83678e-07
5.3797e-10
4.34399e-09
-3.25304e-08
1.52086e-06
-6.35066e-08
1.49681e-06
-9.21071e-08
1.47556e-06
-1.17689e-07
1.4566e-06
-1.39808e-07
1.43942e-06
-1.58233e-07
1.42347e-06
-1.72948e-07
1.40824e-06
-1.8414e-07
1.39328e-06
-1.92169e-07
1.3782e-06
-1.97533e-07
1.36271e-06
-2.00804e-07
1.3466e-06
-2.02576e-07
1.32978e-06
-2.03402e-07
1.31221e-06
-2.0375e-07
1.29395e-06
-2.03981e-07
1.27508e-06
-2.04339e-07
1.25571e-06
-2.04965e-07
1.23593e-06
-2.05926e-07
1.21584e-06
-2.07242e-07
1.1955e-06
-2.08918e-07
1.17497e-06
-2.10976e-07
1.15425e-06
-2.13462e-07
1.13335e-06
-2.16463e-07
1.11226e-06
-2.20097e-07
1.09098e-06
-2.24504e-07
1.06949e-06
-2.29825e-07
1.04779e-06
-2.36176e-07
1.02587e-06
-2.4363e-07
1.00373e-06
-2.52184e-07
9.81364e-07
-2.61745e-07
9.58737e-07
-2.72105e-07
9.35811e-07
-2.82923e-07
9.12516e-07
-2.93697e-07
8.88749e-07
-3.03737e-07
8.64373e-07
-3.12122e-07
8.39213e-07
-3.17644e-07
8.13063e-07
-3.18751e-07
7.85696e-07
-3.13278e-07
7.56801e-07
-1.16535e-08
1.61539e-07
5.08378e-10
4.6189e-09
-2.66621e-08
1.54753e-06
-5.21605e-08
1.52231e-06
-7.59189e-08
1.49931e-06
-9.74922e-08
1.47818e-06
-1.1658e-07
1.45851e-06
-1.33032e-07
1.43992e-06
-1.46843e-07
1.42205e-06
-1.58141e-07
1.40458e-06
-1.67166e-07
1.38723e-06
-1.74238e-07
1.36978e-06
-1.79726e-07
1.35209e-06
-1.84014e-07
1.33406e-06
-1.87465e-07
1.31566e-06
-1.90407e-07
1.2969e-06
-1.93109e-07
1.27779e-06
-1.95787e-07
1.25839e-06
-1.98603e-07
1.23875e-06
-2.01682e-07
1.21892e-06
-2.05122e-07
1.19894e-06
-2.09013e-07
1.17886e-06
-2.13446e-07
1.15868e-06
-2.18524e-07
1.13842e-06
-2.24366e-07
1.1181e-06
-2.31105e-07
1.09772e-06
-2.38882e-07
1.07727e-06
-2.47843e-07
1.05675e-06
-2.58126e-07
1.03616e-06
-2.69854e-07
1.01546e-06
-2.83124e-07
9.94633e-07
-2.97994e-07
9.73607e-07
-3.14476e-07
9.52293e-07
-3.32511e-07
9.30551e-07
-3.51948e-07
9.08186e-07
-3.72495e-07
8.8492e-07
-3.9365e-07
8.60368e-07
-4.14588e-07
8.34001e-07
-4.33987e-07
8.05095e-07
-4.49396e-07
7.72532e-07
-1.08535e-08
1.37037e-07
4.82141e-10
5.08457e-09
-2.22803e-08
1.56981e-06
-4.36792e-08
1.54371e-06
-6.37932e-08
1.51943e-06
-8.23128e-08
1.49669e-06
-9.90311e-08
1.47522e-06
-1.13846e-07
1.45473e-06
-1.26754e-07
1.43496e-06
-1.37841e-07
1.41567e-06
-1.47268e-07
1.39665e-06
-1.55246e-07
1.37776e-06
-1.62023e-07
1.35887e-06
-1.67858e-07
1.3399e-06
-1.73004e-07
1.32081e-06
-1.77699e-07
1.30159e-06
-1.82155e-07
1.28224e-06
-1.86556e-07
1.26279e-06
-1.91061e-07
1.24325e-06
-1.9581e-07
1.22367e-06
-2.00928e-07
1.20406e-06
-2.06537e-07
1.18447e-06
-2.12761e-07
1.1649e-06
-2.19732e-07
1.1454e-06
-2.27592e-07
1.12596e-06
-2.36497e-07
1.10662e-06
-2.4662e-07
1.08739e-06
-2.58151e-07
1.06828e-06
-2.713e-07
1.04931e-06
-2.86304e-07
1.03047e-06
-3.03431e-07
1.01176e-06
-3.22996e-07
9.93172e-07
-3.45372e-07
9.74668e-07
-3.71016e-07
9.56196e-07
-4.00499e-07
9.37669e-07
-4.3454e-07
9.18961e-07
-4.74057e-07
8.99884e-07
-5.20226e-07
8.80171e-07
-5.74564e-07
8.59432e-07
-6.38216e-07
8.36892e-07
-9.90153e-09
1.32486e-07
4.95027e-10
5.72164e-09
-1.89456e-08
1.58875e-06
-3.7213e-08
1.56198e-06
-5.45193e-08
1.53673e-06
-7.06483e-08
1.51282e-06
-8.54556e-08
1.49003e-06
-9.88697e-08
1.46815e-06
-1.10888e-07
1.44698e-06
-1.21568e-07
1.42635e-06
-1.31019e-07
1.4061e-06
-1.39385e-07
1.38612e-06
-1.46836e-07
1.36632e-06
-1.53555e-07
1.34662e-06
-1.59725e-07
1.32698e-06
-1.65524e-07
1.30739e-06
-1.71119e-07
1.28784e-06
-1.76664e-07
1.26833e-06
-1.823e-07
1.24889e-06
-1.8816e-07
1.22953e-06
-1.9437e-07
1.21027e-06
-2.01056e-07
1.19115e-06
-2.08344e-07
1.17219e-06
-2.16369e-07
1.15342e-06
-2.25275e-07
1.13487e-06
-2.3522e-07
1.11657e-06
-2.46384e-07
1.09856e-06
-2.5897e-07
1.08087e-06
-2.73215e-07
1.06355e-06
-2.894e-07
1.04665e-06
-3.07869e-07
1.03023e-06
-3.29047e-07
1.01435e-06
-3.53477e-07
9.99099e-07
-3.81863e-07
9.84581e-07
-4.15132e-07
9.70939e-07
-4.54531e-07
9.58359e-07
-5.0175e-07
9.47103e-07
-5.59121e-07
9.37541e-07
-6.2989e-07
9.30201e-07
-7.17016e-07
9.25441e-07
-9.13204e-09
1.46589e-07
5.52618e-10
6.22982e-09
-1.63485e-08
1.6051e-06
-3.21655e-08
1.57779e-06
-4.72521e-08
1.55182e-06
-6.1456e-08
1.52703e-06
-7.46757e-08
1.50325e-06
-8.68607e-08
1.48033e-06
-9.80079e-08
1.45813e-06
-1.08157e-07
1.4365e-06
-1.17382e-07
1.41533e-06
-1.25785e-07
1.39453e-06
-1.33486e-07
1.37402e-06
-1.40615e-07
1.35375e-06
-1.47307e-07
1.33367e-06
-1.53697e-07
1.31378e-06
-1.59913e-07
1.29405e-06
-1.6608e-07
1.2745e-06
-1.72315e-07
1.25512e-06
-1.78732e-07
1.23594e-06
-1.85439e-07
1.21698e-06
-1.92544e-07
1.19826e-06
-2.00156e-07
1.1798e-06
-2.08387e-07
1.16165e-06
-2.17353e-07
1.14383e-06
-2.27183e-07
1.1264e-06
-2.38012e-07
1.10938e-06
-2.49994e-07
1.09285e-06
-2.63302e-07
1.07686e-06
-2.78133e-07
1.06148e-06
-2.94719e-07
1.04681e-06
-3.13331e-07
1.03296e-06
-3.34295e-07
1.02006e-06
-3.57999e-07
1.00829e-06
-3.84909e-07
9.97849e-07
-4.15581e-07
9.89031e-07
-4.50669e-07
9.82192e-07
-4.90925e-07
9.77797e-07
-5.37176e-07
9.76452e-07
-5.87986e-07
9.7822e-07
-9.02703e-09
1.44764e-07
5.85503e-10
6.20648e-09
-1.42728e-08
1.61937e-06
-2.81209e-08
1.59164e-06
-4.14035e-08
1.5651e-06
-5.40126e-08
1.53964e-06
-6.5876e-08
1.51511e-06
-7.69573e-08
1.49141e-06
-8.72536e-08
1.46842e-06
-9.67917e-08
1.44604e-06
-1.05624e-07
1.42416e-06
-1.13821e-07
1.40272e-06
-1.21468e-07
1.38167e-06
-1.28661e-07
1.36094e-06
-1.35496e-07
1.34051e-06
-1.42075e-07
1.32036e-06
-1.48494e-07
1.30047e-06
-1.54849e-07
1.28085e-06
-1.6123e-07
1.2615e-06
-1.67723e-07
1.24244e-06
-1.74411e-07
1.22367e-06
-1.81373e-07
1.20522e-06
-1.88686e-07
1.18712e-06
-1.96422e-07
1.16939e-06
-2.04655e-07
1.15207e-06
-2.13454e-07
1.1352e-06
-2.22886e-07
1.11882e-06
-2.33015e-07
1.10298e-06
-2.43901e-07
1.08774e-06
-2.55594e-07
1.07318e-06
-2.68131e-07
1.05935e-06
-2.81527e-07
1.04636e-06
-2.95765e-07
1.0343e-06
-3.10771e-07
1.02329e-06
-3.26387e-07
1.01346e-06
-3.42324e-07
1.00497e-06
-3.58092e-07
9.9796e-07
-3.72902e-07
9.92607e-07
-3.85515e-07
9.89065e-07
-3.91916e-07
9.86427e-07
-9.44607e-09
1.28211e-07
5.64002e-10
5.7552e-09
-1.25681e-08
1.63194e-06
-2.47902e-08
1.60386e-06
-3.65655e-08
1.57688e-06
-4.78167e-08
1.55089e-06
-5.84915e-08
1.52579e-06
-6.85631e-08
1.50149e-06
-7.80283e-08
1.47789e-06
-8.69051e-08
1.45491e-06
-9.52293e-08
1.43249e-06
-1.03051e-07
1.41055e-06
-1.1043e-07
1.38905e-06
-1.17434e-07
1.36794e-06
-1.24134e-07
1.34721e-06
-1.30601e-07
1.32682e-06
-1.36905e-07
1.30678e-06
-1.43115e-07
1.28706e-06
-1.49294e-07
1.26768e-06
-1.55502e-07
1.24864e-06
-1.61792e-07
1.22996e-06
-1.68212e-07
1.21164e-06
-1.74803e-07
1.19371e-06
-1.816e-07
1.17618e-06
-1.88628e-07
1.15909e-06
-1.959e-07
1.14247e-06
-2.03419e-07
1.12633e-06
-2.11167e-07
1.11073e-06
-2.1911e-07
1.09569e-06
-2.27181e-07
1.08125e-06
-2.3528e-07
1.06745e-06
-2.43256e-07
1.05434e-06
-2.50897e-07
1.04194e-06
-2.57908e-07
1.0303e-06
-2.63886e-07
1.01944e-06
-2.68287e-07
1.00937e-06
-2.70394e-07
1.00007e-06
-2.69272e-07
9.91485e-07
-2.63722e-07
9.83515e-07
-2.50724e-07
9.74765e-07
-9.90708e-09
1.13918e-07
5.23746e-10
5.29085e-09
-1.11302e-08
1.64307e-06
-2.19733e-08
1.61471e-06
-3.2456e-08
1.58736e-06
-4.25218e-08
1.56095e-06
-5.21322e-08
1.5354e-06
-6.12664e-08
1.51062e-06
-6.99208e-08
1.48654e-06
-7.81067e-08
1.4631e-06
-8.5848e-08
1.44023e-06
-9.31791e-08
1.41788e-06
-1.00142e-07
1.39601e-06
-1.06782e-07
1.37458e-06
-1.13149e-07
1.35358e-06
-1.19292e-07
1.33297e-06
-1.25258e-07
1.31274e-06
-1.31094e-07
1.2929e-06
-1.36839e-07
1.27343e-06
-1.42529e-07
1.25433e-06
-1.48193e-07
1.23562e-06
-1.53852e-07
1.2173e-06
-1.59519e-07
1.19937e-06
-1.65196e-07
1.18186e-06
-1.70875e-07
1.16477e-06
-1.76532e-07
1.14812e-06
-1.82127e-07
1.13193e-06
-1.876e-07
1.1162e-06
-1.92868e-07
1.10096e-06
-1.9782e-07
1.0862e-06
-2.0231e-07
1.07194e-06
-2.06152e-07
1.05818e-06
-2.09115e-07
1.0449e-06
-2.10914e-07
1.0321e-06
-2.11208e-07
1.01974e-06
-2.0959e-07
1.00775e-06
-2.05594e-07
9.96072e-07
-1.98701e-07
9.84592e-07
-1.88358e-07
9.73171e-07
-1.72986e-07
9.60358e-07
-1.02255e-08
1.06116e-07
4.87921e-10
5.0063e-09
-9.88717e-09
1.65296e-06
-1.95322e-08
1.62435e-06
-2.88805e-08
1.59671e-06
-3.78898e-08
1.56996e-06
-4.65304e-08
1.54404e-06
-5.47858e-08
1.51888e-06
-6.26513e-08
1.49441e-06
-7.01332e-08
1.47058e-06
-7.72465e-08
1.44734e-06
-8.40138e-08
1.42464e-06
-9.04626e-08
1.40246e-06
-9.6624e-08
1.38074e-06
-1.0253e-07
1.35948e-06
-1.08213e-07
1.33865e-06
-1.13703e-07
1.31823e-06
-1.19028e-07
1.29822e-06
-1.2421e-07
1.27861e-06
-1.29266e-07
1.25939e-06
-1.34209e-07
1.24056e-06
-1.39039e-07
1.22213e-06
-1.43753e-07
1.20409e-06
-1.48335e-07
1.18644e-06
-1.52757e-07
1.1692e-06
-1.5698e-07
1.15235e-06
-1.60951e-07
1.1359e-06
-1.64598e-07
1.11985e-06
-1.67836e-07
1.10419e-06
-1.70556e-07
1.08892e-06
-1.72633e-07
1.07402e-06
-1.73919e-07
1.05946e-06
-1.74246e-07
1.04523e-06
-1.73428e-07
1.03128e-06
-1.71264e-07
1.01757e-06
-1.67548e-07
1.00404e-06
-1.62079e-07
9.90603e-07
-1.54676e-07
9.77189e-07
-1.45202e-07
9.63698e-07
-1.32863e-07
9.48756e-07
-1.0426e-08
1.02951e-07
4.58767e-10
4.89447e-09
-8.78979e-09
1.66175e-06
-1.73724e-08
1.63293e-06
-2.57061e-08
1.60504e-06
-3.37578e-08
1.57801e-06
-4.15041e-08
1.55179e-06
-4.89306e-08
1.5263e-06
-5.60318e-08
1.50151e-06
-6.28098e-08
1.47736e-06
-6.92733e-08
1.4538e-06
-7.5436e-08
1.43081e-06
-8.13153e-08
1.40834e-06
-8.69307e-08
1.38636e-06
-9.23023e-08
1.36485e-06
-9.74498e-08
1.3438e-06
-1.02391e-07
1.32318e-06
-1.07141e-07
1.30297e-06
-1.11709e-07
1.28318e-06
-1.16103e-07
1.26378e-06
-1.20323e-07
1.24478e-06
-1.2436e-07
1.22617e-06
-1.28203e-07
1.20793e-06
-1.31828e-07
1.19007e-06
-1.35206e-07
1.17257e-06
-1.38295e-07
1.15544e-06
-1.41046e-07
1.13865e-06
-1.43399e-07
1.1222e-06
-1.45284e-07
1.10608e-06
-1.46623e-07
1.09026e-06
-1.47329e-07
1.07472e-06
-1.47308e-07
1.05944e-06
-1.46466e-07
1.04439e-06
-1.44707e-07
1.02952e-06
-1.41943e-07
1.01481e-06
-1.381e-07
1.00019e-06
-1.33127e-07
9.8563e-07
-1.27005e-07
9.71067e-07
-1.1976e-07
9.56453e-07
-1.10917e-07
9.4051e-07
-1.05598e-08
1.02465e-07
4.33503e-10
4.90575e-09
-7.80444e-09
1.66955e-06
-1.54297e-08
1.64056e-06
-2.28424e-08
1.61246e-06
-3.00159e-08
1.58519e-06
-3.69304e-08
1.5587e-06
-4.3573e-08
1.53295e-06
-4.99373e-08
1.50787e-06
-5.60224e-08
1.48344e-06
-6.18321e-08
1.45961e-06
-6.73739e-08
1.43635e-06
-7.2658e-08
1.41362e-06
-7.76959e-08
1.3914e-06
-8.24994e-08
1.36966e-06
-8.70799e-08
1.34838e-06
-9.14468e-08
1.32754e-06
-9.56075e-08
1.30713e-06
-9.95659e-08
1.28714e-06
-1.03322e-07
1.26754e-06
-1.06871e-07
1.24833e-06
-1.10204e-07
1.2295e-06
-1.13305e-07
1.21103e-06
-1.16154e-07
1.19292e-06
-1.18725e-07
1.17514e-06
-1.20985e-07
1.1577e-06
-1.22897e-07
1.14056e-06
-1.24418e-07
1.12372e-06
-1.25502e-07
1.10716e-06
-1.261e-07
1.09086e-06
-1.2616e-07
1.07478e-06
-1.25636e-07
1.05892e-06
-1.24483e-07
1.04324e-06
-1.22663e-07
1.02771e-06
-1.20153e-07
1.0123e-06
-1.16942e-07
9.96981e-07
-1.1304e-07
9.81728e-07
-1.08483e-07
9.6651e-07
-1.03333e-07
9.51303e-07
-9.72455e-08
9.34921e-07
-1.066e-08
1.0358e-07
4.09968e-10
5.00279e-09
-6.90843e-09
1.67646e-06
-1.36605e-08
1.64731e-06
-2.02286e-08
1.61902e-06
-2.65899e-08
1.59155e-06
-3.27271e-08
1.56484e-06
-3.86282e-08
1.53885e-06
-4.42859e-08
1.51353e-06
-4.96969e-08
1.48885e-06
-5.48619e-08
1.46478e-06
-5.97841e-08
1.44127e-06
-6.44687e-08
1.4183e-06
-6.89221e-08
1.39585e-06
-7.31509e-08
1.37389e-06
-7.71613e-08
1.35239e-06
-8.09584e-08
1.33134e-06
-8.45457e-08
1.31072e-06
-8.79241e-08
1.29052e-06
-9.10919e-08
1.27071e-06
-9.40444e-08
1.25128e-06
-9.67735e-08
1.23223e-06
-9.92676e-08
1.21353e-06
-1.01512e-07
1.19516e-06
-1.03487e-07
1.17712e-06
-1.05173e-07
1.15938e-06
-1.06544e-07
1.14193e-06
-1.07577e-07
1.12476e-06
-1.08243e-07
1.10783e-06
-1.08517e-07
1.09113e-06
-1.08376e-07
1.07464e-06
-1.07798e-07
1.05834e-06
-1.0677e-07
1.04221e-06
-1.05282e-07
1.02622e-06
-1.03339e-07
1.01035e-06
-1.00952e-07
9.94595e-07
-9.81493e-08
9.78925e-07
-9.49701e-08
9.63331e-07
-9.14696e-08
9.47802e-07
-8.73746e-08
9.31244e-07
-1.07433e-08
1.05809e-07
3.86955e-10
5.16306e-09
-6.08659e-09
1.68255e-06
-1.2036e-08
1.65326e-06
-1.7824e-08
1.62481e-06
-2.34307e-08
1.59716e-06
-2.88401e-08
1.57025e-06
-3.40404e-08
1.54405e-06
-3.90238e-08
1.51851e-06
-4.37856e-08
1.49362e-06
-4.83239e-08
1.46932e-06
-5.26393e-08
1.44559e-06
-5.6734e-08
1.4224e-06
-6.06111e-08
1.39973e-06
-6.42744e-08
1.37755e-06
-6.77277e-08
1.35584e-06
-7.09739e-08
1.33459e-06
-7.40156e-08
1.31376e-06
-7.68535e-08
1.29335e-06
-7.94871e-08
1.27334e-06
-8.1914e-08
1.25371e-06
-8.41301e-08
1.23444e-06
-8.61293e-08
1.21553e-06
-8.79036e-08
1.19694e-06
-8.94435e-08
1.17866e-06
-9.07383e-08
1.16068e-06
-9.17763e-08
1.14297e-06
-9.25457e-08
1.12553e-06
-9.3035e-08
1.10832e-06
-9.32338e-08
1.09133e-06
-9.3134e-08
1.07454e-06
-9.27304e-08
1.05794e-06
-9.20221e-08
1.0415e-06
-9.10128e-08
1.02521e-06
-8.97125e-08
1.00905e-06
-8.81372e-08
9.9302e-07
-8.631e-08
9.77098e-07
-8.42608e-08
9.61282e-07
-8.2026e-08
9.45567e-07
-7.93845e-08
9.28954e-07
-1.08179e-08
1.08986e-07
3.63768e-10
5.37254e-09
-5.3289e-09
1.68788e-06
-1.0537e-08
1.65847e-06
-1.56022e-08
1.62988e-06
-2.05062e-08
1.60206e-06
-2.52338e-08
1.57498e-06
-2.97734e-08
1.54859e-06
-3.41166e-08
1.52286e-06
-3.82575e-08
1.49776e-06
-4.21929e-08
1.47325e-06
-4.59215e-08
1.44932e-06
-4.94436e-08
1.42592e-06
-5.27609e-08
1.40305e-06
-5.58757e-08
1.38066e-06
-5.87907e-08
1.35876e-06
-6.1509e-08
1.3373e-06
-6.40335e-08
1.31629e-06
-6.63666e-08
1.29569e-06
-6.85104e-08
1.27549e-06
-7.04664e-08
1.25567e-06
-7.22355e-08
1.23621e-06
-7.38179e-08
1.21711e-06
-7.52131e-08
1.19833e-06
-7.64205e-08
1.17987e-06
-7.74389e-08
1.1617e-06
-7.82669e-08
1.1438e-06
-7.89036e-08
1.12616e-06
-7.93482e-08
1.10876e-06
-7.96007e-08
1.09158e-06
-7.96622e-08
1.0746e-06
-7.95353e-08
1.05781e-06
-7.9224e-08
1.04119e-06
-7.87347e-08
1.02472e-06
-7.80757e-08
1.00839e-06
-7.72578e-08
9.92202e-07
-7.6294e-08
9.76134e-07
-7.51994e-08
9.60188e-07
-7.39911e-08
9.44359e-07
-7.24935e-08
9.27748e-07
-1.08873e-08
1.13128e-07
3.39881e-10
5.62153e-09
-4.62898e-09
1.6925e-06
-9.15127e-09
1.66299e-06
-1.35462e-08
1.63427e-06
-1.7796e-08
1.60631e-06
-2.1886e-08
1.57907e-06
-2.58046e-08
1.55251e-06
-2.95426e-08
1.5266e-06
-3.30936e-08
1.50131e-06
-3.64531e-08
1.47661e-06
-3.96187e-08
1.45248e-06
-4.25898e-08
1.42889e-06
-4.5367e-08
1.40582e-06
-4.79522e-08
1.38325e-06
-5.03481e-08
1.36115e-06
-5.25585e-08
1.33951e-06
-5.45876e-08
1.31832e-06
-5.64402e-08
1.29754e-06
-5.81218e-08
1.27717e-06
-5.96381e-08
1.25718e-06
-6.09955e-08
1.23757e-06
-6.22007e-08
1.21831e-06
-6.32606e-08
1.19939e-06
-6.4183e-08
1.18079e-06
-6.49755e-08
1.16249e-06
-6.56463e-08
1.14447e-06
-6.62036e-08
1.12672e-06
-6.66557e-08
1.10921e-06
-6.70107e-08
1.09194e-06
-6.72764e-08
1.07487e-06
-6.74601e-08
1.05799e-06
-6.75681e-08
1.0413e-06
-6.7606e-08
1.02476e-06
-6.75783e-08
1.00837e-06
-6.74881e-08
9.92111e-07
-6.73373e-08
9.75984e-07
-6.71265e-08
9.59977e-07
-6.68547e-08
9.44087e-07
-6.63868e-08
9.27517e-07
-1.09542e-08
1.1839e-07
3.14713e-10
5.90323e-09
-3.98292e-09
1.69649e-06
-7.87152e-09
1.66688e-06
-1.16457e-08
1.63805e-06
-1.5288e-08
1.60995e-06
-1.87838e-08
1.58256e-06
-2.21211e-08
1.55584e-06
-2.52902e-08
1.52976e-06
-2.82837e-08
1.5043e-06
-3.10966e-08
1.47942e-06
-3.37253e-08
1.45511e-06
-3.61685e-08
1.43134e-06
-3.84262e-08
1.40808e-06
-4.05e-08
1.38532e-06
-4.2393e-08
1.36305e-06
-4.41094e-08
1.34123e-06
-4.56552e-08
1.31986e-06
-4.70374e-08
1.29892e-06
-4.82647e-08
1.27839e-06
-4.93469e-08
1.25827e-06
-5.02956e-08
1.23852e-06
-5.11238e-08
1.21914e-06
-5.18458e-08
1.20011e-06
-5.24772e-08
1.18142e-06
-5.3035e-08
1.16305e-06
-5.35367e-08
1.14497e-06
-5.40005e-08
1.12718e-06
-5.44443e-08
1.10966e-06
-5.48853e-08
1.09238e-06
-5.53392e-08
1.07532e-06
-5.58194e-08
1.05847e-06
-5.63363e-08
1.04181e-06
-5.68963e-08
1.02532e-06
-5.75014e-08
1.00897e-06
-5.81487e-08
9.92759e-07
-5.88305e-08
9.76665e-07
-5.95338e-08
9.6068e-07
-6.02416e-08
9.44795e-07
-6.08534e-08
9.28319e-07
-1.10229e-08
1.25068e-07
2.87511e-10
6.21438e-09
-3.3886e-09
1.69988e-06
-6.69376e-09
1.67019e-06
-9.89545e-09
1.64125e-06
-1.29762e-08
1.61303e-06
-1.59211e-08
1.58551e-06
-1.87174e-08
1.55864e-06
-2.1355e-08
1.5324e-06
-2.38255e-08
1.50677e-06
-2.61229e-08
1.48172e-06
-2.82427e-08
1.45723e-06
-3.01826e-08
1.43328e-06
-3.19419e-08
1.40984e-06
-3.35216e-08
1.3869e-06
-3.49245e-08
1.36445e-06
-3.61552e-08
1.34246e-06
-3.72205e-08
1.32093e-06
-3.81288e-08
1.29983e-06
-3.88911e-08
1.27916e-06
-3.95205e-08
1.2589e-06
-4.00328e-08
1.23903e-06
-4.04464e-08
1.21955e-06
-4.07823e-08
1.20045e-06
-4.10643e-08
1.1817e-06
-4.13186e-08
1.1633e-06
-4.15735e-08
1.14523e-06
-4.18589e-08
1.12747e-06
-4.22057e-08
1.11e-06
-4.26441e-08
1.09282e-06
-4.3203e-08
1.07588e-06
-4.3908e-08
1.05918e-06
-4.47797e-08
1.04268e-06
-4.58321e-08
1.02637e-06
-4.70709e-08
1.01021e-06
-4.84924e-08
9.9418e-07
-5.00825e-08
9.78255e-07
-5.18167e-08
9.62414e-07
-5.36615e-08
9.4664e-07
-5.55443e-08
9.30349e-07
-1.11014e-08
1.33649e-07
2.5751e-10
6.55665e-09
-2.84513e-09
1.70272e-06
-5.61642e-09
1.67296e-06
-8.29364e-09
1.64393e-06
-1.08589e-08
1.6156e-06
-1.32969e-08
1.58794e-06
-1.55941e-08
1.56094e-06
-1.77394e-08
1.53455e-06
-1.97236e-08
1.50876e-06
-2.15392e-08
1.48354e-06
-2.31807e-08
1.45887e-06
-2.46444e-08
1.43474e-06
-2.59281e-08
1.41112e-06
-2.70318e-08
1.38801e-06
-2.79571e-08
1.36537e-06
-2.87079e-08
1.34321e-06
-2.929e-08
1.32151e-06
-2.97121e-08
1.30025e-06
-2.99855e-08
1.27943e-06
-3.01247e-08
1.25903e-06
-3.01475e-08
1.23906e-06
-3.00759e-08
1.21948e-06
-2.99359e-08
1.20031e-06
-2.9758e-08
1.18152e-06
-2.95774e-08
1.16312e-06
-2.9434e-08
1.14508e-06
-2.9372e-08
1.12741e-06
-2.94393e-08
1.11007e-06
-2.96861e-08
1.09306e-06
-3.01635e-08
1.07636e-06
-3.09209e-08
1.05994e-06
-3.2003e-08
1.04377e-06
-3.34463e-08
1.02781e-06
-3.52747e-08
1.01204e-06
-3.74961e-08
9.96402e-07
-4.00991e-08
9.80858e-07
-4.3051e-08
9.65366e-07
-4.62984e-08
9.49887e-07
-4.97817e-08
9.33939e-07
-1.12005e-08
1.4492e-07
2.24418e-10
6.93715e-09
-2.35243e-09
1.70507e-06
-4.63955e-09
1.67524e-06
-6.8407e-09
1.64613e-06
-8.93757e-09
1.6177e-06
-1.0914e-08
1.58992e-06
-1.27559e-08
1.56278e-06
-1.44509e-08
1.53624e-06
-1.59885e-08
1.51029e-06
-1.736e-08
1.48491e-06
-1.8558e-08
1.46007e-06
-1.95771e-08
1.43576e-06
-2.0413e-08
1.41196e-06
-2.10636e-08
1.38866e-06
-2.1528e-08
1.36584e-06
-2.18078e-08
1.34349e-06
-2.19064e-08
1.32161e-06
-2.18299e-08
1.30018e-06
-2.15874e-08
1.27919e-06
-2.11913e-08
1.25864e-06
-2.06581e-08
1.23852e-06
-2.00093e-08
1.21883e-06
-1.92717e-08
1.19957e-06
-1.84787e-08
1.18073e-06
-1.76711e-08
1.16231e-06
-1.68981e-08
1.14431e-06
-1.62177e-08
1.12673e-06
-1.56974e-08
1.10955e-06
-1.5414e-08
1.09278e-06
-1.54525e-08
1.0764e-06
-1.5904e-08
1.06039e-06
-1.68613e-08
1.04472e-06
-1.84135e-08
1.02937e-06
-2.06375e-08
1.01426e-06
-2.35877e-08
9.99352e-07
-2.72845e-08
9.84555e-07
-3.17029e-08
9.69785e-07
-3.67655e-08
9.5495e-07
-4.23912e-08
9.39636e-07
-1.13286e-08
1.60263e-07
1.88737e-10
7.36725e-09
-1.91089e-09
1.70698e-06
-3.76403e-09
1.6771e-06
-5.5384e-09
1.6479e-06
-7.21517e-09
1.61937e-06
-8.77748e-09
1.59148e-06
-1.02103e-08
1.56421e-06
-1.15003e-08
1.53753e-06
-1.26356e-08
1.51143e-06
-1.36056e-08
1.48588e-06
-1.44012e-08
1.46087e-06
-1.50144e-08
1.43637e-06
-1.54386e-08
1.41238e-06
-1.56682e-08
1.38889e-06
-1.56991e-08
1.36587e-06
-1.55285e-08
1.34332e-06
-1.51555e-08
1.32123e-06
-1.45808e-08
1.2996e-06
-1.38078e-08
1.27842e-06
-1.28427e-08
1.25767e-06
-1.16952e-08
1.23737e-06
-1.03797e-08
1.21752e-06
-8.91646e-09
1.19811e-06
-7.33311e-09
1.17915e-06
-5.6665e-09
1.16065e-06
-3.96508e-09
1.14261e-06
-2.29163e-09
1.12505e-06