/*--------------------------------*- C++ -*----------------------------------*\
  =========                 |
  \\      /  F ield         | OpenFOAM: The Open Source CFD Toolbox
   \\    /   O peration     | Website:  https://openfoam.org
    \\  /    A nd           | Version:  7
     \\/     M anipulation  |
\*---------------------------------------------------------------------------*/
FoamFile
{
    version     2.0;
    format      ascii;
    class       surfaceScalarField;
    location    "20000";
    object      phib;
}
// * * * * * * * * * * * * * * * * * * * * * * * * * * * * * * * * * * * * * //

dimensions      [0 3 -1 0 0 0 0];

internalField   nonuniform List<scalar> 
6280
(
-5.21948e-21
-1.7101e-16
-1.054e-20
-1.67998e-16
-1.61664e-20
-1.65038e-16
-2.23468e-20
-1.6213e-16
-2.94194e-20
-1.59273e-16
-3.78884e-20
-1.56465e-16
-4.85617e-20
-1.53707e-16
-6.28134e-20
-1.50995e-16
-8.31069e-20
-1.48329e-16
-1.14069e-19
-1.45705e-16
-1.64866e-19
-1.43118e-16
-2.56758e-10
-1.40558e-16
-1.78168e-05
-1.3793e-16
-2.16198e-05
-1.22524e-16
-2.23517e-05
-1.09128e-16
-2.27512e-05
-9.70153e-17
-2.30232e-05
-8.5857e-17
-2.32264e-05
-7.54844e-17
-2.33864e-05
-6.57913e-17
-2.35168e-05
-5.67034e-17
-2.36254e-05
-4.81646e-17
-2.37177e-05
-4.01298e-17
-2.37971e-05
-3.25617e-17
-2.38664e-05
-2.54293e-17
-2.39274e-05
-1.87052e-17
-2.39815e-05
-1.23661e-17
-2.403e-05
-6.39236e-18
-2.40736e-05
-4.19685e-11
-2.37931e-05
-3.18276e-07
-2.33665e-05
-4.59706e-07
-2.29333e-05
-4.6262e-07
-2.2485e-05
-4.74653e-07
-2.19737e-05
-5.35205e-07
-2.13194e-05
-6.76061e-07
-2.03994e-05
-9.40011e-07
-1.90241e-05
-1.39362e-06
-1.68981e-05
-2.14285e-06
-1.3556e-05
-3.3575e-06
-8.25338e-06
-5.31662e-06
-7.07959e-06
-1.18649e-06
-4.80605e-21
-1.71006e-16
-9.65337e-21
-1.67993e-16
-1.46643e-20
-1.65033e-16
-1.99612e-20
-1.62125e-16
-2.56636e-20
-1.59267e-16
-3.18673e-20
-1.56459e-16
-3.85769e-20
-1.537e-16
-4.55266e-20
-1.50988e-16
-5.17213e-20
-1.48323e-16
-5.43041e-20
-1.45703e-16
-4.57969e-20
-1.43127e-16
-7.45084e-21
-1.40596e-16
6.59129e-20
-1.38118e-16
5.085e-20
-1.35701e-16
3.46641e-20
-1.33321e-16
2.22635e-20
-1.30978e-16
1.21198e-20
-1.28674e-16
3.15193e-21
-1.26408e-16
-5.39773e-21
-1.24182e-16
-1.41557e-20
-1.21995e-16
-2.37654e-20
-1.19845e-16
-3.50317e-20
-1.17732e-16
-4.91125e-20
-1.15655e-16
-6.78182e-20
-1.13613e-16
-9.41228e-20
-1.11604e-16
-1.33075e-19
-1.09625e-16
-1.48006e-11
-1.07672e-16
-1.09658e-05
-1.05722e-16
-1.56505e-05
-9.84049e-17
-1.66577e-05
-9.16189e-17
-1.74084e-05
-8.52915e-17
-1.8081e-05
-7.93007e-17
-1.87661e-05
-7.3589e-17
-1.95609e-05
-6.8112e-17
-2.0597e-05
-6.28232e-17
-2.2069e-05
-5.76646e-17
-2.42757e-05
-5.25596e-17
-2.76841e-05
-1.65504e-10
-2.17344e-05
-1.13064e-05
-2.68558e-05
-1.98209e-06
-4.12287e-21
-1.71001e-16
-8.21404e-21
-1.67989e-16
-1.23017e-20
-1.65029e-16
-1.6387e-20
-1.6212e-16
-2.04224e-20
-1.59263e-16
-2.42717e-20
-1.56455e-16
-2.76425e-20
-1.53697e-16
-2.99775e-20
-1.50986e-16
-3.0306e-20
-1.48323e-16
-2.71135e-20
-1.45706e-16
-1.84923e-20
-1.43135e-16
-3.43882e-21
-1.40611e-16
1.315e-20
-1.38135e-16
1.7183e-20
-1.35705e-16
1.52222e-20
-1.33319e-16
1.09091e-20
-1.30973e-16
5.72033e-21
-1.28668e-16
2.18392e-22
-1.26403e-16
-5.40294e-21
-1.24177e-16
-1.10773e-20
-1.21989e-16
-1.67346e-20
-1.19839e-16
-2.2184e-20
-1.17727e-16
-2.69395e-20
-1.15651e-16
-2.98966e-20
-1.1361e-16
-2.87024e-20
-1.11605e-16
-1.8522e-20
-1.09635e-16
1.0362e-20
-1.07701e-16
5.86777e-20
-1.05804e-16
4.99659e-20
-1.03948e-16
3.75344e-20
-1.02122e-16
2.77185e-20
-1.00327e-16
1.96206e-20
-9.85615e-17
1.25158e-20
-9.68265e-17
5.86223e-21
-9.51214e-17
-8.04572e-22
-9.34459e-17
-7.96709e-21
-9.17994e-17
-6.73527e-14
-9.01812e-17
-6.11998e-07
-9.3377e-17
-1.20935e-05
-5.95028e-07
-3.99293e-05
8.98054e-07
-3.35199e-21
-1.70998e-16
-6.62264e-21
-1.67985e-16
-9.77866e-21
-1.65026e-16
-1.27604e-20
-1.62117e-16
-1.54651e-20
-1.5926e-16
-1.77271e-20
-1.56453e-16
-1.92966e-20
-1.53695e-16
-1.98275e-20
-1.50986e-16
-1.88961e-20
-1.48324e-16
-1.61e-20
-1.45709e-16
-1.13098e-20
-1.4314e-16
-5.12834e-21
-1.40618e-16
6.27137e-22
-1.38141e-16
3.65332e-21
-1.35708e-16
4.18934e-21
-1.33319e-16
3.02915e-21
-1.30972e-16
8.51007e-22
-1.28666e-16
-1.86731e-21
-1.264e-16
-4.79053e-21
-1.24174e-16
-7.65005e-21
-1.21986e-16
-1.0176e-20
-1.19837e-16
-1.2038e-20
-1.17725e-16
-1.27938e-20
-1.1565e-16
-1.18617e-20
-1.13611e-16
-8.55942e-21
-1.11609e-16
-2.32975e-21
-1.09641e-16
6.5799e-21
-1.0771e-16
1.53975e-20
-1.05813e-16
1.81491e-20
-1.03951e-16
1.73319e-20
-1.02122e-16
1.48644e-20
-1.00324e-16
1.16979e-20
-9.85584e-17
8.31241e-21
-9.68231e-17
4.98427e-21
-9.51181e-17
1.93836e-21
-9.34429e-17
-5.40419e-22
-9.17969e-17
-2.09651e-21
-9.01798e-17
-8.07906e-11
-9.273e-17
-3.4982e-07
-4.38289e-07
-4.04574e-05
1.43605e-07
-2.62888e-21
-1.70995e-16
-5.1578e-21
-1.67983e-16
-7.52862e-21
-1.65023e-16
-9.66862e-21
-1.62115e-16
-1.14832e-20
-1.59258e-16
-1.2852e-20
-1.56452e-16
-1.36311e-20
-1.53694e-16
-1.36686e-20
-1.50986e-16
-1.28402e-20
-1.48324e-16
-1.11136e-20
-1.4571e-16
-8.63674e-21
-1.43143e-16
-5.81378e-21
-1.4062e-16
-3.27278e-21
-1.38143e-16
-1.59103e-21
-1.3571e-16
-9.00917e-22
-1.3332e-16
-1.06021e-21
-1.30972e-16
-1.8299e-21
-1.28665e-16
-2.9622e-21
-1.26399e-16
-4.22766e-21
-1.24173e-16
-5.41441e-21
-1.21985e-16
-6.31913e-21
-1.19836e-16
-6.74123e-21
-1.17724e-16
-6.48868e-21
-1.1565e-16
-5.40461e-21
-1.13612e-16
-3.42436e-21
-1.11611e-16
-6.6834e-22
-1.09644e-16
2.44746e-21
-1.07713e-16
5.17278e-21
-1.05816e-16
6.73199e-21
-1.03952e-16
7.12488e-21
-1.02122e-16
6.62993e-21
-1.00324e-16
5.54647e-21
-9.85573e-17
4.12441e-21
-9.68217e-17
2.55854e-21
-9.51165e-17
9.98454e-22
-9.34413e-17
-4.46186e-22
-9.17955e-17
-1.79743e-21
-9.01785e-17
-4.94935e-11
-9.36739e-17
-1.66372e-07
-4.47059e-07
-4.06919e-05
4.90197e-08
-2.02066e-21
-1.70993e-16
-3.94499e-21
-1.67981e-16
-5.71336e-21
-1.65021e-16
-7.26239e-21
-1.62114e-16
-8.52328e-21
-1.59257e-16
-9.42386e-21
-1.56451e-16
-9.89549e-21
-1.53694e-16
-9.88653e-21
-1.50986e-16
-9.38239e-21
-1.48325e-16
-8.42956e-21
-1.45711e-16
-7.15483e-21
-1.43144e-16
-5.76379e-21
-1.40622e-16
-4.50016e-21
-1.38145e-16
-3.56452e-21
-1.35711e-16
-3.04152e-21
-1.33321e-16
-2.911e-21
-1.30972e-16
-3.08795e-21
-1.28665e-16
-3.45697e-21
-1.26399e-16
-3.89392e-21
-1.24172e-16
-4.27765e-21
-1.21985e-16
-4.49726e-21
-1.19836e-16
-4.45922e-21
-1.17725e-16
-4.09748e-21
-1.15651e-16
-3.38774e-21
-1.13613e-16
-2.36431e-21
-1.11612e-16
-1.13381e-21
-1.09645e-16
1.26252e-22
-1.07714e-16
1.20107e-21
-1.05817e-16
1.91433e-21
-1.03953e-16
2.20743e-21
-1.02122e-16
2.11133e-21
-1.00324e-16
1.70111e-21
-9.85569e-17
1.06437e-21
-9.68211e-17
2.83683e-22
-9.51158e-17
-5.7234e-22
-9.34404e-17
-1.45376e-21
-9.17946e-17
-2.46621e-21
-9.01776e-17
-5.71057e-11
-9.44057e-17
-1.53948e-07
-4.71319e-07
-4.09092e-05
4.48679e-08
-1.54252e-21
-1.70992e-16
-3.00305e-21
-1.6798e-16
-4.3309e-21
-1.6502e-16
-5.47773e-21
-1.62113e-16
-6.39818e-21
-1.59256e-16
-7.05254e-21
-1.5645e-16
-7.41187e-21
-1.53694e-16
-7.46511e-21
-1.50985e-16
-7.22703e-21
-1.48325e-16
-6.74447e-21
-1.45712e-16
-6.097e-21
-1.43144e-16
-5.38795e-21
-1.40623e-16
-4.72436e-21
-1.38145e-16
-4.19109e-21
-1.35712e-16
-3.83183e-21
-1.33321e-16
-3.64781e-21
-1.30972e-16
-3.60764e-21
-1.28665e-16
-3.66002e-21
-1.26399e-16
-3.74505e-21
-1.24172e-16
-3.80313e-21
-1.21985e-16
-3.78199e-21
-1.19836e-16
-3.64278e-21
-1.17725e-16
-3.36544e-21
-1.15651e-16
-2.95335e-21
-1.13613e-16
-2.43575e-21
-1.11612e-16
-1.86621e-21
-1.09646e-16
-1.31496e-21
-1.07715e-16
-8.54469e-22
-1.05817e-16
-5.41452e-22
-1.03953e-16
-4.03979e-22
-1.02122e-16
-4.42382e-22
-1.00324e-16
-6.37354e-22
-9.85567e-17
-9.59055e-22
-9.68207e-17
-1.37452e-21
-9.51153e-17
-1.85279e-21
-9.344e-17
-2.36794e-21
-9.17941e-17
-3.09095e-21
-9.01771e-17
-6.58968e-11
-9.51317e-17
-1.52787e-07
-5.01998e-07
-4.11256e-05
4.55189e-08
-1.18177e-21
-1.70991e-16
-2.29851e-21
-1.67978e-16
-3.31091e-21
-1.65019e-16
-4.18439e-21
-1.62112e-16
-4.89003e-21
-1.59256e-16
-5.40655e-21
-1.5645e-16
-5.72294e-21
-1.53693e-16
-5.84138e-21
-1.50985e-16
-5.7795e-21
-1.48325e-16
-5.57083e-21
-1.45712e-16
-5.26223e-21
-1.43145e-16
-4.90768e-21
-1.40623e-16
-4.55929e-21
-1.38146e-16
-4.25795e-21
-1.35712e-16
-4.02704e-21
-1.33321e-16
-3.87131e-21
-1.30973e-16
-3.77993e-21
-1.28665e-16
-3.7315e-21
-1.26399e-16
-3.69958e-21
-1.24172e-16
-3.65762e-21
-1.21985e-16
-3.58325e-21
-1.19836e-16
-3.4615e-21
-1.17725e-16
-3.2872e-21
-1.15651e-16
-3.06603e-21
-1.13614e-16
-2.81409e-21
-1.11612e-16
-2.55559e-21
-1.09646e-16
-2.31876e-21
-1.07715e-16
-2.13063e-21
-1.05817e-16
-2.01193e-21
-1.03954e-16
-1.97387e-21
-1.02122e-16
-2.01774e-21
-1.00324e-16
-2.13665e-21
-9.85566e-17
-2.31825e-21
-9.68206e-17
-2.54735e-21
-9.51151e-17
-2.8083e-21
-9.34397e-17
-3.08656e-21
-9.17938e-17
-3.61884e-21
-9.01768e-17
-7.63031e-11
-9.60189e-17
-1.52116e-07
-5.40054e-07
-4.13422e-05
4.69936e-08
-9.15735e-22
-1.7099e-16
-1.78185e-21
-1.67978e-16
-2.56941e-21
-1.65018e-16
-3.25432e-21
-1.62111e-16
-3.81817e-21
-1.59255e-16
-4.24932e-21
-1.56449e-16
-4.54402e-21
-1.53693e-16
-4.70724e-21
-1.50985e-16
-4.75288e-21
-1.48325e-16
-4.70279e-21
-1.45712e-16
-4.58449e-21
-1.43145e-16
-4.42767e-21
-1.40623e-16
-4.26e-21
-1.38146e-16
-4.10342e-21
-1.35712e-16
-3.97169e-21
-1.33321e-16
-3.86994e-21
-1.30973e-16
-3.79581e-21
-1.28665e-16
-3.74165e-21
-1.26399e-16
-3.69712e-21
-1.24172e-16
-3.65169e-21
-1.21985e-16
-3.59678e-21
-1.19836e-16
-3.52734e-21
-1.17725e-16
-3.44274e-21
-1.15651e-16
-3.34692e-21
-1.13614e-16
-3.24777e-21
-1.11612e-16
-3.15578e-21
-1.09646e-16
-3.0822e-21
-1.07715e-16
-3.03703e-21
-1.05818e-16
-3.02728e-21
-1.03954e-16
-3.05585e-21
-1.02122e-16
-3.12133e-21
-1.00324e-16
-3.21839e-21
-9.85565e-17
-3.33866e-21
-9.68204e-17
-3.47183e-21
-9.5115e-17
-3.60674e-21
-9.34396e-17
-3.73244e-21
-9.17937e-17
-4.1615e-21
-9.01767e-17
-9.07164e-11
-9.72009e-17
-1.50962e-07
-5.89698e-07
-4.15594e-05
4.92597e-08
-7.21419e-22
-1.70989e-16
-1.40569e-21
-1.67977e-16
-2.03207e-21
-1.65018e-16
-2.58396e-21
-1.62111e-16
-3.04943e-21
-1.59255e-16
-3.42177e-21
-1.56449e-16
-3.69987e-21
-1.53693e-16
-3.88821e-21
-1.50985e-16
-3.99646e-21
-1.48325e-16
-4.03851e-21
-1.45712e-16
-4.03086e-21
-1.43145e-16
-3.99073e-21
-1.40623e-16
-3.93405e-21
-1.38146e-16
-3.87378e-21
-1.35712e-16
-3.81891e-21
-1.33321e-16
-3.77429e-21
-1.30973e-16
-3.74107e-21
-1.28665e-16
-3.71779e-21
-1.26399e-16
-3.70149e-21
-1.24172e-16
-3.68901e-21
-1.21985e-16
-3.67791e-21
-1.19836e-16
-3.66723e-21
-1.17725e-16
-3.65779e-21
-1.15651e-16
-3.65216e-21
-1.13614e-16
-3.65422e-21
-1.11612e-16
-3.6685e-21
-1.09646e-16
-3.69931e-21
-1.07715e-16
-3.74985e-21
-1.05817e-16
-3.82149e-21
-1.03954e-16
-3.9132e-21
-1.02122e-16
-4.0213e-21
-1.00324e-16
-4.13944e-21
-9.85563e-17
-4.25873e-21
-9.68203e-17
-4.36801e-21
-9.51149e-17
-4.45425e-21
-9.34395e-17
-4.50301e-21
-9.17936e-17
-4.93703e-21
-9.01767e-17
-1.15888e-10
-9.9062e-17
-1.49052e-07
-6.63585e-07
-4.17778e-05
5.26402e-08
-5.79457e-22
-1.70988e-16
-1.13123e-21
-1.67976e-16
-1.64069e-21
-1.65017e-16
-2.09636e-21
-1.6211e-16
-2.49036e-21
-1.59254e-16
-2.81857e-21
-1.56449e-16
-3.08069e-21
-1.53692e-16
-3.28004e-21
-1.50985e-16
-3.42307e-21
-1.48325e-16
-3.51861e-21
-1.45712e-16
-3.57689e-21
-1.43145e-16
-3.60845e-21
-1.40623e-16
-3.62315e-21
-1.38146e-16
-3.62936e-21
-1.35712e-16
-3.63347e-21
-1.33321e-16
-3.63984e-21
-1.30973e-16
-3.65101e-21
-1.28665e-16
-3.66812e-21
-1.26399e-16
-3.69155e-21
-1.24172e-16
-3.72142e-21
-1.21985e-16
-3.75806e-21
-1.19836e-16
-3.80235e-21
-1.17725e-16
-3.85581e-21
-1.15651e-16
-3.92055e-21
-1.13614e-16
-3.99905e-21
-1.11612e-16
-4.09382e-21
-1.09646e-16
-4.20696e-21
-1.07715e-16
-4.33973e-21
-1.05817e-16
-4.4921e-21
-1.03953e-16
-4.66241e-21
-1.02122e-16
-4.84695e-21
-1.00323e-16
-5.03965e-21
-9.85562e-17
-5.23157e-21
-9.68201e-17
-5.41041e-21
-9.51147e-17
-5.55976e-21
-9.34393e-17
-5.65813e-21
-9.17935e-17
-6.34985e-21
-9.01767e-17
-1.72622e-10
-1.02758e-16
-1.45834e-07
-7.9741e-07
-4.19976e-05
5.78018e-08
-4.74926e-22
-1.70988e-16
-9.29124e-22
-1.67976e-16
-1.35233e-21
-1.65017e-16
-1.73661e-21
-1.6211e-16
-2.07662e-21
-1.59254e-16
-2.36967e-21
-1.56448e-16
-2.61568e-21
-1.53692e-16
-2.81694e-21
-1.50985e-16
-2.97769e-21
-1.48325e-16
-3.10366e-21
-1.45712e-16
-3.20143e-21
-1.43145e-16
-3.27779e-21
-1.40623e-16
-3.33928e-21
-1.38146e-16
-3.39167e-21
-1.35712e-16
-3.43981e-21
-1.33321e-16
-3.48751e-21
-1.30973e-16
-3.53768e-21
-1.28665e-16
-3.59252e-21
-1.26399e-16
-3.6538e-21
-1.24172e-16
-3.72311e-21
-1.21985e-16
-3.80207e-21
-1.19836e-16
-3.89253e-21
-1.17725e-16
-3.99659e-21
-1.15651e-16
-4.11662e-21
-1.13614e-16
-4.25515e-21
-1.11612e-16
-4.41477e-21
-1.09646e-16
-4.59795e-21
-1.07715e-16
-4.80686e-21
-1.05817e-16
-5.04322e-21
-1.03953e-16
-5.30811e-21
-1.02122e-16
-5.60169e-21
-1.00323e-16
-5.92296e-21
-9.85558e-17
-6.26918e-21
-9.68198e-17
-6.63518e-21
-9.51143e-17
-7.012e-21
-9.3439e-17
-7.38497e-21
-9.17931e-17
-8.96835e-21
-9.01764e-17
-3.22299e-10
-1.1153e-16
-1.40301e-07
-1.07147e-06
-4.22196e-05
6.57271e-08
-3.96874e-22
-1.70988e-16
-7.78049e-22
-1.67975e-16
-1.13634e-21
-1.65016e-16
-1.46622e-21
-1.62109e-16
-1.76402e-21
-1.59254e-16
-2.02791e-21
-1.56448e-16
-2.25784e-21
-1.53692e-16
-2.45534e-21
-1.50984e-16
-2.62325e-21
-1.48325e-16
-2.76537e-21
-1.45712e-16
-2.88609e-21
-1.43145e-16
-2.99001e-21
-1.40623e-16
-3.08168e-21
-1.38146e-16
-3.16532e-21
-1.35712e-16
-3.2447e-21
-1.33321e-16
-3.32309e-21
-1.30973e-16
-3.40334e-21
-1.28665e-16
-3.48792e-21
-1.26399e-16
-3.57908e-21
-1.24172e-16
-3.679e-21
-1.21985e-16
-3.78987e-21
-1.19836e-16
-3.91404e-21
-1.17725e-16
-4.05405e-21
-1.15651e-16
-4.21267e-21
-1.13613e-16
-4.39299e-21
-1.11612e-16
-4.59839e-21
-1.09646e-16
-4.83261e-21
-1.07714e-16
-5.09988e-21
-1.05817e-16
-5.40496e-21
-1.03953e-16
-5.75346e-21
-1.02122e-16
-6.15203e-21
-1.00323e-16
-6.60883e-21
-9.85554e-17
-7.13401e-21
-9.68193e-17
-7.74037e-21
-9.51137e-17
-8.44427e-21
-9.34383e-17
-9.26669e-21
-9.17923e-17
-1.28882e-20
-9.01754e-17
-7.07571e-10
-1.32962e-16
-1.32262e-07
-1.56368e-06
-4.24439e-05
7.64284e-08
-3.37473e-22
-1.70987e-16
-6.62867e-22
-1.67975e-16
-9.71142e-22
-1.65016e-16
-1.25844e-21
-1.62109e-16
-1.5222e-21
-1.59253e-16
-1.76115e-21
-1.56448e-16
-1.97522e-21
-1.53692e-16
-2.16547e-21
-1.50984e-16
-2.33381e-21
-1.48324e-16
-2.48283e-21
-1.45711e-16
-2.61556e-21
-1.43144e-16
-2.73524e-21
-1.40623e-16
-2.84515e-21
-1.38145e-16
-2.94845e-21
-1.35712e-16
-3.04811e-21
-1.33321e-16
-3.14687e-21
-1.30972e-16
-3.24727e-21
-1.28665e-16
-3.35165e-21
-1.26399e-16
-3.46228e-21
-1.24172e-16
-3.58137e-21
-1.21984e-16
-3.71119e-21
-1.19836e-16
-3.85414e-21
-1.17724e-16
-4.01277e-21
-1.15651e-16
-4.18993e-21
-1.13613e-16
-4.38879e-21
-1.11612e-16
-4.61298e-21
-1.09646e-16
-4.86672e-21
-1.07714e-16
-5.15503e-21
-1.05817e-16
-5.484e-21
-1.03952e-16
-5.86124e-21
-1.02121e-16
-6.29641e-21
-1.00322e-16
-6.80204e-21
-9.85549e-17
-7.39467e-21
-9.68187e-17
-8.09646e-21
-9.5113e-17
-8.93757e-21
-9.34374e-17
-9.9595e-21
-9.17913e-17
-1.68477e-20
-9.01741e-17
-1.42226e-09
-1.74357e-16
-1.26112e-07
-2.16098e-06
-4.26715e-05
8.60327e-08
-2.91212e-22
-1.70987e-16
-5.72958e-22
-1.67975e-16
-8.41692e-22
-1.65016e-16
-1.0947e-21
-1.62109e-16
-1.33018e-21
-1.59253e-16
-1.54723e-21
-1.56448e-16
-1.74579e-21
-1.53692e-16
-1.92658e-21
-1.50984e-16
-2.0909e-21
-1.48324e-16
-2.24059e-21
-1.45711e-16
-2.37776e-21
-1.43144e-16
-2.50475e-21
-1.40623e-16
-2.62395e-21
-1.38145e-16
-2.73777e-21
-1.35712e-16
-2.8485e-21
-1.33321e-16
-2.95835e-21
-1.30972e-16
-3.06942e-21
-1.28665e-16
-3.18372e-21
-1.26398e-16
-3.30319e-21
-1.24172e-16
-3.42975e-21
-1.21984e-16
-3.56534e-21
-1.19835e-16
-3.71195e-21
-1.17724e-16
-3.87167e-21
-1.1565e-16
-4.04676e-21
-1.13613e-16
-4.23966e-21
-1.11612e-16
-4.4531e-21
-1.09645e-16
-4.69014e-21
-1.07714e-16
-4.95433e-21
-1.05816e-16
-5.24976e-21
-1.03952e-16
-5.5813e-21
-1.02121e-16
-5.95472e-21
-1.00322e-16
-6.37696e-21
-9.85544e-17
-6.8563e-21
-9.68182e-17
-7.40266e-21
-9.51125e-17
-8.02768e-21
-9.34368e-17
-8.74475e-21
-9.17906e-17
-1.88472e-20
-9.01733e-17
-1.96918e-09
-2.2506e-16
-1.28962e-07
-2.61112e-06
-4.29044e-05
8.86671e-08
-2.54238e-22
-1.70987e-16
-5.00912e-22
-1.67975e-16
-7.37512e-22
-1.65016e-16
-9.62115e-22
-1.62109e-16
-1.17344e-21
-1.59253e-16
-1.37083e-21
-1.56447e-16
-1.55423e-21
-1.53691e-16
-1.72413e-21
-1.50984e-16
-1.88145e-21
-1.48324e-16
-2.02746e-21
-1.45711e-16
-2.16369e-21
-1.43144e-16
-2.29181e-21
-1.40623e-16
-2.41357e-21
-1.38145e-16
-2.53075e-21
-1.35712e-16
-2.6451e-21
-1.33321e-16
-2.7583e-21
-1.30972e-16
-2.87196e-21
-1.28665e-16
-2.98762e-21
-1.26398e-16
-3.10675e-21
-1.24172e-16
-3.23076e-21
-1.21984e-16
-3.36102e-21
-1.19835e-16
-3.49883e-21
-1.17724e-16
-3.64548e-21
-1.1565e-16
-3.80221e-21
-1.13613e-16
-3.97022e-21
-1.11611e-16
-4.15065e-21
-1.09645e-16
-4.34456e-21
-1.07714e-16
-4.55284e-21
-1.05816e-16
-4.77615e-21
-1.03952e-16
-5.01479e-21
-1.02121e-16
-5.26841e-21
-1.00322e-16
-5.53571e-21
-9.85542e-17
-5.81387e-21
-9.68179e-17
-6.09774e-21
-9.51122e-17
-6.37862e-21
-9.34365e-17
-6.64243e-21
-9.17903e-17
-1.74651e-20
-9.01731e-17
-1.80636e-09
-2.62392e-16
-1.39717e-07
-2.83913e-06
-4.31444e-05
8.51251e-08
-2.23873e-22
-1.70986e-16
-4.41583e-22
-1.67974e-16
-6.51334e-22
-1.65015e-16
-8.51749e-22
-1.62108e-16
-1.0419e-21
-1.59253e-16
-1.2213e-21
-1.56447e-16
-1.3899e-21
-1.53691e-16
-1.54802e-21
-1.50984e-16
-1.6963e-21
-1.48324e-16
-1.83562e-21
-1.45711e-16
-1.96707e-21
-1.43144e-16
-2.09184e-21
-1.40622e-16
-2.21118e-21
-1.38145e-16
-2.32637e-21
-1.35712e-16
-2.43867e-21
-1.33321e-16
-2.54928e-21
-1.30972e-16
-2.65935e-21
-1.28665e-16
-2.76992e-21
-1.26398e-16
-2.88196e-21
-1.24172e-16
-2.99632e-21
-1.21984e-16
-3.11373e-21
-1.19835e-16
-3.23481e-21
-1.17724e-16
-3.35999e-21
-1.1565e-16
-3.48953e-21
-1.13613e-16
-3.62345e-21
-1.11611e-16
-3.76148e-21
-1.09645e-16
-3.90296e-21
-1.07714e-16
-4.04673e-21
-1.05816e-16
-4.19099e-21
-1.03952e-16
-4.33307e-21
-1.02121e-16
-4.46918e-21
-1.00321e-16
-4.59407e-21
-9.85541e-17
-4.70054e-21
-9.68178e-17
-4.77894e-21
-9.51121e-17
-4.81648e-21
-9.34365e-17
-4.79649e-21
-9.17903e-17
-1.39321e-20
-9.01732e-17
-1.33552e-09
-2.79095e-16
-1.51868e-07
-2.91512e-06
-4.33925e-05
8.11046e-08
-1.98259e-22
-1.70986e-16
-3.91405e-22
-1.67974e-16
-5.78132e-22
-1.65015e-16
-7.57433e-22
-1.62108e-16
-9.2862e-22
-1.59252e-16
-1.09133e-21
-1.56447e-16
-1.24549e-21
-1.53691e-16
-1.3913e-21
-1.50984e-16
-1.52919e-21
-1.48324e-16
-1.65978e-21
-1.45711e-16
-1.7838e-21
-1.43144e-16
-1.90208e-21
-1.40622e-16
-2.01549e-21
-1.38145e-16
-2.12492e-21
-1.35711e-16
-2.2312e-21
-1.33321e-16
-2.33515e-21
-1.30972e-16
-2.43749e-21
-1.28665e-16
-2.53884e-21
-1.26398e-16
-2.63973e-21
-1.24171e-16
-2.74053e-21
-1.21984e-16
-2.84148e-21
-1.19835e-16
-2.94261e-21
-1.17724e-16
-3.04376e-21
-1.1565e-16
-3.14453e-21
-1.13613e-16
-3.24419e-21
-1.11611e-16
-3.34168e-21
-1.09645e-16
-3.43553e-21
-1.07713e-16
-3.52373e-21
-1.05816e-16
-3.6037e-21
-1.03952e-16
-3.67214e-21
-1.0212e-16
-3.72492e-21
-1.00321e-16
-3.75698e-21
-9.8554e-17
-3.7622e-21
-9.68178e-17
-3.73338e-21
-9.51121e-17
-3.66221e-21
-9.34365e-17
-3.53942e-21
-9.17905e-17
-1.0585e-20
-9.01734e-17
-9.64905e-10
-2.80839e-16
-1.62654e-07
-2.90839e-06
-4.365e-05
7.96336e-08
-1.76118e-22
-1.70986e-16
-3.47923e-22
-1.67974e-16
-5.14443e-22
-1.65015e-16
-6.74923e-22
-1.62108e-16
-8.28837e-22
-1.59252e-16
-9.75889e-22
-1.56447e-16
-1.116e-21
-1.53691e-16
-1.24927e-21
-1.50983e-16
-1.37598e-21
-1.48324e-16
-1.49652e-21
-1.45711e-16
-1.61139e-21
-1.43144e-16
-1.72114e-21
-1.40622e-16
-1.82635e-21
-1.38145e-16
-1.92758e-21
-1.35711e-16
-2.02537e-21
-1.33321e-16
-2.12022e-21
-1.30972e-16
-2.21253e-21
-1.28665e-16
-2.3026e-21
-1.26398e-16
-2.39063e-21
-1.24171e-16
-2.47668e-21
-1.21984e-16
-2.56065e-21
-1.19835e-16
-2.64226e-21
-1.17724e-16
-2.72103e-21
-1.1565e-16
-2.79626e-21
-1.13613e-16
-2.86698e-21
-1.11611e-16
-2.93195e-21
-1.09645e-16
-2.98962e-21
-1.07713e-16
-3.03808e-21
-1.05816e-16
-3.07508e-21
-1.03952e-16
-3.09798e-21
-1.0212e-16
-3.1038e-21
-1.00321e-16
-3.08923e-21
-9.8554e-17
-3.05069e-21
-9.68178e-17
-2.98451e-21
-9.51122e-17
-2.88708e-21
-9.34366e-17
-2.75521e-21
-9.17906e-17
-8.21082e-21
-9.01735e-17
-7.38096e-10
-2.738e-16
-1.72346e-07
-2.85605e-06
-4.39186e-05
8.09077e-08
-1.56571e-22
-1.70986e-16
-3.09451e-22
-1.67974e-16
-4.57897e-22
-1.65015e-16
-6.01321e-22
-1.62108e-16
-7.39304e-22
-1.59252e-16
-8.71591e-22
-1.56447e-16
-9.98082e-22
-1.53691e-16
-1.11882e-21
-1.50983e-16
-1.23395e-21
-1.48324e-16
-1.34373e-21
-1.45711e-16
-1.44845e-21
-1.43144e-16
-1.54848e-21
-1.40622e-16
-1.64416e-21
-1.38145e-16
-1.73585e-21
-1.35711e-16
-1.82387e-21
-1.3332e-16
-1.90847e-21
-1.30972e-16
-1.98986e-21
-1.28665e-16
-2.06812e-21
-1.26398e-16
-2.14328e-21
-1.24171e-16
-2.21521e-21
-1.21984e-16
-2.28365e-21
-1.19835e-16
-2.34823e-21
-1.17724e-16
-2.40839e-21
-1.1565e-16
-2.46341e-21
-1.13613e-16
-2.51242e-21
-1.11611e-16
-2.55433e-21
-1.09645e-16
-2.58791e-21
-1.07713e-16
-2.61177e-21
-1.05816e-16
-2.62434e-21
-1.03952e-16
-2.62397e-21
-1.0212e-16
-2.60897e-21
-1.00321e-16
-2.57763e-21
-9.85541e-17
-2.52839e-21
-9.68179e-17
-2.45994e-21
-9.51123e-17
-2.37136e-21
-9.34367e-17
-2.26232e-21
-9.17907e-17
-6.60217e-21
-9.01737e-17
-5.9694e-10
-2.6165e-16
-1.81723e-07
-2.7748e-06
-4.42001e-05
8.44226e-08
-1.39019e-22
-1.70986e-16
-2.74846e-22
-1.67974e-16
-4.06887e-22
-1.65015e-16
-5.34666e-22
-1.62108e-16
-6.57833e-22
-1.59252e-16
-7.76157e-22
-1.56447e-16
-8.89523e-22
-1.53691e-16
-9.97915e-22
-1.50983e-16
-1.1014e-21
-1.48323e-16
-1.20012e-21
-1.45711e-16
-1.29424e-21
-1.43144e-16
-1.38398e-21
-1.40622e-16
-1.46954e-21
-1.38145e-16
-1.55114e-21
-1.35711e-16
-1.62892e-21
-1.3332e-16
-1.70304e-21
-1.30972e-16
-1.77355e-21
-1.28665e-16
-1.84045e-21
-1.26398e-16
-1.90367e-21
-1.24171e-16
-1.96304e-21
-1.21984e-16
-2.01828e-21
-1.19835e-16
-2.06903e-21
-1.17724e-16
-2.11483e-21
-1.1565e-16
-2.15509e-21
-1.13613e-16
-2.18914e-21
-1.11611e-16
-2.21624e-21
-1.09645e-16
-2.23555e-21
-1.07713e-16
-2.24619e-21
-1.05816e-16
-2.24727e-21
-1.03952e-16
-2.23793e-21
-1.0212e-16
-2.21739e-21
-1.00321e-16
-2.18498e-21
-9.85541e-17
-2.14026e-21
-9.68179e-17
-2.08306e-21
-9.51123e-17
-2.01356e-21
-9.34368e-17
-1.93239e-21
-9.17908e-17
-5.44343e-21
-9.01738e-17
-4.97736e-10
-2.46495e-16
-1.91371e-07
-2.67162e-06
-4.4497e-05
8.98118e-08
-1.23059e-22
-1.70986e-16
-2.43333e-22
-1.67974e-16
-3.60327e-22
-1.65015e-16
-4.7364e-22
-1.62108e-16
-5.82962e-22
-1.59252e-16
-6.88077e-22
-1.56447e-16
-7.88855e-22
-1.53691e-16
-8.85241e-22
-1.50983e-16
-9.77244e-22
-1.48323e-16
-1.06492e-21
-1.4571e-16
-1.14837e-21
-1.43144e-16
-1.2277e-21
-1.40622e-16
-1.30302e-21
-1.38145e-16
-1.37446e-21
-1.35711e-16
-1.4421e-21
-1.3332e-16
-1.50599e-21
-1.30972e-16
-1.56617e-21
-1.28664e-16
-1.6226e-21
-1.26398e-16
-1.67519e-21
-1.24171e-16
-1.72381e-21
-1.21984e-16
-1.76823e-21
-1.19835e-16
-1.80821e-21
-1.17724e-16
-1.84339e-21
-1.1565e-16
-1.87342e-21
-1.13613e-16
-1.89785e-21
-1.11611e-16
-1.91624e-21
-1.09645e-16
-1.92811e-21
-1.07713e-16
-1.933e-21
-1.05816e-16
-1.93048e-21
-1.03952e-16
-1.92019e-21
-1.0212e-16
-1.90187e-21
-1.00321e-16
-1.87538e-21
-9.85541e-17
-1.84075e-21
-9.6818e-17
-1.79824e-21
-9.51124e-17
-1.74831e-21
-9.34368e-17
-1.69168e-21
-9.17908e-17
-4.53905e-21
-9.01738e-17
-4.18863e-10
-2.29431e-16
-2.01686e-07
-2.54922e-06
-4.48115e-05
9.69269e-08
-1.08419e-22
-1.70986e-16
-2.14395e-22
-1.67973e-16
-3.17496e-22
-1.65014e-16
-4.17366e-22
-1.62108e-16
-5.13722e-22
-1.59252e-16
-6.06355e-22
-1.56446e-16
-6.95123e-22
-1.5369e-16
-7.79943e-22
-1.50983e-16
-8.60784e-22
-1.48323e-16
-9.37654e-22
-1.4571e-16
-1.01059e-21
-1.43143e-16
-1.07965e-21
-1.40622e-16
-1.14491e-21
-1.38145e-16
-1.20642e-21
-1.35711e-16
-1.26424e-21
-1.3332e-16
-1.31842e-21
-1.30972e-16
-1.36898e-21
-1.28664e-16
-1.41589e-21
-1.26398e-16
-1.45912e-21
-1.24171e-16
-1.49859e-21
-1.21984e-16
-1.5342e-21
-1.19835e-16
-1.56581e-21
-1.17724e-16
-1.59324e-21
-1.1565e-16
-1.6163e-21
-1.13612e-16
-1.63479e-21
-1.11611e-16
-1.6485e-21
-1.09645e-16
-1.65721e-21
-1.07713e-16
-1.66075e-21
-1.05816e-16
-1.65898e-21
-1.03952e-16
-1.65179e-21
-1.0212e-16
-1.63917e-21
-1.00321e-16
-1.62119e-21
-9.85541e-17
-1.59803e-21
-9.6818e-17
-1.56997e-21
-9.51124e-17
-1.53742e-21
-9.34369e-17
-1.50092e-21
-9.17909e-17
-3.78828e-21
-9.01739e-17
-3.51144e-10
-2.11341e-16
-2.12967e-07
-2.40834e-06
-4.51464e-05
1.05767e-07
-9.49227e-23
-1.70985e-16
-1.87693e-22
-1.67973e-16
-2.77919e-22
-1.65014e-16
-3.65272e-22
-1.62107e-16
-4.49484e-22
-1.59252e-16
-5.30348e-22
-1.56446e-16
-6.07712e-22
-1.5369e-16
-6.81473e-22
-1.50983e-16
-7.51573e-22
-1.48323e-16
-8.1799e-22
-1.4571e-16
-8.80729e-22
-1.43143e-16
-9.39819e-22
-1.40622e-16
-9.95302e-22
-1.38145e-16
-1.04723e-21
-1.35711e-16
-1.09565e-21
-1.3332e-16
-1.14062e-21
-1.30972e-16
-1.18217e-21
-1.28664e-16
-1.22036e-21
-1.26398e-16
-1.2552e-21
-1.24171e-16
-1.28672e-21
-1.21984e-16
-1.3149e-21
-1.19835e-16
-1.33976e-21
-1.17724e-16
-1.36126e-21
-1.1565e-16
-1.3794e-21
-1.13612e-16
-1.39415e-21
-1.11611e-16
-1.40549e-21
-1.09645e-16
-1.41341e-21
-1.07713e-16
-1.41791e-21
-1.05816e-16
-1.41901e-21
-1.03952e-16
-1.41675e-21
-1.0212e-16
-1.4112e-21
-1.00321e-16
-1.40249e-21
-9.85542e-17
-1.39075e-21
-9.6818e-17
-1.37618e-21
-9.51124e-17
-1.35901e-21
-9.34369e-17
-1.33951e-21
-9.17909e-17
-3.14743e-21
-9.01739e-17
-2.91132e-10
-1.92887e-16
-2.25493e-07
-2.24889e-06
-4.55048e-05
1.16431e-07
-8.24551e-23
-1.70985e-16
-1.6301e-22
-1.67973e-16
-2.41295e-22
-1.65014e-16
-3.16996e-22
-1.62107e-16
-3.89851e-22
-1.59252e-16
-4.59652e-22
-1.56446e-16
-5.26237e-22
-1.5369e-16
-5.89489e-22
-1.50983e-16
-6.49331e-22
-1.48323e-16
-7.0572e-22
-1.4571e-16
-7.58643e-22
-1.43143e-16
-8.08113e-22
-1.40622e-16
-8.54162e-22
-1.38144e-16
-8.9684e-22
-1.35711e-16
-9.36213e-22
-1.3332e-16
-9.72357e-22
-1.30972e-16
-1.00536e-21
-1.28664e-16
-1.03531e-21
-1.26398e-16
-1.06232e-21
-1.24171e-16
-1.0865e-21
-1.21984e-16
-1.10797e-21
-1.19835e-16
-1.12685e-21
-1.17724e-16
-1.14328e-21
-1.1565e-16
-1.1574e-21
-1.13612e-16
-1.16934e-21
-1.11611e-16
-1.17927e-21
-1.09645e-16
-1.18732e-21
-1.07713e-16
-1.19365e-21
-1.05816e-16
-1.19838e-21
-1.03952e-16
-1.20165e-21
-1.0212e-16
-1.20358e-21
-1.00321e-16
-1.20425e-21
-9.85542e-17
-1.20376e-21
-9.6818e-17
-1.20215e-21
-9.51124e-17
-1.19947e-21
-9.34369e-17
-1.19571e-21
-9.17909e-17
-2.59526e-21
-9.01739e-17
-2.37604e-10
-1.74576e-16
-2.39589e-07
-2.07023e-06
-4.58903e-05
1.29115e-07
-7.09469e-23
-1.70985e-16
-1.40214e-22
-1.67973e-16
-2.07442e-22
-1.65014e-16
-2.72322e-22
-1.62107e-16
-3.34592e-22
-1.59252e-16
-3.94038e-22
-1.56446e-16
-4.50489e-22
-1.5369e-16
-5.03812e-22
-1.50983e-16
-5.53917e-22
-1.48323e-16
-6.00743e-22
-1.4571e-16
-6.44263e-22
-1.43143e-16
-6.84479e-22
-1.40622e-16
-7.21419e-22
-1.38144e-16
-7.55137e-22
-1.35711e-16
-7.85712e-22
-1.3332e-16
-8.13247e-22
-1.30972e-16
-8.37868e-22
-1.28664e-16
-8.59728e-22
-1.26398e-16
-8.79006e-22
-1.24171e-16
-8.95906e-22
-1.21984e-16
-9.10658e-22
-1.19835e-16
-9.23518e-22
-1.17724e-16
-9.34766e-22
-1.1565e-16
-9.44701e-22
-1.13612e-16
-9.53638e-22
-1.11611e-16
-9.61899e-22
-1.09645e-16
-9.69804e-22
-1.07713e-16
-9.7766e-22
-1.05816e-16
-9.85745e-22
-1.03952e-16
-9.943e-22
-1.0212e-16
-1.00351e-21
-1.00321e-16
-1.01348e-21
-9.85541e-17
-1.02426e-21
-9.6818e-17
-1.03579e-21
-9.51124e-17
-1.04794e-21
-9.34369e-17
-1.06046e-21
-9.17909e-17
-2.11628e-21
-9.01739e-17
-1.89836e-10
-1.56792e-16
-2.55711e-07
-1.87122e-06
-4.63074e-05
1.44162e-07
-6.03604e-23
-1.70985e-16
-1.19235e-22
-1.67973e-16
-1.76266e-22
-1.65014e-16
-2.31143e-22
-1.62107e-16
-2.83599e-22
-1.59252e-16
-3.3341e-22
-1.56446e-16
-3.80392e-22
-1.5369e-16
-4.24399e-22
-1.50983e-16
-4.65321e-22
-1.48323e-16
-5.03082e-22
-1.4571e-16
-5.37637e-22
-1.43143e-16
-5.68974e-22
-1.40622e-16
-5.97113e-22
-1.38144e-16
-6.22102e-22
-1.35711e-16
-6.44026e-22
-1.3332e-16
-6.63001e-22
-1.30972e-16
-6.79181e-22
-1.28664e-16
-6.92759e-22
-1.26398e-16
-7.03971e-22
-1.24171e-16
-7.13096e-22
-1.21984e-16
-7.20464e-22
-1.19835e-16
-7.26447e-22
-1.17724e-16
-7.3147e-22
-1.1565e-16
-7.35999e-22
-1.13612e-16
-7.4054e-22
-1.11611e-16
-7.45625e-22
-1.09645e-16
-7.51801e-22
-1.07713e-16
-7.59611e-22
-1.05816e-16
-7.69567e-22
-1.03952e-16
-7.82124e-22
-1.0212e-16
-7.97651e-22
-1.00321e-16
-8.16397e-22
-9.85541e-17
-8.38465e-22
-9.6818e-17
-8.63785e-22
-9.51124e-17
-8.92108e-22
-9.34369e-17
-9.23e-22
-9.17908e-17
-1.69287e-21
-9.01738e-17
-1.46872e-10
-1.3995e-16
-2.74541e-07
-1.64985e-06
-4.67617e-05
1.62148e-07
-5.06796e-23
-1.70985e-16
-1.00044e-22
-1.67973e-16
-1.47733e-22
-1.65014e-16
-1.93428e-22
-1.62107e-16
-2.36854e-22
-1.59252e-16
-2.77774e-22
-1.56446e-16
-3.15988e-22
-1.5369e-16
-3.51332e-22
-1.50983e-16
-3.83673e-22
-1.48323e-16
-4.12913e-22
-1.4571e-16
-4.38985e-22
-1.43143e-16
-4.61853e-22
-1.40622e-16
-4.81512e-22
-1.38144e-16
-4.97995e-22
-1.35711e-16
-5.11367e-22
-1.3332e-16
-5.21737e-22
-1.30971e-16
-5.29256e-22
-1.28664e-16
-5.34126e-22
-1.26398e-16
-5.36605e-22
-1.24171e-16
-5.37012e-22
-1.21984e-16
-5.35736e-22
-1.19835e-16
-5.33242e-22
-1.17724e-16
-5.30072e-22
-1.1565e-16
-5.26856e-22
-1.13612e-16
-5.24302e-22
-1.11611e-16
-5.23198e-22
-1.09645e-16
-5.24395e-22
-1.07713e-16
-5.28792e-22
-1.05816e-16
-5.37296e-22
-1.03952e-16
-5.50788e-22
-1.0212e-16
-5.70064e-22
-1.00321e-16
-5.95772e-22
-9.85541e-17
-6.2834e-22
-9.68179e-17
-6.6791e-22
-9.51123e-17
-7.14277e-22
-9.34368e-17
-7.66859e-22
-9.17908e-17
-1.30352e-21
-9.01738e-17
-1.07521e-10
-1.24359e-16
-2.97078e-07
-1.40273e-06
-4.72609e-05
1.83998e-07
-4.19034e-23
-1.70985e-16
-8.26433e-23
-1.67973e-16
-1.21852e-22
-1.65014e-16
-1.59203e-22
-1.62107e-16
-1.94409e-22
-1.59251e-16
-2.27217e-22
-1.56446e-16
-2.5741e-22
-1.5369e-16
-2.848e-22
-1.50983e-16
-3.0923e-22
-1.48323e-16
-3.30571e-22
-1.4571e-16
-3.48723e-22
-1.43143e-16
-3.63613e-22
-1.40622e-16
-3.75201e-22
-1.38144e-16
-3.83474e-22
-1.35711e-16
-3.88457e-22
-1.3332e-16
-3.90213e-22
-1.30971e-16
-3.88851e-22
-1.28664e-16
-3.84531e-22
-1.26398e-16
-3.77476e-22