/*--------------------------------*- C++ -*----------------------------------*\
  =========                 |
  \\      /  F ield         | OpenFOAM: The Open Source CFD Toolbox
   \\    /   O peration     | Website:  https://openfoam.org
    \\  /    A nd           | Version:  7
     \\/     M anipulation  |
\*---------------------------------------------------------------------------*/
FoamFile
{
    version     2.0;
    format      ascii;
    class       volVectorField;
    location    "20000";
    object      Ua;
}
// * * * * * * * * * * * * * * * * * * * * * * * * * * * * * * * * * * * * * //

dimensions      [0 1 -1 0 0 0 0];

internalField   nonuniform List<vector> 
3200
(
(-5.86037e-07 8.46334e-07 0)
(-1.76946e-06 8.78194e-07 0)
(-2.99856e-06 9.45318e-07 0)
(-4.32421e-06 1.05703e-06 0)
(-5.81224e-06 1.23131e-06 0)
(-7.55724e-06 1.50087e-06 0)
(-9.70652e-06 1.92542e-06 0)
(-1.25051e-05 2.61704e-06 0)
(-1.63838e-05 3.79334e-06 0)
(-2.21387e-05 5.89141e-06 0)
(-3.13055e-05 9.81623e-06 0)
(-4.69558e-05 1.74903e-05 0)
(-3.52172e-05 2.51682e-05 0)
(-8.01344e-06 3.6829e-05 0)
(-1.84003e-06 9.3617e-06 0)
(-9.28146e-07 5.02987e-06 0)
(-5.65477e-07 3.24861e-06 0)
(-3.79815e-07 2.30196e-06 0)
(-2.71591e-07 1.72937e-06 0)
(-2.03018e-07 1.35322e-06 0)
(-1.5699e-07 1.0915e-06 0)
(-1.24733e-07 9.02133e-07 0)
(-1.01301e-07 7.60254e-07 0)
(-8.38059e-08 6.5103e-07 0)
(-7.04445e-08 5.65349e-07 0)
(-6.00224e-08 4.96769e-07 0)
(-5.1748e-08 4.40949e-07 0)
(-4.5124e-08 3.94845e-07 0)
(-3.96383e-08 3.48008e-07 0)
(-3.49664e-08 3.11486e-07 0)
(-3.10983e-08 2.82242e-07 0)
(-2.79113e-08 2.58277e-07 0)
(-2.52056e-08 2.38255e-07 0)
(-2.27932e-08 2.21181e-07 0)
(-2.04894e-08 2.06207e-07 0)
(-1.80978e-08 1.92542e-07 0)
(-1.54061e-08 1.79409e-07 0)
(-1.21797e-08 1.66217e-07 0)
(-8.0977e-09 1.52608e-07 0)
(-3.02168e-09 1.38309e-07 0)
(-5.39617e-07 2.47196e-06 0)
(-1.62349e-06 2.55647e-06 0)
(-2.73036e-06 2.73256e-06 0)
(-3.88772e-06 3.01998e-06 0)
(-5.12271e-06 3.4554e-06 0)
(-6.4595e-06 4.10114e-06 0)
(-7.90939e-06 5.06124e-06 0)
(-9.44305e-06 6.51025e-06 0)
(-1.09189e-05 8.74462e-06 0)
(-1.19044e-05 1.22743e-05 0)
(-1.12392e-05 1.79847e-05 0)
(-5.97859e-06 2.74203e-05 0)
(6.56406e-06 3.50924e-05 0)
(1.311e-05 1.07211e-05 0)
(9.60142e-06 6.31399e-06 0)
(6.39176e-06 4.71856e-06 0)
(3.86052e-06 3.81737e-06 0)
(1.71469e-06 3.29388e-06 0)
(-2.52156e-07 3.01777e-06 0)
(-2.19543e-06 2.93562e-06 0)
(-4.25773e-06 3.04132e-06 0)
(-6.60167e-06 3.37077e-06 0)
(-9.44762e-06 4.01178e-06 0)
(-1.31289e-05 5.13408e-06 0)
(-1.81826e-05 7.04812e-06 0)
(-2.5509e-05 1.03156e-05 0)
(-3.66558e-05 1.59564e-05 0)
(-3.03201e-05 2.09803e-05 0)
(-9.97783e-06 3.91004e-06 0)
(-2.07998e-06 1.34969e-06 0)
(-1.1584e-06 1.06765e-06 0)
(-7.66102e-07 9.09198e-07 0)
(-5.47468e-07 7.90809e-07 0)
(-4.09721e-07 6.93801e-07 0)
(-3.15909e-07 6.09814e-07 0)
(-2.47533e-07 5.3301e-07 0)
(-1.93198e-07 4.57752e-07 0)
(-1.43493e-07 3.77512e-07 0)
(-8.6217e-08 2.81993e-07 0)
(-2.76653e-08 1.93067e-07 0)
(-4.62911e-07 3.91978e-06 0)
(-1.38517e-06 4.03183e-06 0)
(-2.30348e-06 4.26127e-06 0)
(-3.22113e-06 4.62462e-06 0)
(-4.13292e-06 5.15072e-06 0)
(-5.01821e-06 5.8827e-06 0)
(-5.82888e-06 6.87972e-06 0)
(-6.46952e-06 8.21521e-06 0)
(-6.76856e-06 9.96395e-06 0)
(-6.44699e-06 1.21583e-05 0)
(-5.12057e-06 1.46671e-05 0)
(-2.4624e-06 1.6892e-05 0)
(1.09036e-06 1.70392e-05 0)
(3.40575e-06 1.29745e-05 0)
(3.63842e-06 1.00877e-05 0)
(2.934e-06 8.25663e-06 0)
(1.86714e-06 7.12126e-06 0)
(6.66793e-07 6.46781e-06 0)
(-5.82115e-07 6.18188e-06 0)
(-1.85038e-06 6.21586e-06 0)
(-3.12269e-06 6.57352e-06 0)
(-4.36974e-06 7.30746e-06 0)
(-5.51553e-06 8.52745e-06 0)
(-6.38149e-06 1.04205e-05 0)
(-6.57943e-06 1.32857e-05 0)
(-5.3023e-06 1.75898e-05 0)
(-9.16193e-07 2.40505e-05 0)
(7.75171e-06 2.89079e-05 0)
(1.21984e-05 9.79701e-06 0)
(9.82444e-06 5.7642e-06 0)
(7.32652e-06 4.56686e-06 0)
(5.31518e-06 3.83915e-06 0)
(3.60824e-06 3.37887e-06 0)
(2.06347e-06 3.10706e-06 0)
(5.67868e-07 2.9931e-06 0)
(-9.84869e-07 3.03892e-06 0)
(-2.71621e-06 3.27792e-06 0)
(-3.403e-06 3.33406e-06 0)
(-1.75389e-06 7.90444e-07 0)
(-1.59757e-07 1.93569e-07 0)
(-3.76358e-07 5.13182e-06 0)
(-1.11994e-06 5.24695e-06 0)
(-1.84152e-06 5.47832e-06 0)
(-2.53066e-06 5.8333e-06 0)
(-3.16912e-06 6.32415e-06 0)
(-3.72678e-06 6.96574e-06 0)
(-4.15698e-06 7.77094e-06 0)
(-4.39281e-06 8.74147e-06 0)
(-4.34783e-06 9.85124e-06 0)
(-3.92932e-06 1.10188e-05 0)
(-3.07754e-06 1.20695e-05 0)
(-1.84565e-06 1.27053e-05 0)
(-5.0539e-07 1.25548e-05 0)
(4.80604e-07 1.15323e-05 0)
(8.80565e-07 1.0384e-05 0)
(8.10484e-07 9.41525e-06 0)
(4.35659e-07 8.70872e-06 0)
(-1.14109e-07 8.2709e-06 0)
(-7.47534e-07 8.08971e-06 0)
(-1.39681e-06 8.15548e-06 0)
(-2.00149e-06 8.46681e-06 0)
(-2.49416e-06 9.02934e-06 0)
(-2.78808e-06 9.8487e-06 0)
(-2.76829e-06 1.09146e-05 0)
(-2.29286e-06 1.21688e-05 0)
(-1.22262e-06 1.34403e-05 0)
(4.77203e-07 1.43226e-05 0)
(2.4676e-06 1.39383e-05 0)
(3.76657e-06 1.13867e-05 0)
(3.98376e-06 9.36112e-06 0)
(3.61496e-06 7.96152e-06 0)
(2.98238e-06 7.00801e-06 0)
(2.24673e-06 6.38286e-06 0)
(1.49294e-06 6.0167e-06 0)
(7.77265e-07 5.87508e-06 0)
(1.56959e-07 5.95101e-06 0)
(-2.83993e-07 6.26215e-06 0)
(-5.63825e-07 6.40212e-06 0)
(-4.02462e-07 1.46807e-06 0)
(-3.65203e-08 7.96602e-08 0)
(-2.95167e-07 6.10161e-06 0)
(-8.7428e-07 6.20421e-06 0)
(-1.42442e-06 6.40692e-06 0)
(-1.93089e-06 6.70926e-06 0)
(-2.37491e-06 7.11094e-06 0)
(-2.73233e-06 7.60918e-06 0)
(-2.9735e-06 8.19463e-06 0)
(-3.06519e-06 8.84582e-06 0)
(-2.97638e-06 9.52228e-06 0)
(-2.6895e-06 1.01582e-05 0)
(-2.21754e-06 1.0662e-05 0)
(-1.62249e-06 1.093e-05 0)
(-1.02023e-06 1.08897e-05 0)
(-5.46104e-07 1.05705e-05 0)
(-2.79793e-07 1.0129e-05 0)
(-2.20193e-07 9.69457e-06 0)
(-3.24498e-07 9.34393e-06 0)
(-5.38052e-07 9.11552e-06 0)
(-8.07269e-07 9.02496e-06 0)
(-1.0826e-06 9.07514e-06 0)
(-1.31743e-06 9.26054e-06 0)
(-1.4664e-06 9.56725e-06 0)
(-1.48544e-06 9.96936e-06 0)
(-1.33537e-06 1.04226e-05 0)
(-9.91306e-07 1.08565e-05 0)
(-4.59524e-07 1.11682e-05 0)
(1.99758e-07 1.12273e-05 0)
(8.55592e-07 1.0914e-05 0)
(1.33665e-06 1.02369e-05 0)
(1.55583e-06 9.47632e-06 0)
(1.54438e-06 8.78022e-06 0)
(1.36715e-06 8.20359e-06 0)
(1.08584e-06 7.75956e-06 0)
(7.50353e-07 7.44328e-06 0)
(3.99375e-07 7.24178e-06 0)
(6.2008e-08 7.13605e-06 0)
(-2.42894e-07 7.09827e-06 0)
(-5.12751e-07 7.08397e-06 0)
(-3.5214e-07 1.95004e-06 0)
(-2.27025e-08 1.76917e-08 0)
(-2.26877e-07 6.85553e-06 0)
(-6.69816e-07 6.93925e-06 0)
(-1.08443e-06 7.10237e-06 0)
(-1.4569e-06 7.34019e-06 0)
(-1.7724e-06 7.64638e-06 0)
(-2.01508e-06 8.01135e-06 0)
(-2.16915e-06 8.42027e-06 0)
(-2.2211e-06 8.85106e-06 0)
(-2.16349e-06 9.27319e-06 0)
(-1.99991e-06 9.64842e-06 0)
(-1.7498e-06 9.93534e-06 0)
(-1.45049e-06 1.00992e-05 0)
(-1.15243e-06 1.01262e-05 0)
(-9.05494e-07 1.00358e-05 0)
(-7.41719e-07 9.87677e-06 0)
(-6.68342e-07 9.70066e-06 0)
(-6.73555e-07 9.54792e-06 0)
(-7.34856e-07 9.44483e-06 0)
(-8.25349e-07 9.40508e-06 0)
(-9.17494e-07 9.43209e-06 0)
(-9.85236e-07 9.52067e-06 0)
(-1.00562e-06 9.6577e-06 0)
(-9.60736e-07 9.82209e-06 0)
(-8.40433e-07 9.98489e-06 0)
(-6.45834e-07 1.01104e-05 0)
(-3.92765e-07 1.01601e-05 0)
(-1.13128e-07 1.01009e-05 0)
(1.4903e-07 9.91829e-06 0)
(3.49793e-07 9.63084e-06 0)
(4.62786e-07 9.29008e-06 0)
(4.84905e-07 8.94356e-06 0)
(4.28056e-07 8.62379e-06 0)
(3.10505e-07 8.34912e-06 0)
(1.51358e-07 8.1273e-06 0)
(-3.24101e-08 7.9587e-06 0)
(-2.27489e-07 7.83863e-06 0)
(-4.25087e-07 7.75913e-06 0)
(-6.21168e-07 7.71064e-06 0)
(-3.88167e-07 2.20051e-06 0)
(-2.04486e-08 7.1544e-09 0)
(-1.73192e-07 7.4333e-06 0)
(-5.10372e-07 7.49794e-06 0)
(-8.23448e-07 7.62259e-06 0)
(-1.1013e-06 7.80126e-06 0)
(-1.33341e-06 8.02614e-06 0)
(-1.51023e-06 8.28691e-06 0)
(-1.62405e-06 8.57017e-06 0)
(-1.67037e-06 8.85919e-06 0)
(-1.64962e-06 9.13445e-06 0)
(-1.5687e-06 9.3753e-06 0)
(-1.44183e-06 9.56303e-06 0)
(-1.28952e-06 9.68513e-06 0)
(-1.1354e-06 9.73939e-06 0)
(-1.00102e-06 9.73571e-06 0)
(-9.00803e-07 9.69329e-06 0)
(-8.39804e-07 9.63408e-06 0)
(-8.14633e-07 9.57739e-06 0)
(-8.16005e-07 9.53726e-06 0)
(-8.31433e-07 9.52163e-06 0)
(-8.47501e-07 9.5325e-06 0)
(-8.51648e-07 9.56659e-06 0)
(-8.33645e-07 9.61595e-06 0)
(-7.86875e-07 9.66889e-06 0)
(-7.09467e-07 9.71112e-06 0)
(-6.05082e-07 9.7276e-06 0)
(-4.83019e-07 9.70497e-06 0)
(-3.57178e-07 9.63471e-06 0)
(-2.43581e-07 9.51602e-06 0)
(-1.56732e-07 9.35713e-06 0)
(-1.06152e-07 9.17318e-06 0)
(-9.50284e-08 8.98073e-06 0)
(-1.21231e-07 8.79404e-06 0)
(-1.79243e-07 8.62357e-06 0)
(-2.62011e-07 8.47597e-06 0)
(-3.62359e-07 8.35461e-06 0)
(-4.73899e-07 8.26045e-06 0)
(-5.91515e-07 8.19291e-06 0)
(-7.11305e-07 8.15024e-06 0)
(-4.13408e-07 2.29909e-06 0)
(-1.94809e-08 6.54735e-09 0)
(-1.32688e-07 7.87504e-06 0)
(-3.90762e-07 7.92334e-06 0)
(-6.2982e-07 8.01579e-06 0)
(-8.41564e-07 8.14679e-06 0)
(-1.01887e-06 8.30924e-06 0)
(-1.15609e-06 8.49441e-06 0)
(-1.24961e-06 8.69207e-06 0)
(-1.29843e-06 8.89072e-06 0)
(-1.30478e-06 9.07838e-06 0)
(-1.2744e-06 9.24377e-06 0)
(-1.21632e-06 9.37785e-06 0)
(-1.14187e-06 9.47543e-06 0)
(-1.06294e-06 9.53629e-06 0)
(-9.8999e-07 9.5652e-06 0)
(-9.30229e-07 9.57056e-06 0)
(-8.86818e-07 9.56216e-06 0)
(-8.59072e-07 9.54904e-06 0)
(-8.43375e-07 9.53813e-06 0)
(-8.34353e-07 9.53348e-06 0)
(-8.26058e-07 9.53617e-06 0)
(-8.12997e-07 9.54449e-06 0)
(-7.90976e-07 9.55449e-06 0)
(-7.57736e-07 9.56062e-06 0)
(-7.13334e-07 9.55659e-06 0)
(-6.60214e-07 9.53644e-06 0)
(-6.02902e-07 9.49559e-06 0)
(-5.47286e-07 9.43186e-06 0)
(-4.99572e-07 9.34607e-06 0)
(-4.65122e-07 9.24198e-06 0)
(-4.47522e-07 9.12552e-06 0)
(-4.48173e-07 9.00347e-06 0)
(-4.6645e-07 8.88234e-06 0)
(-5.00191e-07 8.7677e-06 0)
(-5.46304e-07 8.66386e-06 0)
(-6.01327e-07 8.57396e-06 0)
(-6.61868e-07 8.5001e-06 0)
(-7.24901e-07 8.44365e-06 0)
(-7.87754e-07 8.40491e-06 0)
(-4.3617e-07 2.31734e-06 0)
(-1.8494e-08 6.5579e-09 0)
(-1.02818e-07 8.21515e-06 0)
(-3.02882e-07 8.25062e-06 0)
(-4.88555e-07 8.31822e-06 0)
(-6.53882e-07 8.41332e-06 0)
(-7.94091e-07 8.53025e-06 0)
(-9.05808e-07 8.66236e-06 0)
(-9.87306e-07 8.8023e-06 0)
(-1.03872e-06 8.94244e-06 0)
(-1.06217e-06 9.07534e-06 0)
(-1.06167e-06 9.19454e-06 0)
(-1.04276e-06 9.29517e-06 0)
(-1.01187e-06 9.37461e-06 0)
(-9.75442e-07 9.43272e-06 0)
(-9.39036e-07 9.47165e-06 0)
(-9.06665e-07 9.49515e-06 0)
(-8.8045e-07 9.50765e-06 0)
(-8.60701e-07 9.51338e-06 0)
(-8.46297e-07 9.51563e-06 0)
(-8.35216e-07 9.51641e-06 0)
(-8.25116e-07 9.51631e-06 0)
(-8.1385e-07 9.51458e-06 0)
(-7.99889e-07 9.50947e-06 0)
(-7.82593e-07 9.49855e-06 0)
(-7.62335e-07 9.47924e-06 0)
(-7.40444e-07 9.44922e-06 0)
(-7.18983e-07 9.40696e-06 0)
(-7.00393e-07 9.35197e-06 0)
(-6.8706e-07 9.28495e-06 0)
(-6.80894e-07 9.20773e-06 0)
(-6.83006e-07 9.12295e-06 0)
(-6.93567e-07 9.03369e-06 0)
(-7.11816e-07 8.9431e-06 0)
(-7.36217e-07 8.85414e-06 0)
(-7.64674e-07 8.76947e-06 0)
(-7.94774e-07 8.69142e-06 0)
(-8.24035e-07 8.62211e-06 0)
(-8.50128e-07 8.56351e-06 0)
(-8.70902e-07 8.51694e-06 0)
(-4.65574e-07 2.27322e-06 0)
(-1.73312e-08 6.50041e-09 0)
(-8.10001e-08 8.48061e-06 0)
(-2.38829e-07 8.50653e-06 0)
(-3.85988e-07 8.55578e-06 0)
(-5.18283e-07 8.62485e-06 0)
(-6.3251e-07 8.70945e-06 0)
(-7.26578e-07 8.80475e-06 0)
(-7.99609e-07 8.90563e-06 0)
(-8.5198e-07 9.00699e-06 0)
(-8.85281e-07 9.10411e-06 0)
(-9.02157e-07 9.19301e-06 0)
(-9.06019e-07 9.27077e-06 0)
(-9.00654e-07 9.33577e-06 0)
(-8.89785e-07 9.38769e-06 0)
(-8.76654e-07 9.42735e-06 0)
(-8.63726e-07 9.45634e-06 0)
(-8.52556e-07 9.47666e-06 0)
(-8.43816e-07 9.49025e-06 0)
(-8.37472e-07 9.49864e-06 0)
(-8.33028e-07 9.50283e-06 0)
(-8.29797e-07 9.50314e-06 0)
(-8.27149e-07 9.49931e-06 0)
(-8.24704e-07 9.4906e-06 0)
(-8.22445e-07 9.47601e-06 0)
(-8.20752e-07 9.45448e-06 0)
(-8.20351e-07 9.4251e-06 0)
(-8.22186e-07 9.38731e-06 0)
(-8.27249e-07 9.34096e-06 0)
(-8.36383e-07 9.28636e-06 0)
(-8.50102e-07 9.22423e-06 0)
(-8.68442e-07 9.1556e-06 0)
(-8.90876e-07 9.08166e-06 0)
(-9.16278e-07 9.00364e-06 0)
(-9.42936e-07 8.92274e-06 0)
(-9.686e-07 8.84014e-06 0)
(-9.90554e-07 8.75704e-06 0)
(-1.00571e-06 8.6748e-06 0)
(-1.01075e-06 8.59513e-06 0)
(-1.00208e-06 8.51964e-06 0)
(-5.21521e-07 2.16039e-06 0)
(-1.59122e-08 6.32988e-09 0)
(-6.50608e-08 8.69155e-06 0)
(-1.92074e-07 8.71054e-06 0)
(-3.11228e-07 8.74662e-06 0)
(-4.19591e-07 8.79717e-06 0)
(-5.14993e-07 8.85908e-06 0)
(-5.96081e-07 8.9289e-06 0)
(-6.62363e-07 9.00309e-06 0)
(-7.14176e-07 9.07819e-06 0)
(-7.52618e-07 9.15108e-06 0)
(-7.79404e-07 9.21918e-06 0)
(-7.96675e-07 9.28058e-06 0)
(-8.06761e-07 9.33409e-06 0)
(-8.11956e-07 9.37927e-06 0)
(-8.14303e-07 9.4163e-06 0)
(-8.15462e-07 9.44579e-06 0)
(-8.16639e-07 9.46857e-06 0)
(-8.18608e-07 9.48549e-06 0)
(-8.21784e-07 9.49729e-06 0)
(-8.26336e-07 9.50442e-06 0)
(-8.3232e-07 9.50709e-06 0)
(-8.39788e-07 9.50522e-06 0)
(-8.48875e-07 9.49851e-06 0)
(-8.59849e-07 9.48656e-06 0)
(-8.7312e-07 9.4689e-06 0)
(-8.89203e-07 9.44512e-06 0)
(-9.08658e-07 9.41489e-06 0)
(-9.32002e-07 9.37801e-06 0)
(-9.59612e-07 9.33439e-06 0)
(-9.91627e-07 9.28398e-06 0)
(-1.02786e-06 9.22674e-06 0)
(-1.0677e-06 9.16254e-06 0)
(-1.11006e-06 9.09108e-06 0)
(-1.15324e-06 9.01186e-06 0)
(-1.19487e-06 8.92413e-06 0)
(-1.23172e-06 8.82694e-06 0)
(-1.25953e-06 8.71923e-06 0)
(-1.27279e-06 8.60001e-06 0)
(-1.26406e-06 8.46777e-06 0)
(-6.49863e-07 1.95907e-06 0)
(-1.40692e-08 6.04439e-09 0)
(-5.33242e-08 8.86252e-06 0)
(-1.57645e-07 8.87659e-06 0)
(-2.56159e-07 8.90332e-06 0)
(-3.46822e-07 8.94083e-06 0)
(-4.28145e-07 8.98687e-06 0)
(-4.99224e-07 9.039e-06 0)
(-5.5975e-07 9.09475e-06 0)
(-6.09968e-07 9.15175e-06 0)
(-6.50614e-07 9.20787e-06 0)
(-6.82808e-07 9.26133e-06 0)
(-7.07928e-07 9.3108e-06 0)
(-7.2748e-07 9.35537e-06 0)
(-7.42957e-07 9.39456e-06 0)
(-7.55743e-07 9.42827e-06 0)
(-7.67031e-07 9.45665e-06 0)
(-7.77791e-07 9.48001e-06 0)
(-7.8878e-07 9.49871e-06 0)
(-8.00571e-07 9.51307e-06 0)
(-8.13609e-07 9.52334e-06 0)
(-8.28271e-07 9.52963e-06 0)
(-8.44918e-07 9.53197e-06 0)
(-8.63941e-07 9.53025e-06 0)
(-8.85782e-07 9.52432e-06 0)
(-9.10942e-07 9.51399e-06 0)
(-9.39973e-07 9.49903e-06 0)
(-9.7345e-07 9.47921e-06 0)
(-1.01194e-06 9.45428e-06 0)
(-1.05596e-06 9.42391e-06 0)
(-1.10596e-06 9.38766e-06 0)
(-1.16224e-06 9.34489e-06 0)
(-1.22494e-06 9.29467e-06 0)
(-1.29397e-06 9.23566e-06 0)
(-1.36892e-06 9.16596e-06 0)
(-1.44889e-06 9.08295e-06 0)
(-1.53229e-06 8.98307e-06 0)
(-1.61648e-06 8.8616e-06 0)
(-1.69715e-06 8.71231e-06 0)
(-1.76677e-06 8.52592e-06 0)
(-9.20499e-07 1.69439e-06 0)
(-1.15379e-08 5.72189e-09 0)
(-4.45606e-08 9.00388e-06 0)
(-1.31919e-07 9.01447e-06 0)
(-2.14945e-07 9.03463e-06 0)
(-2.92212e-07 9.06298e-06 0)
(-3.62688e-07 9.09791e-06 0)
(-4.25754e-07 9.1377e-06 0)
(-4.81199e-07 9.18061e-06 0)
(-5.2919e-07 9.22497e-06 0)
(-5.70219e-07 9.2693e-06 0)
(-6.05029e-07 9.31234e-06 0)
(-6.34539e-07 9.35312e-06 0)
(-6.59762e-07 9.39091e-06 0)
(-6.81723e-07 9.4253e-06 0)
(-7.01407e-07 9.45606e-06 0)
(-7.19709e-07 9.48317e-06 0)
(-7.37424e-07 9.50671e-06 0)
(-7.55236e-07 9.52681e-06 0)
(-7.73742e-07 9.54365e-06 0)
(-7.93474e-07 9.55738e-06 0)
(-8.14929e-07 9.56809e-06 0)
(-8.38597e-07 9.57589e-06 0)
(-8.64987e-07 9.5808e-06 0)
(-8.94648e-07 9.58283e-06 0)
(-9.28178e-07 9.58199e-06 0)
(-9.66234e-07 9.57824e-06 0)
(-1.00954e-06 9.57151e-06 0)
(-1.0589e-06 9.56172e-06 0)
(-1.11521e-06 9.54867e-06 0)
(-1.17947e-06 9.53207e-06 0)
(-1.25285e-06 9.51142e-06 0)
(-1.33673e-06 9.48596e-06 0)
(-1.43278e-06 9.45455e-06 0)
(-1.54303e-06 9.4155e-06 0)
(-1.67008e-06 9.36639e-06 0)
(-1.81719e-06 9.30375e-06 0)
(-1.98857e-06 9.22266e-06 0)
(-2.18958e-06 9.11615e-06 0)
(-2.42556e-06 8.97242e-06 0)
(-1.29624e-06 1.52951e-06 0)
(-8.35978e-09 5.64477e-09 0)
(-3.78911e-08 9.12295e-06 0)
(-1.12317e-07 9.13109e-06 0)
(-1.83465e-07 9.14662e-06 0)
(-2.50335e-07 9.16853e-06 0)
(-3.12208e-07 9.19568e-06 0)
(-3.68651e-07 9.22681e-06 0)
(-4.19515e-07 9.26071e-06 0)
(-4.64912e-07 9.29617e-06 0)
(-5.05174e-07 9.33216e-06 0)
(-5.40806e-07 9.36774e-06 0)
(-5.72441e-07 9.4022e-06 0)
(-6.00782e-07 9.435e-06 0)
(-6.2656e-07 9.46575e-06 0)
(-6.50499e-07 9.49425e-06 0)
(-6.73287e-07 9.5204e-06 0)
(-6.95566e-07 9.54421e-06 0)
(-7.17927e-07 9.56574e-06 0)
(-7.40919e-07 9.5851e-06 0)
(-7.65061e-07 9.60243e-06 0)
(-7.90853e-07 9.61787e-06 0)
(-8.18801e-07 9.63158e-06 0)
(-8.49427e-07 9.6437e-06 0)
(-8.83287e-07 9.65443e-06 0)
(-9.2099e-07 9.66393e-06 0)
(-9.63209e-07 9.67243e-06 0)
(-1.01071e-06 9.68014e-06 0)
(-1.06437e-06 9.68732e-06 0)
(-1.12523e-06 9.69424e-06 0)
(-1.19454e-06 9.70118e-06 0)
(-1.27383e-06 9.70845e-06 0)
(-1.36505e-06 9.71637e-06 0)
(-1.47068e-06 9.72529e-06 0)
(-1.59399e-06 9.73559e-06 0)
(-1.73933e-06 9.74771e-06 0)
(-1.91256e-06 9.76219e-06 0)
(-2.12174e-06 9.77973e-06 0)
(-2.37802e-06 9.80132e-06 0)
(-2.69381e-06 9.82488e-06 0)
(-1.4523e-06 1.58372e-06 0)
(-5.80443e-09 6.05189e-09 0)
(-3.2697e-08 9.22489e-06 0)
(-9.7028e-08 9.23131e-06 0)
(-1.58835e-07 9.24357e-06 0)
(-2.17416e-07 9.26094e-06 0)
(-2.72263e-07 9.28259e-06 0)
(-3.23073e-07 9.30762e-06 0)
(-3.69737e-07 9.33515e-06 0)
(-4.1233e-07 9.36431e-06 0)
(-4.51078e-07 9.39434e-06 0)
(-4.86335e-07 9.42458e-06 0)
(-5.18542e-07 9.45448e-06 0)
(-5.48202e-07 9.48363e-06 0)
(-5.75845e-07 9.51174e-06 0)
(-6.02008e-07 9.53861e-06 0)
(-6.27219e-07 9.56416e-06 0)
(-6.51985e-07 9.58837e-06 0)
(-6.7679e-07 9.61131e-06 0)
(-7.02095e-07 9.63307e-06 0)
(-7.28342e-07 9.65381e-06 0)
(-7.55967e-07 9.67371e-06 0)
(-7.85401e-07 9.69298e-06 0)
(-8.17085e-07 9.71189e-06 0)
(-8.5148e-07 9.73075e-06 0)
(-8.89072e-07 9.74989e-06 0)
(-9.3039e-07 9.76974e-06 0)
(-9.76013e-07 9.7908e-06 0)
(-1.02659e-06 9.81365e-06 0)
(-1.08287e-06 9.83899e-06 0)
(-1.1457e-06 9.86771e-06 0)
(-1.2161e-06 9.90088e-06 0)
(-1.29525e-06 9.93983e-06 0)
(-1.38459e-06 9.98632e-06 0)
(-1.48581e-06 1.00426e-05 0)
(-1.60098e-06 1.01115e-05 0)
(-1.7325e-06 1.01972e-05 0)
(-1.88319e-06 1.0305e-05 0)
(-2.0562e-06 1.04422e-05 0)
(-2.25033e-06 1.06128e-05 0)
(-1.19403e-06 1.6534e-06 0)
(-5.6411e-09 6.57454e-09 0)
(-2.85456e-08 9.31334e-06 0)
(-8.47875e-08 9.31853e-06 0)
(-1.39049e-07 9.32847e-06 0)
(-1.90832e-07 9.34263e-06 0)
(-2.39777e-07 9.36038e-06 0)
(-2.85667e-07 9.38107e-06 0)
(-3.28422e-07 9.40405e-06 0)
(-3.68091e-07 9.4287e-06 0)
(-4.04831e-07 9.45446e-06 0)
(-4.38889e-07 9.48084e-06 0)
(-4.70578e-07 9.50743e-06 0)
(-5.00258e-07 9.53393e-06 0)
(-5.28314e-07 9.5601e-06 0)
(-5.55143e-07 9.5858e-06 0)
(-5.81139e-07 9.61096e-06 0)
(-6.06687e-07 9.63559e-06 0)
(-6.32158e-07 9.65973e-06 0)
(-6.57906e-07 9.68351e-06 0)
(-6.84268e-07 9.70708e-06 0)
(-7.11568e-07 9.73066e-06 0)
(-7.40117e-07 9.75449e-06 0)
(-7.70216e-07 9.77888e-06 0)
(-8.02154e-07 9.80419e-06 0)
(-8.36217e-07 9.83086e-06 0)
(-8.72679e-07 9.8594e-06 0)
(-9.11802e-07 9.89039e-06 0)
(-9.53832e-07 9.92457e-06 0)
(-9.98989e-07 9.96278e-06 0)
(-1.04745e-06 1.00061e-05 0)
(-1.09932e-06 1.00557e-05 0)
(-1.15459e-06 1.01131e-05 0)
(-1.21307e-06 1.01803e-05 0)
(-1.27432e-06 1.02595e-05 0)
(-1.33742e-06 1.03536e-05 0)
(-1.40083e-06 1.0466e-05 0)
(-1.46199e-06 1.06013e-05 0)
(-1.51683e-06 1.07646e-05 0)
(-1.55486e-06 1.09528e-05 0)
(-8.02724e-07 1.5491e-06 0)
(-7.38174e-09 6.6403e-09 0)
(-2.51362e-08 9.39086e-06 0)
(-7.47166e-08 9.39518e-06 0)
(-1.22712e-07 9.40347e-06 0)
(-1.68764e-07 9.41532e-06 0)
(-2.12616e-07 9.43027e-06 0)
(-2.54109e-07 9.44784e-06 0)
(-2.93183e-07 9.46755e-06 0)
(-3.29867e-07 9.48894e-06 0)
(-3.64269e-07 9.51159e-06 0)
(-3.9656e-07 9.53513e-06 0)
(-4.26962e-07 9.55928e-06 0)
(-4.55729e-07 9.58379e-06 0)
(-4.83137e-07 9.60849e-06 0)
(-5.0947e-07 9.63327e-06 0)
(-5.35013e-07 9.65809e-06 0)
(-5.60041e-07 9.68296e-06 0)
(-5.84819e-07 9.70794e-06 0)
(-6.09592e-07 9.73314e-06 0)
(-6.34586e-07 9.7587e-06 0)
(-6.60006e-07 9.78484e-06 0)
(-6.8603e-07 9.81179e-06 0)
(-7.12807e-07 9.83985e-06 0)
(-7.40457e-07 9.86936e-06 0)
(-7.69056e-07 9.90072e-06 0)
(-7.98638e-07 9.9344e-06 0)
(-8.29172e-07 9.97092e-06 0)
(-8.60554e-07 1.00109e-05 0)
(-8.92582e-07 1.0055e-05 0)
(-9.24921e-07 1.01041e-05 0)
(-9.57071e-07 1.0159e-05 0)
(-9.88307e-07 1.02208e-05 0)
(-1.01761e-06 1.02906e-05 0)
(-1.04359e-06 1.03696e-05 0)
(-1.06434e-06 1.04592e-05 0)
(-1.07736e-06 1.05605e-05 0)
(-1.07933e-06 1.06749e-05 0)
(-1.06599e-06 1.08033e-05 0)
(-1.02889e-06 1.09335e-05 0)
(-5.21262e-07 1.37406e-06 0)
(-9.23244e-09 6.28355e-09 0)
(-2.22603e-08 9.45931e-06 0)
(-6.62069e-08 9.46299e-06 0)
(-1.08859e-07 9.47008e-06 0)
(-1.49956e-07 9.48026e-06 0)
(-1.89308e-07 9.49318e-06 0)
(-2.26797e-07 9.50847e-06 0)
(-2.62375e-07 9.52578e-06 0)
(-2.96055e-07 9.54475e-06 0)
(-3.27909e-07 9.56508e-06 0)
(-3.58054e-07 9.58649e-06 0)
(-3.86641e-07 9.60876e-06 0)
(-4.13847e-07 9.63171e-06 0)
(-4.39861e-07 9.6552e-06 0)
(-4.64881e-07 9.67916e-06 0)
(-4.891e-07 9.70355e-06 0)
(-5.12705e-07 9.72838e-06 0)
(-5.35866e-07 9.75371e-06 0)
(-5.58737e-07 9.77962e-06 0)
(-5.81444e-07 9.80624e-06 0)
(-6.0409e-07 9.83374e-06 0)
(-6.26742e-07 9.86231e-06 0)
(-6.49431e-07 9.89218e-06 0)
(-6.72143e-07 9.92362e-06 0)
(-6.94814e-07 9.95692e-06 0)
(-7.17317e-07 9.99242e-06 0)
(-7.39454e-07 1.00305e-05 0)
(-7.60937e-07 1.00715e-05 0)
(-7.81377e-07 1.01158e-05 0)
(-8.00259e-07 1.01639e-05 0)
(-8.16923e-07 1.02162e-05 0)
(-8.30533e-07 1.0273e-05 0)
(-8.40059e-07 1.03348e-05 0)
(-8.44245e-07 1.04016e-05 0)
(-8.41595e-07 1.04736e-05 0)
(-8.30368e-07 1.05505e-05 0)
(-8.08591e-07 1.06318e-05 0)
(-7.74118e-07 1.07162e-05 0)
(-7.22687e-07 1.07882e-05 0)
(-3.66423e-07 1.24867e-06 0)
(-1.04385e-08 5.84406e-09 0)
(-1.97743e-08 9.52002e-06 0)
(-5.88387e-08 9.52323e-06 0)
(-9.68254e-08 9.52943e-06 0)
(-1.33541e-07 9.53837e-06 0)
(-1.6884e-07 9.54978e-06 0)
(-2.02632e-07 9.56337e-06 0)
(-2.34874e-07 9.57886e-06 0)
(-2.65569e-07 9.596e-06 0)
(-2.94759e-07 9.61454e-06 0)
(-3.22521e-07 9.63428e-06 0)
(-3.48953e-07 9.65503e-06 0)
(-3.74173e-07 9.67667e-06 0)
(-3.98308e-07 9.69908e-06 0)
(-4.21487e-07 9.7222e-06 0)
(-4.43833e-07 9.74599e-06 0)
(-4.65463e-07 9.77047e-06 0)
(-4.86476e-07 9.79565e-06 0)
(-5.06953e-07 9.82161e-06 0)
(-5.2695e-07 9.84843e-06 0)
(-5.46496e-07 9.87621e-06 0)
(-5.65585e-07 9.90509e-06 0)
(-5.84176e-07 9.93522e-06 0)
(-6.02184e-07 9.96675e-06 0)
(-6.19475e-07 9.99987e-06 0)
(-6.35862e-07 1.00347e-05 0)
(-6.51098e-07 1.00716e-05 0)
(-6.64868e-07 1.01105e-05 0)
(-6.76783e-07 1.01516e-05 0)
(-6.86378e-07 1.01951e-05 0)
(-6.93104e-07 1.0241e-05 0)
(-6.9633e-07 1.02892e-05 0)
(-6.95347e-07 1.03397e-05 0)
(-6.89383e-07 1.03921e-05 0)
(-6.77625e-07 1.04459e-05 0)
(-6.59255e-07 1.05005e-05 0)
(-6.3351e-07 1.05549e-05 0)
(-5.99757e-07 1.06077e-05 0)
(-5.5613e-07 1.06432e-05 0)
(-2.86578e-07 1.18643e-06 0)
(-1.10631e-08 5.46869e-09 0)
(-1.75796e-08 9.57396e-06 0)
(-5.23244e-08 9.57682e-06 0)
(-8.6157e-08 9.58235e-06 0)
(-1.18928e-07 9.59035e-06 0)
(-1.50524e-07 9.6006e-06 0)
(-1.80869e-07 9.61287e-06 0)
(-2.09925e-07 9.62695e-06 0)
(-2.37683e-07 9.64264e-06 0)
(-2.64166e-07 9.65974e-06 0)
(-2.89419e-07 9.6781e-06 0)
(-3.13503e-07 9.69756e-06 0)
(-3.36492e-07 9.71803e-06 0)
(-3.58466e-07 9.73939e-06 0)
(-3.79504e-07 9.76161e-06 0)
(-3.99682e-07 9.78463e-06 0)
(-4.19063e-07 9.80845e-06 0)
(-4.377e-07 9.83308e-06 0)
(-4.55625e-07 9.85854e-06 0)
(-4.72852e-07 9.88486e-06 0)
(-4.89366e-07 9.91211e-06 0)
(-5.05127e-07 9.94035e-06 0)
(-5.20063e-07 9.96965e-06 0)
(-5.34068e-07 1.00001e-05 0)
(-5.47001e-07 1.00317e-05 0)
(-5.58681e-07 1.00645e-05 0)
(-5.68888e-07 1.00986e-05 0)
(-5.77365e-07 1.0134e-05 0)
(-5.83814e-07 1.01706e-05 0)
(-5.87904e-07 1.02083e-05 0)
(-5.89274e-07 1.02471e-05 0)
(-5.87549e-07 1.02867e-05 0)
(-5.82345e-07 1.03268e-05 0)
(-5.73298e-07 1.03669e-05 0)
(-5.60084e-07 1.04067e-05 0)
(-5.42453e-07 1.04453e-05 0)
(-5.20264e-07 1.04821e-05 0)
(-4.93531e-07 1.05161e-05 0)
(-4.61356e-07 1.05325e-05 0)
(-2.42955e-07 1.16571e-06 0)
(-1.13082e-08 5.15434e-09 0)
(-1.56089e-08 9.62189e-06 0)
(-4.64683e-08 9.62447e-06 0)
(-7.65442e-08 9.62948e-06 0)
(-1.05717e-07 9.63673e-06 0)
(-1.33892e-07 9.64606e-06 0)
(-1.61007e-07 9.65728e-06 0)
(-1.87021e-07 9.67022e-06 0)
(-2.11919e-07 9.68472e-06 0)
(-2.35709e-07 9.70061e-06 0)
(-2.58412e-07 9.71777e-06 0)
(-2.80064e-07 9.73608e-06 0)
(-3.00708e-07 9.75544e-06 0)
(-3.20391e-07 9.77577e-06 0)
(-3.39159e-07 9.79701e-06 0)
(-3.57053e-07 9.81911e-06 0)
(-3.74109e-07 9.84205e-06 0)
(-3.90347e-07 9.86581e-06 0)
(-4.05775e-07 9.89038e-06 0)
(-4.20386e-07 9.91576e-06 0)
(-4.34149e-07 9.94195e-06 0)
(-4.47017e-07 9.96897e-06 0)
(-4.58919e-07 9.99681e-06 0)
(-4.69759e-07 1.00255e-05 0)
(-4.79421e-07 1.00549e-05 0)
(-4.87765e-07 1.00851e-05 0)
(-4.94632e-07 1.0116e-05 0)
(-4.99841e-07 1.01476e-05 0)
(-5.03204e-07 1.01796e-05 0)
(-5.0452e-07 1.0212e-05 0)
(-5.03594e-07 1.02445e-05 0)
(-5.00238e-07 1.02769e-05 0)
(-4.94293e-07 1.03088e-05 0)
(-4.85633e-07 1.034e-05 0)
(-4.74189e-07 1.037e-05 0)
(-4.59964e-07 1.03984e-05 0)
(-4.43048e-07 1.04246e-05 0)
(-4.23633e-07 1.04482e-05 0)
(-4.01157e-07 1.04554e-05 0)
(-2.15811e-07 1.16928e-06 0)
(-1.13143e-08 4.87245e-09 0)
(-1.38169e-08 9.66439e-06 0)
(-4.1138e-08 9.66674e-06 0)
(-6.77782e-08 9.67132e-06 0)
(-9.36369e-08 9.67797e-06 0)
(-1.18634e-07 9.68654e-06 0)
(-1.42711e-07 9.69688e-06 0)
(-1.65828e-07 9.70885e-06 0)
(-1.87966e-07 9.72232e-06 0)
(-2.09118e-07 9.73715e-06 0)
(-2.29292e-07 9.75324e-06 0)
(-2.48506e-07 9.77047e-06 0)
(-2.66782e-07 9.78877e-06 0)
(-2.84146e-07 9.80806e-06 0)
(-3.00624e-07 9.82827e-06 0)
(-3.1624e-07 9.84936e-06 0)
(-3.31008e-07 9.87127e-06 0)
(-3.44939e-07 9.89397e-06 0)
(-3.58032e-07 9.91743e-06 0)
(-3.70273e-07 9.94162e-06 0)
(-3.81636e-07 9.9665e-06 0)
(-3.92082e-07 9.99203e-06 0)
(-4.01558e-07 1.00182e-05 0)
(-4.09997e-07 1.00449e-05 0)
(-4.17319e-07 1.00721e-05 0)
(-4.23434e-07 1.00996e-05 0)
(-4.28242e-07 1.01275e-05 0)
(-4.31639e-07 1.01556e-05 0)
(-4.33521e-07 1.01837e-05 0)
(-4.33787e-07 1.02116e-05 0)
(-4.32349e-07 1.02391e-05 0)
(-4.29136e-07 1.02661e-05 0)
(-4.24104e-07 1.02923e-05 0)
(-4.17243e-07 1.03173e-05 0)
(-4.08582e-07 1.0341e-05 0)
(-3.98203e-07 1.0363e-05 0)
(-3.86239e-07 1.0383e-05 0)
(-3.72879e-07 1.04009e-05 0)
(-3.57688e-07 1.04037e-05 0)
(-1.96236e-07 1.18826e-06 0)
(-1.11605e-08 4.60356e-09 0)
(-1.21732e-08 9.70192e-06 0)
(-3.62452e-08 9.70409e-06 0)
(-5.97201e-08 9.7083e-06 0)
(-8.25094e-08 9.71443e-06 0)
(-1.04541e-07 9.72235e-06 0)
(-1.25761e-07 9.73193e-06 0)
(-1.46129e-07 9.74305e-06 0)
(-1.65619e-07 9.75559e-06 0)
(-1.84219e-07 9.76946e-06 0)
(-2.01927e-07 9.78455e-06 0)
(-2.18747e-07 9.80076e-06 0)
(-2.3469e-07 9.81803e-06 0)
(-2.49771e-07 9.83627e-06 0)
(-2.64004e-07 9.85543e-06 0)
(-2.77403e-07 9.87545e-06 0)
(-2.89979e-07 9.89626e-06 0)
(-3.01738e-07 9.91783e-06 0)
(-3.12681e-07 9.9401e-06 0)
(-3.22802e-07 9.96301e-06 0)
(-3.32088e-07 9.98652e-06 0)
(-3.40519e-07 1.00105e-05 0)
(-3.48066e-07 1.0035e-05 0)
(-3.54694e-07 1.00599e-05 0)
(-3.60364e-07 1.0085e-05 0)
(-3.65029e-07 1.01103e-05 0)
(-3.68644e-07 1.01356e-05 0)
(-3.71161e-07 1.01609e-05 0)
(-3.72538e-07 1.01859e-05 0)
(-3.72736e-07 1.02104e-05 0)
(-3.71729e-07 1.02344e-05 0)
(-3.69505e-07 1.02576e-05 0)
(-3.6607e-07 1.02798e-05 0)
(-3.61451e-07 1.03008e-05 0)
(-3.55699e-07 1.03204e-05 0)
(-3.48894e-07 1.03385e-05 0)
(-3.41142e-07 1.03549e-05 0)
(-3.32574e-07 1.03695e-05 0)
(-3.22821e-07 1.03705e-05 0)
(-1.80405e-07 1.21894e-06 0)
(-1.08906e-08 4.33667e-09 0)
(-1.06578e-08 9.73489e-06 0)
(-3.17317e-08 9.73689e-06 0)
(-5.22784e-08 9.74078e-06 0)
(-7.22168e-08 9.74645e-06 0)
(-9.14799e-08 9.75378e-06 0)
(-1.10014e-07 9.76267e-06 0)
(-1.2778e-07 9.77302e-06 0)
(-1.44748e-07 9.78472e-06 0)
(-1.60901e-07 9.79767e-06 0)
(-1.76229e-07 9.81181e-06 0)
(-1.9073e-07 9.82704e-06 0)
(-2.04409e-07 9.8433e-06 0)
(-2.17273e-07 9.8605e-06 0)
(-2.29333e-07 9.87861e-06 0)
(-2.406e-07 9.89754e-06 0)
(-2.51085e-07 9.91725e-06 0)
(-2.608e-07 9.93768e-06 0)
(-2.69754e-07 9.95877e-06 0)
(-2.77954e-07 9.98045e-06 0)
(-2.85404e-07 1.00027e-05 0)
(-2.92107e-07 1.00253e-05 0)
(-2.98062e-07 1.00483e-05 0)
(-3.03267e-07 1.00716e-05 0)
(-3.07719e-07 1.00951e-05 0)
(-3.11412e-07 1.01186e-05 0)
(-3.14341e-07 1.0142e-05 0)
(-3.16504e-07 1.01652e-05 0)
(-3.17898e-07 1.0188e-05 0)
(-3.18526e-07 1.02103e-05 0)
(-3.18395e-07 1.02318e-05 0)
(-3.17519e-07 1.02526e-05 0)
(-3.15917e-07 1.02722e-05 0)
(-3.13621e-07 1.02908e-05 0)
(-3.10667e-07 1.0308e-05 0)
(-3.07104e-07 1.03237e-05 0)
(-3.02987e-07 1.0338e-05 0)
(-2.98381e-07 1.03506e-05 0)
(-2.92969e-07 1.0351e-05 0)
(-1.66762e-07 1.26047e-06 0)
(-1.05315e-08 4.06474e-09 0)
(-9.25796e-09 9.76365e-06 0)
(-2.75605e-08 9.7655e-06 0)
(-4.53948e-08 9.76909e-06 0)
(-6.26842e-08 9.77434e-06 0)
(-7.9364e-08 9.78113e-06 0)
(-9.53813e-08 9.78937e-06 0)
(-1.10695e-07 9.79898e-06 0)
(-1.25272e-07 9.80987e-06 0)
(-1.39093e-07 9.82196e-06 0)
(-1.52144e-07 9.83518e-06 0)
(-1.64417e-07 9.84944e-06 0)
(-1.75914e-07 9.8647e-06 0)
(-1.86638e-07 9.88088e-06 0)
(-1.96601e-07 9.89793e-06 0)
(-2.05813e-07 9.9158e-06 0)
(-2.14292e-07 9.93442e-06 0)
(-2.22055e-07 9.95375e-06 0)
(-2.29124e-07 9.97371e-06 0)
(-2.3552e-07 9.99426e-06 0)
(-2.41267e-07 1.00153e-05 0)
(-2.46392e-07 1.00368e-05 0)
(-2.50923e-07 1.00586e-05 0)
(-2.54887e-07 1.00807e-05 0)
(-2.58317e-07 1.01029e-05 0)
(-2.61244e-07 1.01252e-05 0)
(-2.637e-07 1.01474e-05 0)
(-2.65719e-07 1.01693e-05 0)
(-2.67333e-07 1.01908e-05 0)
(-2.68574e-07 1.02118e-05 0)
(-2.69473e-07 1.02321e-05 0)
(-2.70056e-07 1.02516e-05 0)
(-2.70348e-07 1.027e-05 0)
(-2.70369e-07 1.02873e-05 0)
(-2.70133e-07 1.03033e-05 0)
(-2.69651e-07 1.03178e-05 0)
(-2.68928e-07 1.03309e-05 0)
(-2.67962e-07 1.03425e-05 0)
(-2.66483e-07 1.0343e-05 0)
(-1.54682e-07 1.31384e-06 0)
(-1.01019e-08 3.78137e-09 0)
(-7.96584e-09 9.78853e-06 0)
(-2.37089e-08 9.79023e-06 0)
(-3.90344e-08 9.79354e-06 0)
(-5.38673e-08 9.79838e-06 0)
(-6.81436e-08 9.80465e-06 0)
(-8.18098e-08 9.81228e-06 0)
(-9.48225e-08 9.82118e-06 0)
(-1.07148e-07 9.83128e-06 0)
(-1.18761e-07 9.84252e-06 0)
(-1.29644e-07 9.85482e-06 0)
(-1.39788e-07 9.86812e-06 0)
(-1.4919e-07 9.88238e-06 0)
(-1.57853e-07 9.89754e-06 0)
(-1.65786e-07 9.91354e-06 0)
(-1.73005e-07 9.93035e-06 0)
(-1.79529e-07 9.9479e-06 0)
(-1.85385e-07 9.96616e-06 0)
(-1.90604e-07 9.98508e-06 0)
(-1.95223e-07 1.00046e-05 0)