/*--------------------------------*- C++ -*----------------------------------*\
  =========                 |
  \\      /  F ield         | OpenFOAM: The Open Source CFD Toolbox
   \\    /   O peration     | Website:  https://openfoam.org
    \\  /    A nd           | Version:  7
     \\/     M anipulation  |
\*---------------------------------------------------------------------------*/
FoamFile
{
    version     2.0;
    format      ascii;
    class       volVectorField;
    location    "20000";
    object      Ub;
}
// * * * * * * * * * * * * * * * * * * * * * * * * * * * * * * * * * * * * * //

dimensions      [0 1 -1 0 0 0 0];

internalField   nonuniform List<vector> 
3200
(
(-1.0439e-20 -9.87884e-16 0)
(-3.1519e-20 -9.87883e-16 0)
(-5.34128e-20 -9.87882e-16 0)
(-7.70263e-20 -9.8788e-16 0)
(-1.03532e-19 -9.87877e-16 0)
(-1.34616e-19 -9.87872e-16 0)
(-1.729e-19 -9.87865e-16 0)
(-2.2275e-19 -9.87852e-16 0)
(-2.91841e-19 -9.87831e-16 0)
(-3.94353e-19 -9.87794e-16 0)
(-5.57871e-19 -9.87724e-16 0)
(-5.13516e-10 -9.87934e-16 0)
(-3.56342e-05 -2.60057e-07 0)
(-7.88732e-05 -3.30071e-05 0)
(-8.79429e-05 -7.8877e-06 0)
(-9.02058e-05 -3.98312e-06 0)
(-9.15488e-05 -2.43282e-06 0)
(-9.24991e-05 -1.63857e-06 0)
(-9.32257e-05 -1.17498e-06 0)
(-9.38065e-05 -8.80684e-07 0)
(-9.42844e-05 -6.82504e-07 0)
(-9.46862e-05 -5.43406e-07 0)
(-9.50296e-05 -4.42178e-07 0)
(-9.5327e-05 -3.66373e-07 0)
(-9.55875e-05 -3.08411e-07 0)
(-9.58178e-05 -2.63142e-07 0)
(-9.60231e-05 -2.27152e-07 0)
(-9.62072e-05 -1.98301e-07 0)
(-9.57333e-05 -1.68679e-06 0)
(-9.43191e-05 -2.37953e-06 0)
(-9.25996e-05 -2.41901e-06 0)
(-9.08367e-05 -2.50812e-06 0)
(-8.89176e-05 -2.84964e-06 0)
(-8.65863e-05 -3.62151e-06 0)
(-8.34376e-05 -5.07224e-06 0)
(-7.88469e-05 -7.59529e-06 0)
(-7.18442e-05 -1.1827e-05 0)
(-6.0908e-05 -1.88031e-05 0)
(-4.36187e-05 -3.02507e-05 0)
(-1.88798e-05 -4.09693e-05 0)
(-9.61209e-21 -9.87854e-16 0)
(-2.89188e-20 -9.87853e-16 0)
(-4.86354e-20 -9.8785e-16 0)
(-6.92511e-20 -9.87845e-16 0)
(-9.12497e-20 -9.87837e-16 0)
(-1.15062e-19 -9.87825e-16 0)
(-1.40888e-19 -9.87808e-16 0)
(-1.68207e-19 -9.87783e-16 0)
(-1.94496e-19 -9.87743e-16 0)
(-2.12051e-19 -9.8768e-16 0)
(-2.00202e-19 -9.87578e-16 0)
(-1.06495e-19 -9.8741e-16 0)
(1.16924e-19 -9.86863e-16 0)
(2.33526e-19 -9.397e-16 0)
(1.71028e-19 -8.98108e-16 0)
(1.13855e-19 -8.59704e-16 0)
(6.87666e-20 -8.23446e-16 0)
(3.05435e-20 -7.88834e-16 0)
(-4.4916e-21 -7.55574e-16 0)
(-3.91068e-20 -7.23474e-16 0)
(-7.58421e-20 -6.92397e-16 0)
(-1.17594e-19 -6.62243e-16 0)
(-1.68289e-19 -6.32932e-16 0)
(-2.33862e-19 -6.04401e-16 0)
(-3.23882e-19 -5.76595e-16 0)
(-4.54395e-19 -5.49469e-16 0)
(-2.96012e-11 -5.22977e-16 0)
(-2.19317e-05 -1.95874e-10 0)
(-5.32327e-05 -1.51208e-06 0)
(-6.46165e-05 -2.22316e-06 0)
(-6.81322e-05 -2.27736e-06 0)
(-7.09787e-05 -2.3785e-06 0)
(-7.36943e-05 -2.73002e-06 0)
(-7.66541e-05 -3.51035e-06 0)
(-8.03158e-05 -4.96839e-06 0)
(-8.5332e-05 -7.49799e-06 0)
(-9.26894e-05 -1.17358e-05 0)
(-0.00010392 -1.87188e-05 0)
(-9.8837e-05 -9.43341e-05 0)
(-4.7433e-05 -0.000196033 0)
(-8.24573e-21 -9.87829e-16 0)
(-2.46738e-20 -9.87827e-16 0)
(-4.10314e-20 -9.87823e-16 0)
(-5.73774e-20 -9.87816e-16 0)
(-7.36189e-20 -9.87807e-16 0)
(-8.93883e-20 -9.87794e-16 0)
(-1.03829e-19 -9.87776e-16 0)
(-1.1524e-19 -9.87752e-16 0)
(-1.20567e-19 -9.87721e-16 0)
(-1.14839e-19 -9.87682e-16 0)
(-9.12116e-20 -9.87637e-16 0)
(-4.38623e-20 -9.87598e-16 0)
(1.94223e-20 -9.87595e-16 0)
(6.06659e-20 -9.87667e-16 0)
(6.48104e-20 -9.87719e-16 0)
(5.22627e-20 -9.87751e-16 0)
(3.3259e-20 -9.87772e-16 0)
(1.18774e-20 -9.87783e-16 0)
(-1.03691e-20 -9.87788e-16 0)
(-3.29605e-20 -9.87788e-16 0)
(-5.56239e-20 -9.87781e-16 0)
(-7.78373e-20 -9.87768e-16 0)
(-9.8247e-20 -9.87747e-16 0)
(-1.13672e-19 -9.87713e-16 0)
(-1.17198e-19 -9.87662e-16 0)
(-9.44488e-20 -9.87585e-16 0)
(-1.63199e-20 -9.8747e-16 0)
(1.3808e-19 -9.87226e-16 0)
(2.17287e-19 -9.61348e-16 0)
(1.75001e-19 -9.3694e-16 0)
(1.30506e-19 -9.13753e-16 0)
(9.46782e-20 -8.91273e-16 0)
(6.42728e-20 -8.6927e-16 0)
(3.67561e-20 -8.47566e-16 0)
(1.01153e-20 -8.25955e-16 0)
(-1.75433e-20 -8.04153e-16 0)
(-1.34705e-13 -7.81752e-16 0)
(-1.224e-06 -9.22671e-10 0)
(-2.54109e-05 -6.75396e-05 0)
(-2.23908e-05 -0.000385794 0)
(-6.70399e-21 -9.87807e-16 0)
(-1.99493e-20 -9.87805e-16 0)
(-3.28026e-20 -9.87801e-16 0)
(-4.50781e-20 -9.87795e-16 0)
(-5.64509e-20 -9.87786e-16 0)
(-6.63843e-20 -9.87774e-16 0)
(-7.40474e-20 -9.8776e-16 0)
(-7.82483e-20 -9.87743e-16 0)
(-7.74471e-20 -9.87723e-16 0)
(-6.99922e-20 -9.87702e-16 0)
(-5.48196e-20 -9.87684e-16 0)
(-3.28762e-20 -9.87672e-16 0)
(-9.0024e-21 -9.87675e-16 0)
(8.56091e-21 -9.87693e-16 0)
(1.56853e-20 -9.87714e-16 0)
(1.4437e-20 -9.87731e-16 0)
(7.76031e-21 -9.87743e-16 0)
(-2.0326e-21 -9.87751e-16 0)
(-1.33157e-20 -9.87754e-16 0)
(-2.48811e-20 -9.87753e-16 0)
(-3.56522e-20 -9.87748e-16 0)
(-4.4428e-20 -9.87738e-16 0)
(-4.96635e-20 -9.87723e-16 0)
(-4.9311e-20 -9.87704e-16 0)
(-4.08422e-20 -9.87682e-16 0)
(-2.17783e-20 -9.87659e-16 0)
(8.50031e-21 -9.87643e-16 0)
(4.39548e-20 -9.8765e-16 0)
(6.70932e-20 -9.87696e-16 0)
(7.09619e-20 -9.87732e-16 0)
(6.43925e-20 -9.87757e-16 0)
(5.31246e-20 -9.87774e-16 0)
(4.00206e-20 -9.87785e-16 0)
(2.65934e-20 -9.87791e-16 0)
(1.38453e-20 -9.87794e-16 0)
(2.79589e-21 -9.87793e-16 0)
(-5.27385e-21 -9.87787e-16 0)
(-1.61581e-10 -1.03753e-15 0)
(-6.99801e-07 -5.86397e-06 0)
(-4.1243e-07 -0.000464366 0)
(-5.25776e-21 -9.8779e-16 0)
(-1.55734e-20 -9.87788e-16 0)
(-2.53729e-20 -9.87784e-16 0)
(-3.43945e-20 -9.87779e-16 0)
(-4.23037e-20 -9.87772e-16 0)
(-4.86705e-20 -9.87763e-16 0)
(-5.29663e-20 -9.87753e-16 0)
(-5.45995e-20 -9.87741e-16 0)
(-5.30176e-20 -9.87729e-16 0)
(-4.79075e-20 -9.87718e-16 0)
(-3.95006e-20 -9.87709e-16 0)
(-2.8901e-20 -9.87704e-16 0)
(-1.81731e-20 -9.87705e-16 0)
(-9.72763e-21 -9.8771e-16 0)
(-4.9839e-21 -9.87718e-16 0)
(-3.92225e-21 -9.87726e-16 0)
(-5.78022e-21 -9.87732e-16 0)
(-9.5842e-21 -9.87736e-16 0)
(-1.43797e-20 -9.87738e-16 0)
(-1.92841e-20 -9.87737e-16 0)
(-2.34671e-20 -9.87734e-16 0)
(-2.61207e-20 -9.87728e-16 0)
(-2.64598e-20 -9.87721e-16 0)
(-2.37866e-20 -9.87713e-16 0)
(-1.76579e-20 -9.87705e-16 0)
(-8.1854e-21 -9.877e-16 0)
(3.55824e-21 -9.87699e-16 0)
(1.52405e-20 -9.87704e-16 0)
(2.38095e-20 -9.87716e-16 0)
(2.77137e-20 -9.8773e-16 0)
(2.75096e-20 -9.87742e-16 0)
(2.43528e-20 -9.87752e-16 0)
(1.93418e-20 -9.8776e-16 0)
(1.33659e-20 -9.87766e-16 0)
(7.11398e-21 -9.8777e-16 0)
(1.10454e-21 -9.87771e-16 0)
(-4.48723e-21 -9.87772e-16 0)
(-9.8987e-11 -1.03919e-15 0)
(-3.32843e-07 -5.02426e-06 0)
(-2.34705e-07 -0.000468772 0)
(-4.04131e-21 -9.87776e-16 0)
(-1.19313e-20 -9.87775e-16 0)
(-1.93167e-20 -9.87772e-16 0)
(-2.59515e-20 -9.87768e-16 0)
(-3.15714e-20 -9.87762e-16 0)
(-3.58943e-20 -9.87756e-16 0)
(-3.86387e-20 -9.87749e-16 0)
(-3.9564e-20 -9.87741e-16 0)
(-3.85378e-20 -9.87733e-16 0)
(-3.56239e-20 -9.87727e-16 0)
(-3.11688e-20 -9.87722e-16 0)
(-2.58373e-20 -9.87719e-16 0)
(-2.05279e-20 -9.87718e-16 0)
(-1.61294e-20 -9.8772e-16 0)
(-1.32121e-20 -9.87723e-16 0)
(-1.1905e-20 -9.87726e-16 0)
(-1.19979e-20 -9.87728e-16 0)
(-1.30898e-20 -9.8773e-16 0)
(-1.47018e-20 -9.87731e-16 0)
(-1.63431e-20 -9.8773e-16 0)
(-1.75498e-20 -9.87729e-16 0)
(-1.79129e-20 -9.87726e-16 0)
(-1.71134e-20 -9.87724e-16 0)
(-1.49705e-20 -9.87721e-16 0)
(-1.15041e-20 -9.87718e-16 0)
(-6.99625e-21 -9.87718e-16 0)
(-2.01512e-21 -9.87719e-16 0)
(2.65465e-21 -9.87722e-16 0)
(6.2308e-21 -9.87727e-16 0)
(8.24352e-21 -9.87733e-16 0)
(8.63752e-21 -9.87739e-16 0)
(7.62487e-21 -9.87745e-16 0)
(5.53096e-21 -9.8775e-16 0)
(2.69611e-21 -9.87754e-16 0)
(-5.77314e-22 -9.87757e-16 0)
(-4.05221e-21 -9.87759e-16 0)
(-7.83994e-21 -9.8776e-16 0)
(-1.14211e-10 -1.04853e-15 0)
(-3.08011e-07 -5.2117e-06 0)
(-2.18161e-07 -0.000471382 0)
(-3.08504e-21 -9.87766e-16 0)
(-9.09114e-21 -9.87765e-16 0)
(-1.46679e-20 -9.87763e-16 0)
(-1.96173e-20 -9.8776e-16 0)
(-2.37518e-20 -9.87756e-16 0)
(-2.69014e-20 -9.87751e-16 0)
(-2.89288e-20 -9.87746e-16 0)
(-2.9754e-20 -9.87741e-16 0)
(-2.93843e-20 -9.87736e-16 0)
(-2.7943e-20 -9.87732e-16 0)
(-2.56829e-20 -9.87728e-16 0)
(-2.29699e-20 -9.87726e-16 0)
(-2.02246e-20 -9.87725e-16 0)
(-1.78309e-20 -9.87725e-16 0)
(-1.60458e-20 -9.87726e-16 0)
(-1.49593e-20 -9.87727e-16 0)
(-1.45109e-20 -9.87728e-16 0)
(-1.45353e-20 -9.87729e-16 0)
(-1.48101e-20 -9.87729e-16 0)
(-1.50964e-20 -9.87729e-16 0)
(-1.51702e-20 -9.87728e-16 0)
(-1.48495e-20 -9.87727e-16 0)
(-1.40164e-20 -9.87726e-16 0)
(-1.26376e-20 -9.87726e-16 0)
(-1.07782e-20 -9.87725e-16 0)
(-8.60391e-21 -9.87726e-16 0)
(-6.36234e-21 -9.87727e-16 0)
(-4.33886e-21 -9.87729e-16 0)
(-2.79184e-21 -9.87732e-16 0)
(-1.89086e-21 -9.87735e-16 0)
(-1.69272e-21 -9.87739e-16 0)
(-2.15947e-21 -9.87742e-16 0)
(-3.19282e-21 -9.87745e-16 0)
(-4.66715e-21 -9.87748e-16 0)
(-6.45463e-21 -9.8775e-16 0)
(-8.44146e-21 -9.87751e-16 0)
(-1.09178e-20 -9.87753e-16 0)
(-1.31794e-10 -1.05666e-15 0)
(-3.05706e-07 -5.52347e-06 0)
(-2.14536e-07 -0.000473887 0)
(-2.36354e-21 -9.87758e-16 0)
(-6.96056e-21 -9.87757e-16 0)
(-1.12188e-20 -9.87756e-16 0)
(-1.49906e-20 -9.87753e-16 0)
(-1.81489e-20 -9.8775e-16 0)
(-2.05932e-20 -9.87747e-16 0)
(-2.2259e-20 -9.87744e-16 0)
(-2.31286e-20 -9.8774e-16 0)
(-2.32418e-20 -9.87737e-16 0)
(-2.27007e-20 -9.87734e-16 0)
(-2.16661e-20 -9.87731e-16 0)
(-2.03398e-20 -9.8773e-16 0)
(-1.89339e-20 -9.87729e-16 0)
(-1.76345e-20 -9.87728e-16 0)
(-1.657e-20 -9.87728e-16 0)
(-1.57967e-20 -9.87728e-16 0)
(-1.53025e-20 -9.87728e-16 0)
(-1.50229e-20 -9.87729e-16 0)
(-1.48622e-20 -9.87729e-16 0)
(-1.47144e-20 -9.87729e-16 0)
(-1.44817e-20 -9.87728e-16 0)
(-1.40895e-20 -9.87728e-16 0)
(-1.34974e-20 -9.87728e-16 0)
(-1.27065e-20 -9.87728e-16 0)
(-1.17603e-20 -9.87729e-16 0)
(-1.07394e-20 -9.87729e-16 0)
(-9.74869e-21 -9.87731e-16 0)
(-8.89877e-21 -9.87732e-16 0)
(-8.28513e-21 -9.87734e-16 0)
(-7.97161e-21 -9.87736e-16 0)
(-7.98322e-21 -9.87738e-16 0)
(-8.30879e-21 -9.8774e-16 0)
(-8.9098e-21 -9.87742e-16 0)
(-9.7312e-21 -9.87744e-16 0)
(-1.07113e-20 -9.87746e-16 0)
(-1.17897e-20 -9.87747e-16 0)
(-1.34108e-20 -9.87748e-16 0)
(-1.52606e-10 -1.06565e-15 0)
(-3.04384e-07 -5.91354e-06 0)
(-2.10245e-07 -0.000476388 0)
(-1.83147e-21 -9.87752e-16 0)
(-5.39518e-21 -9.87752e-16 0)
(-8.70253e-21 -9.8775e-16 0)
(-1.16475e-20 -9.87749e-16 0)
(-1.4145e-20 -9.87747e-16 0)
(-1.6135e-20 -9.87744e-16 0)
(-1.75867e-20 -9.87742e-16 0)
(-1.85025e-20 -9.87739e-16 0)
(-1.89202e-20 -9.87737e-16 0)
(-1.89113e-20 -9.87735e-16 0)
(-1.85746e-20 -9.87733e-16 0)
(-1.80243e-20 -9.87732e-16 0)
(-1.73753e-20 -9.8773e-16 0)
(-1.67269e-20 -9.8773e-16 0)
(-1.61502e-20 -9.87729e-16 0)
(-1.56833e-20 -9.87729e-16 0)
(-1.53315e-20 -9.87729e-16 0)
(-1.50749e-20 -9.87729e-16 0)
(-1.48775e-20 -9.87729e-16 0)
(-1.46976e-20 -9.87729e-16 0)
(-1.44969e-20 -9.87729e-16 0)
(-1.42483e-20 -9.87729e-16 0)
(-1.39402e-20 -9.87729e-16 0)
(-1.35793e-20 -9.8773e-16 0)
(-1.31894e-20 -9.8773e-16 0)
(-1.28071e-20 -9.87731e-16 0)
(-1.2476e-20 -9.87732e-16 0)
(-1.22385e-20 -9.87733e-16 0)
(-1.21286e-20 -9.87734e-16 0)
(-1.21663e-20 -9.87736e-16 0)
(-1.23544e-20 -9.87738e-16 0)
(-1.26794e-20 -9.87739e-16 0)
(-1.31141e-20 -9.87741e-16 0)
(-1.3621e-20 -9.87742e-16 0)
(-1.41571e-20 -9.87744e-16 0)
(-1.46784e-20 -9.87745e-16 0)
(-1.57879e-20 -9.87746e-16 0)
(-1.81433e-10 -1.07719e-15 0)
(-3.02106e-07 -6.41123e-06 0)
(-2.03406e-07 -0.000478894 0)
(-1.44284e-21 -9.87747e-16 0)
(-4.25421e-21 -9.87747e-16 0)
(-6.87552e-21 -9.87746e-16 0)
(-9.23206e-21 -9.87745e-16 0)
(-1.12668e-20 -9.87743e-16 0)
(-1.29424e-20 -9.87742e-16 0)
(-1.42433e-20 -9.8774e-16 0)
(-1.51761e-20 -9.87738e-16 0)
(-1.57693e-20 -9.87736e-16 0)
(-1.60699e-20 -9.87735e-16 0)
(-1.61387e-20 -9.87733e-16 0)
(-1.60432e-20 -9.87732e-16 0)
(-1.58496e-20 -9.87731e-16 0)
(-1.56157e-20 -9.87731e-16 0)
(-1.53854e-20 -9.8773e-16 0)
(-1.51864e-20 -9.8773e-16 0)
(-1.50307e-20 -9.87729e-16 0)
(-1.49177e-20 -9.87729e-16 0)
(-1.48386e-20 -9.87729e-16 0)
(-1.4781e-20 -9.87729e-16 0)
(-1.47338e-20 -9.87729e-16 0)
(-1.46903e-20 -9.87729e-16 0)
(-1.465e-20 -9.8773e-16 0)
(-1.46199e-20 -9.8773e-16 0)
(-1.46127e-20 -9.87731e-16 0)
(-1.46454e-20 -9.87731e-16 0)
(-1.47356e-20 -9.87732e-16 0)
(-1.48983e-20 -9.87733e-16 0)
(-1.51427e-20 -9.87734e-16 0)
(-1.54694e-20 -9.87735e-16 0)
(-1.5869e-20 -9.87737e-16 0)
(-1.63215e-20 -9.87738e-16 0)
(-1.67963e-20 -9.8774e-16 0)
(-1.72535e-20 -9.87741e-16 0)
(-1.76445e-20 -9.87743e-16 0)
(-1.79145e-20 -9.87744e-16 0)
(-1.88801e-20 -9.87745e-16 0)
(-2.31775e-10 -1.09415e-15 0)
(-2.98335e-07 -7.11225e-06 0)
(-1.92823e-07 -0.000481411 0)
(-1.15891e-21 -9.87744e-16 0)
(-3.42138e-21 -9.87743e-16 0)
(-5.54383e-21 -9.87743e-16 0)
(-7.4741e-21 -9.87742e-16 0)
(-9.17346e-21 -9.87741e-16 0)
(-1.06179e-20 -9.87739e-16 0)
(-1.17985e-20 -9.87738e-16 0)
(-1.27215e-20 -9.87737e-16 0)
(-1.34062e-20 -9.87736e-16 0)
(-1.38834e-20 -9.87734e-16 0)
(-1.4191e-20 -9.87733e-16 0)
(-1.43707e-20 -9.87732e-16 0)
(-1.44632e-20 -9.87731e-16 0)
(-1.4505e-20 -9.87731e-16 0)
(-1.45257e-20 -9.8773e-16 0)
(-1.45466e-20 -9.8773e-16 0)
(-1.45817e-20 -9.8773e-16 0)
(-1.46383e-20 -9.87729e-16 0)
(-1.47194e-20 -9.87729e-16 0)
(-1.4826e-20 -9.87729e-16 0)
(-1.4959e-20 -9.87729e-16 0)
(-1.51208e-20 -9.87729e-16 0)
(-1.53163e-20 -9.8773e-16 0)
(-1.55527e-20 -9.8773e-16 0)
(-1.58392e-20 -9.8773e-16 0)
(-1.61857e-20 -9.87731e-16 0)
(-1.66016e-20 -9.87731e-16 0)
(-1.70934e-20 -9.87732e-16 0)
(-1.76637e-20 -9.87733e-16 0)
(-1.8309e-20 -9.87734e-16 0)
(-1.90187e-20 -9.87735e-16 0)
(-1.97732e-20 -9.87737e-16 0)
(-2.05424e-20 -9.87738e-16 0)
(-2.1284e-20 -9.8774e-16 0)
(-2.19403e-20 -9.87741e-16 0)
(-2.24358e-20 -9.87743e-16 0)
(-2.4016e-20 -9.87745e-16 0)
(-3.45243e-10 -1.12513e-15 0)
(-2.92014e-07 -8.291e-06 0)
(-1.76065e-07 -0.000483942 0)
(-9.49853e-22 -9.87741e-16 0)
(-2.8081e-21 -9.8774e-16 0)
(-4.5629e-21 -9.8774e-16 0)
(-6.17787e-21 -9.87739e-16 0)
(-7.62645e-21 -9.87738e-16 0)
(-8.89257e-21 -9.87738e-16 0)
(-9.9707e-21 -9.87737e-16 0)
(-1.08652e-20 -9.87735e-16 0)
(-1.15893e-20 -9.87734e-16 0)
(-1.21627e-20 -9.87734e-16 0)
(-1.26102e-20 -9.87733e-16 0)
(-1.29584e-20 -9.87732e-16 0)
(-1.32341e-20 -9.87731e-16 0)
(-1.34619e-20 -9.87731e-16 0)
(-1.3663e-20 -9.8773e-16 0)
(-1.38546e-20 -9.8773e-16 0)
(-1.40504e-20 -9.87729e-16 0)
(-1.42604e-20 -9.87729e-16 0)
(-1.44927e-20 -9.87729e-16 0)
(-1.47538e-20 -9.87729e-16 0)
(-1.50504e-20 -9.87729e-16 0)
(-1.53892e-20 -9.87729e-16 0)
(-1.57782e-20 -9.87729e-16 0)
(-1.62264e-20 -9.87729e-16 0)
(-1.67436e-20 -9.87729e-16 0)
(-1.73399e-20 -9.8773e-16 0)
(-1.80254e-20 -9.8773e-16 0)
(-1.88096e-20 -9.87731e-16 0)
(-1.97002e-20 -9.87731e-16 0)
(-2.07027e-20 -9.87732e-16 0)
(-2.18196e-20 -9.87733e-16 0)
(-2.30493e-20 -9.87734e-16 0)
(-2.43843e-20 -9.87735e-16 0)
(-2.58087e-20 -9.87737e-16 0)
(-2.72944e-20 -9.87738e-16 0)
(-2.87939e-20 -9.87741e-16 0)
(-3.27066e-20 -9.87743e-16 0)
(-6.44599e-10 -1.19464e-15 0)
(-2.81247e-07 -1.06057e-05 0)
(-1.49148e-07 -0.000486494 0)
(-7.93748e-22 -9.87738e-16 0)
(-2.34985e-21 -9.87738e-16 0)
(-3.82877e-21 -9.87738e-16 0)
(-5.20511e-21 -9.87737e-16 0)
(-6.46049e-21 -9.87736e-16 0)
(-7.58386e-21 -9.87736e-16 0)
(-8.5715e-21 -9.87735e-16 0)
(-9.42636e-21 -9.87734e-16 0)
(-1.01572e-20 -9.87733e-16 0)
(-1.07772e-20 -9.87733e-16 0)
(-1.13029e-20 -9.87732e-16 0)
(-1.17522e-20 -9.87731e-16 0)
(-1.21434e-20 -9.87731e-16 0)
(-1.2494e-20 -9.8773e-16 0)
(-1.282e-20 -9.8773e-16 0)
(-1.31356e-20 -9.87729e-16 0)
(-1.34529e-20 -9.87729e-16 0)
(-1.37825e-20 -9.87729e-16 0)
(-1.4134e-20 -9.87728e-16 0)
(-1.45162e-20 -9.87728e-16 0)
(-1.49377e-20 -9.87728e-16 0)
(-1.54078e-20 -9.87728e-16 0)
(-1.59362e-20 -9.87728e-16 0)
(-1.65334e-20 -9.87728e-16 0)
(-1.72113e-20 -9.87728e-16 0)
(-1.79828e-20 -9.87728e-16 0)
(-1.8862e-20 -9.87728e-16 0)
(-1.9865e-20 -9.87728e-16 0)
(-2.10097e-20 -9.87729e-16 0)
(-2.23168e-20 -9.87729e-16 0)
(-2.3811e-20 -9.8773e-16 0)
(-2.55217e-20 -9.8773e-16 0)
(-2.74857e-20 -9.87731e-16 0)
(-2.97488e-20 -9.87732e-16 0)
(-3.23693e-20 -9.87733e-16 0)
(-3.54219e-20 -9.87734e-16 0)
(-4.43097e-20 -9.87736e-16 0)
(-1.41514e-09 -1.36303e-15 0)
(-2.6594e-07 -1.49542e-05 0)
(-1.11668e-07 -0.000489072 0)
(-6.74947e-22 -9.87736e-16 0)
(-2.00068e-21 -9.87736e-16 0)
(-3.26802e-21 -9.87736e-16 0)
(-4.45917e-21 -9.87735e-16 0)
(-5.56129e-21 -9.87735e-16 0)
(-6.5667e-21 -9.87734e-16 0)
(-7.47274e-21 -9.87734e-16 0)
(-8.28139e-21 -9.87733e-16 0)
(-8.99856e-21 -9.87732e-16 0)
(-9.63327e-21 -9.87732e-16 0)
(-1.01968e-20 -9.87731e-16 0)
(-1.07016e-20 -9.8773e-16 0)
(-1.11608e-20 -9.8773e-16 0)
(-1.15872e-20 -9.87729e-16 0)
(-1.19931e-20 -9.87729e-16 0)
(-1.239e-20 -9.87729e-16 0)
(-1.27883e-20 -9.87728e-16 0)
(-1.31978e-20 -9.87728e-16 0)
(-1.36279e-20 -9.87727e-16 0)
(-1.40873e-20 -9.87727e-16 0)
(-1.45851e-20 -9.87727e-16 0)
(-1.51307e-20 -9.87727e-16 0)
(-1.57338e-20 -9.87727e-16 0)
(-1.64054e-20 -9.87726e-16 0)
(-1.71574e-20 -9.87726e-16 0)
(-1.80035e-20 -9.87726e-16 0)
(-1.89594e-20 -9.87726e-16 0)
(-2.00435e-20 -9.87726e-16 0)
(-2.12781e-20 -9.87726e-16 0)
(-2.26905e-20 -9.87726e-16 0)
(-2.43153e-20 -9.87725e-16 0)
(-2.61969e-20 -9.87725e-16 0)
(-2.83934e-20 -9.87725e-16 0)
(-3.09823e-20 -9.87725e-16 0)
(-3.40681e-20 -9.87725e-16 0)
(-3.77941e-20 -9.87724e-16 0)
(-5.36144e-20 -9.87724e-16 0)
(-2.84453e-09 -1.71328e-15 0)
(-2.55068e-07 -2.1137e-05 0)
(-8.01582e-08 -0.000491683 0)
(-5.82424e-22 -9.87734e-16 0)
(-1.72834e-21 -9.87734e-16 0)
(-2.8293e-21 -9.87734e-16 0)
(-3.87279e-21 -9.87734e-16 0)
(-4.84977e-21 -9.87733e-16 0)
(-5.75483e-21 -9.87733e-16 0)
(-6.58605e-21 -9.87732e-16 0)
(-7.34474e-21 -9.87732e-16 0)
(-8.03496e-21 -9.87731e-16 0)
(-8.66298e-21 -9.87731e-16 0)
(-9.23669e-21 -9.8773e-16 0)
(-9.76501e-21 -9.8773e-16 0)
(-1.02574e-20 -9.87729e-16 0)
(-1.07234e-20 -9.87729e-16 0)
(-1.11725e-20 -9.87728e-16 0)
(-1.16137e-20 -9.87728e-16 0)
(-1.20555e-20 -9.87727e-16 0)
(-1.25063e-20 -9.87727e-16 0)
(-1.29738e-20 -9.87727e-16 0)
(-1.34659e-20 -9.87726e-16 0)
(-1.39902e-20 -9.87726e-16 0)
(-1.45546e-20 -9.87726e-16 0)
(-1.51672e-20 -9.87725e-16 0)
(-1.58369e-20 -9.87725e-16 0)
(-1.65728e-20 -9.87724e-16 0)
(-1.73855e-20 -9.87724e-16 0)
(-1.82865e-20 -9.87724e-16 0)
(-1.92889e-20 -9.87723e-16 0)
(-2.04082e-20 -9.87723e-16 0)
(-2.16621e-20 -9.87722e-16 0)
(-2.3072e-20 -9.87721e-16 0)
(-2.46634e-20 -9.87721e-16 0)
(-2.64665e-20 -9.8772e-16 0)
(-2.85179e-20 -9.87718e-16 0)
(-3.08607e-20 -9.87717e-16 0)
(-3.35449e-20 -9.87715e-16 0)
(-5.5184e-20 -9.87713e-16 0)
(-3.93837e-09 -2.22672e-15 0)
(-2.61862e-07 -2.70812e-05 0)
(-8.05899e-08 -0.000494342 0)
(-5.08476e-22 -9.87733e-16 0)
(-1.5103e-21 -9.87733e-16 0)
(-2.47685e-21 -9.87732e-16 0)
(-3.39925e-21 -9.87732e-16 0)
(-4.2711e-21 -9.87732e-16 0)
(-5.08852e-21 -9.87731e-16 0)
(-5.85011e-21 -9.87731e-16 0)
(-6.55672e-21 -9.87731e-16 0)
(-7.21117e-21 -9.8773e-16 0)
(-7.81783e-21 -9.8773e-16 0)
(-8.38231e-21 -9.87729e-16 0)
(-8.91099e-21 -9.87729e-16 0)
(-9.41075e-21 -9.87728e-16 0)
(-9.88865e-21 -9.87728e-16 0)
(-1.03517e-20 -9.87727e-16 0)
(-1.08068e-20 -9.87727e-16 0)
(-1.12605e-20 -9.87726e-16 0)
(-1.17191e-20 -9.87726e-16 0)
(-1.21887e-20 -9.87726e-16 0)
(-1.2675e-20 -9.87725e-16 0)
(-1.31836e-20 -9.87725e-16 0)
(-1.37197e-20 -9.87724e-16 0)
(-1.42886e-20 -9.87724e-16 0)
(-1.48954e-20 -9.87723e-16 0)
(-1.55449e-20 -9.87723e-16 0)
(-1.62417e-20 -9.87722e-16 0)
(-1.69904e-20 -9.87722e-16 0)
(-1.77948e-20 -9.87721e-16 0)
(-1.8658e-20 -9.8772e-16 0)
(-1.95819e-20 -9.87719e-16 0)
(-2.05664e-20 -9.87718e-16 0)
(-2.16082e-20 -9.87717e-16 0)
(-2.26991e-20 -9.87716e-16 0)
(-2.38232e-20 -9.87714e-16 0)
(-2.49527e-20 -9.87712e-16 0)
(-2.60421e-20 -9.8771e-16 0)
(-4.82151e-20 -9.87707e-16 0)
(-3.61272e-09 -2.71751e-15 0)
(-2.83046e-07 -3.09296e-05 0)
(-1.09183e-07 -0.000497074 0)
(-4.47745e-22 -9.87731e-16 0)
(-1.33091e-21 -9.87731e-16 0)
(-2.18583e-21 -9.87731e-16 0)
(-3.00617e-21 -9.87731e-16 0)
(-3.78729e-21 -9.87731e-16 0)
(-4.5264e-21 -9.8773e-16 0)
(-5.2224e-21 -9.8773e-16 0)
(-5.87585e-21 -9.87729e-16 0)
(-6.48864e-21 -9.87729e-16 0)
(-7.06385e-21 -9.87729e-16 0)
(-7.60539e-21 -9.87728e-16 0)
(-8.11781e-21 -9.87728e-16 0)
(-8.60602e-21 -9.87727e-16 0)
(-9.07509e-21 -9.87727e-16 0)
(-9.53007e-21 -9.87726e-16 0)
(-9.9759e-21 -9.87726e-16 0)
(-1.04173e-20 -9.87726e-16 0)
(-1.08585e-20 -9.87725e-16 0)
(-1.13038e-20 -9.87725e-16 0)
(-1.17566e-20 -9.87724e-16 0)
(-1.22201e-20 -9.87724e-16 0)
(-1.26971e-20 -9.87723e-16 0)
(-1.31896e-20 -9.87723e-16 0)
(-1.3699e-20 -9.87722e-16 0)
(-1.4226e-20 -9.87722e-16 0)
(-1.47699e-20 -9.87721e-16 0)
(-1.53289e-20 -9.8772e-16 0)
(-1.58994e-20 -9.87719e-16 0)
(-1.64754e-20 -9.87719e-16 0)
(-1.70481e-20 -9.87718e-16 0)
(-1.76045e-20 -9.87716e-16 0)
(-1.81265e-20 -9.87715e-16 0)
(-1.85892e-20 -9.87714e-16 0)
(-1.8959e-20 -9.87712e-16 0)
(-1.91908e-20 -9.8771e-16 0)
(-1.92259e-20 -9.87708e-16 0)
(-3.74571e-20 -9.87706e-16 0)
(-2.67104e-09 -3.01875e-15 0)
(-3.06406e-07 -3.26547e-05 0)
(-1.41526e-07 -0.000499894 0)
(-3.96519e-22 -9.8773e-16 0)
(-1.17933e-21 -9.8773e-16 0)
(-1.93907e-21 -9.8773e-16 0)
(-2.67113e-21 -9.8773e-16 0)
(-3.37211e-21 -9.87729e-16 0)
(-4.03989e-21 -9.87729e-16 0)
(-4.67362e-21 -9.87729e-16 0)
(-5.27357e-21 -9.87728e-16 0)
(-5.84098e-21 -9.87728e-16 0)
(-6.37795e-21 -9.87728e-16 0)
(-6.88716e-21 -9.87727e-16 0)
(-7.37176e-21 -9.87727e-16 0)
(-7.83515e-21 -9.87727e-16 0)
(-8.28082e-21 -9.87726e-16 0)
(-8.71224e-21 -9.87726e-16 0)
(-9.13271e-21 -9.87725e-16 0)
(-9.54528e-21 -9.87725e-16 0)
(-9.95266e-21 -9.87724e-16 0)
(-1.03571e-20 -9.87724e-16 0)
(-1.07605e-20 -9.87723e-16 0)
(-1.1164e-20 -9.87723e-16 0)
(-1.15682e-20 -9.87722e-16 0)
(-1.19727e-20 -9.87722e-16 0)
(-1.23766e-20 -9.87721e-16 0)
(-1.27774e-20 -9.87721e-16 0)
(-1.31717e-20 -9.8772e-16 0)
(-1.35544e-20 -9.87719e-16 0)
(-1.39185e-20 -9.87718e-16 0)
(-1.42549e-20 -9.87717e-16 0)
(-1.45517e-20 -9.87717e-16 0)
(-1.47941e-20 -9.87716e-16 0)
(-1.49638e-20 -9.87714e-16 0)
(-1.50384e-20 -9.87713e-16 0)
(-1.49912e-20 -9.87712e-16 0)
(-1.47912e-20 -9.87711e-16 0)
(-1.44033e-20 -9.87709e-16 0)
(-2.82488e-20 -9.87708e-16 0)
(-1.92981e-09 -3.12159e-15 0)
(-3.27239e-07 -3.30478e-05 0)
(-1.66042e-07 -0.000502815 0)
(-3.52236e-22 -9.87729e-16 0)
(-1.04808e-21 -9.87729e-16 0)
(-1.72473e-21 -9.87729e-16 0)
(-2.37873e-21 -9.87729e-16 0)
(-3.00752e-21 -9.87728e-16 0)
(-3.60945e-21 -9.87728e-16 0)
(-4.18377e-21 -9.87728e-16 0)
(-4.73053e-21 -9.87728e-16 0)
(-5.25049e-21 -9.87727e-16 0)
(-5.74499e-21 -9.87727e-16 0)
(-6.21583e-21 -9.87727e-16 0)
(-6.66507e-21 -9.87726e-16 0)
(-7.09498e-21 -9.87726e-16 0)
(-7.50785e-21 -9.87725e-16 0)
(-7.90591e-21 -9.87725e-16 0)
(-8.29119e-21 -9.87724e-16 0)
(-8.66549e-21 -9.87724e-16 0)
(-9.03024e-21 -9.87724e-16 0)
(-9.38645e-21 -9.87723e-16 0)
(-9.73462e-21 -9.87723e-16 0)
(-1.00747e-20 -9.87722e-16 0)
(-1.04058e-20 -9.87722e-16 0)
(-1.07266e-20 -9.87721e-16 0)
(-1.10346e-20 -9.8772e-16 0)
(-1.13265e-20 -9.8772e-16 0)
(-1.15979e-20 -9.87719e-16 0)
(-1.18431e-20 -9.87718e-16 0)
(-1.20554e-20 -9.87718e-16 0)
(-1.22263e-20 -9.87717e-16 0)
(-1.23461e-20 -9.87716e-16 0)
(-1.24036e-20 -9.87715e-16 0)
(-1.23861e-20 -9.87714e-16 0)
(-1.22798e-20 -9.87713e-16 0)
(-1.20704e-20 -9.87712e-16 0)
(-1.17432e-20 -9.87711e-16 0)
(-1.12846e-20 -9.8771e-16 0)
(-2.19321e-20 -9.8771e-16 0)
(-1.47619e-09 -3.09207e-15 0)
(-3.46169e-07 -3.27126e-05 0)
(-1.82877e-07 -0.000505854 0)
(-3.13141e-22 -9.87728e-16 0)
(-9.32044e-22 -9.87728e-16 0)
(-1.5347e-21 -9.87728e-16 0)
(-2.11844e-21 -9.87728e-16 0)
(-2.68125e-21 -9.87727e-16 0)
(-3.22179e-21 -9.87727e-16 0)
(-3.73935e-21 -9.87727e-16 0)
(-4.2338e-21 -9.87727e-16 0)
(-4.70554e-21 -9.87726e-16 0)
(-5.15535e-21 -9.87726e-16 0)
(-5.58436e-21 -9.87726e-16 0)
(-5.99386e-21 -9.87725e-16 0)
(-6.38528e-21 -9.87725e-16 0)
(-6.76003e-21 -9.87725e-16 0)
(-7.11945e-21 -9.87724e-16 0)
(-7.46468e-21 -9.87724e-16 0)
(-7.79666e-21 -9.87723e-16 0)
(-8.11596e-21 -9.87723e-16 0)
(-8.42281e-21 -9.87722e-16 0)
(-8.71697e-21 -9.87722e-16 0)
(-8.99772e-21 -9.87721e-16 0)
(-9.26377e-21 -9.87721e-16 0)
(-9.51324e-21 -9.8772e-16 0)
(-9.74361e-21 -9.8772e-16 0)
(-9.95166e-21 -9.87719e-16 0)
(-1.01335e-20 -9.87719e-16 0)
(-1.02845e-20 -9.87718e-16 0)
(-1.03994e-20 -9.87717e-16 0)
(-1.04722e-20 -9.87717e-16 0)
(-1.04966e-20 -9.87716e-16 0)
(-1.04659e-20 -9.87715e-16 0)
(-1.03732e-20 -9.87715e-16 0)
(-1.0212e-20 -9.87714e-16 0)
(-9.97667e-21 -9.87713e-16 0)
(-9.6626e-21 -9.87712e-16 0)
(-9.26735e-21 -9.87712e-16 0)
(-1.7729e-20 -9.87711e-16 0)
(-1.19388e-09 -2.98509e-15 0)
(-3.6464e-07 -3.19545e-05 0)
(-1.94601e-07 -0.000509032 0)
(-2.78038e-22 -9.87727e-16 0)
(-8.2773e-22 -9.87727e-16 0)
(-1.36347e-21 -9.87727e-16 0)
(-1.88311e-21 -9.87727e-16 0)
(-2.385e-21 -9.87727e-16 0)
(-2.86798e-21 -9.87726e-16 0)
(-3.33136e-21 -9.87726e-16 0)
(-3.77488e-21 -9.87726e-16 0)
(-4.19863e-21 -9.87726e-16 0)
(-4.60304e-21 -9.87725e-16 0)
(-4.98872e-21 -9.87725e-16 0)
(-5.35645e-21 -9.87725e-16 0)
(-5.70705e-21 -9.87724e-16 0)
(-6.04136e-21 -9.87724e-16 0)
(-6.36012e-21 -9.87724e-16 0)
(-6.66392e-21 -9.87723e-16 0)
(-6.95317e-21 -9.87723e-16 0)
(-7.22799e-21 -9.87722e-16 0)
(-7.48824e-21 -9.87722e-16 0)
(-7.73341e-21 -9.87721e-16 0)
(-7.96263e-21 -9.87721e-16 0)
(-8.17462e-21 -9.8772e-16 0)
(-8.36772e-21 -9.8772e-16 0)
(-8.53983e-21 -9.87719e-16 0)
(-8.68847e-21 -9.87719e-16 0)
(-8.81077e-21 -9.87718e-16 0)
(-8.90357e-21 -9.87718e-16 0)
(-8.96346e-21 -9.87717e-16 0)
(-8.98691e-21 -9.87717e-16 0)
(-8.97041e-21 -9.87716e-16 0)
(-8.91064e-21 -9.87715e-16 0)
(-8.80473e-21 -9.87715e-16 0)
(-8.65047e-21 -9.87714e-16 0)
(-8.44663e-21 -9.87714e-16 0)
(-8.19324e-21 -9.87713e-16 0)
(-7.89192e-21 -9.87713e-16 0)
(-1.47516e-20 -9.87712e-16 0)
(-9.95473e-10 -2.83287e-15 0)
(-3.83738e-07 -3.09079e-05 0)
(-2.03119e-07 -0.000512373 0)
(-2.46117e-22 -9.87726e-16 0)
(-7.32782e-22 -9.87726e-16 0)
(-1.20732e-21 -9.87726e-16 0)
(-1.66793e-21 -9.87726e-16 0)
(-2.1132e-21 -9.87726e-16 0)
(-2.54208e-21 -9.87726e-16 0)
(-2.95386e-21 -9.87726e-16 0)
(-3.34819e-21 -9.87725e-16 0)
(-3.72497e-21 -9.87725e-16 0)
(-4.08433e-21 -9.87725e-16 0)
(-4.42658e-21 -9.87724e-16 0)
(-4.75213e-21 -9.87724e-16 0)
(-5.06143e-21 -9.87724e-16 0)
(-5.35496e-21 -9.87723e-16 0)
(-5.63311e-21 -9.87723e-16 0)
(-5.89618e-21 -9.87723e-16 0)
(-6.14434e-21 -9.87722e-16 0)
(-6.37755e-21 -9.87722e-16 0)
(-6.59559e-21 -9.87721e-16 0)
(-6.798e-21 -9.87721e-16 0)
(-6.98408e-21 -9.87721e-16 0)
(-7.15288e-21 -9.8772e-16 0)
(-7.3032e-21 -9.8772e-16 0)
(-7.43362e-21 -9.87719e-16 0)
(-7.54254e-21 -9.87719e-16 0)
(-7.62818e-21 -9.87718e-16 0)
(-7.68869e-21 -9.87718e-16 0)
(-7.72221e-21 -9.87717e-16 0)
(-7.72695e-21 -9.87717e-16 0)
(-7.70134e-21 -9.87716e-16 0)
(-7.64412e-21 -9.87716e-16 0)
(-7.55448e-21 -9.87715e-16 0)
(-7.43226e-21 -9.87715e-16 0)
(-7.27799e-21 -9.87714e-16 0)
(-7.09311e-21 -9.87714e-16 0)
(-6.87999e-21 -9.87714e-16 0)
(-1.24615e-20 -9.87713e-16 0)
(-8.37725e-10 -2.65326e-15 0)
(-4.0421e-07 -2.96277e-05 0)
(-2.09518e-07 -0.000515904 0)
(-2.16838e-22 -9.87726e-16 0)
(-6.45628e-22 -9.87726e-16 0)
(-1.06378e-21 -9.87726e-16 0)
(-1.46972e-21 -9.87725e-16 0)
(-1.86218e-21 -9.87725e-16 0)
(-2.24015e-21 -9.87725e-16 0)
(-2.60296e-21 -9.87725e-16 0)
(-2.95013e-21 -9.87725e-16 0)
(-3.28145e-21 -9.87724e-16 0)
(-3.59688e-21 -9.87724e-16 0)
(-3.89649e-21 -9.87724e-16 0)
(-4.18049e-21 -9.87724e-16 0)
(-4.44912e-21 -9.87723e-16 0)
(-4.70265e-21 -9.87723e-16 0)
(-4.94133e-21 -9.87723e-16 0)
(-5.16534e-21 -9.87722e-16 0)
(-5.3748e-21 -9.87722e-16 0)
(-5.56972e-21 -9.87721e-16 0)
(-5.75001e-21 -9.87721e-16 0)
(-5.91542e-21 -9.87721e-16 0)
(-6.06559e-21 -9.8772e-16 0)
(-6.20002e-21 -9.8772e-16 0)
(-6.31809e-21 -9.87719e-16 0)
(-6.41908e-21 -9.87719e-16 0)
(-6.50219e-21 -9.87718e-16 0)
(-6.56658e-21 -9.87718e-16 0)
(-6.61142e-21 -9.87718e-16 0)
(-6.63594e-21 -9.87717e-16 0)
(-6.63946e-21 -9.87717e-16 0)
(-6.62153e-21 -9.87716e-16 0)
(-6.58192e-21 -9.87716e-16 0)
(-6.52073e-21 -9.87715e-16 0)
(-6.43845e-21 -9.87715e-16 0)
(-6.336e-21 -9.87715e-16 0)
(-6.21478e-21 -9.87714e-16 0)
(-6.07669e-21 -9.87714e-16 0)
(-1.05784e-20 -9.87714e-16 0)
(-7.02288e-10 -2.45727e-15 0)
(-4.26636e-07 -2.81336e-05 0)
(-2.14399e-07 -0.000519656 0)
(-1.89845e-22 -9.87725e-16 0)
(-5.65231e-22 -9.87725e-16 0)
(-9.31224e-22 -9.87725e-16 0)
(-1.28638e-21 -9.87725e-16 0)
(-1.62951e-21 -9.87725e-16 0)
(-1.95967e-21 -9.87725e-16 0)
(-2.27612e-21 -9.87724e-16 0)
(-2.57837e-21 -9.87724e-16 0)
(-2.86609e-21 -9.87724e-16 0)
(-3.13912e-21 -9.87724e-16 0)
(-3.39744e-21 -9.87723e-16 0)
(-3.6411e-21 -9.87723e-16 0)
(-3.87024e-21 -9.87723e-16 0)
(-4.08506e-21 -9.87723e-16 0)
(-4.28575e-21 -9.87722e-16 0)
(-4.47253e-21 -9.87722e-16 0)
(-4.64558e-21 -9.87721e-16 0)
(-4.80507e-21 -9.87721e-16 0)
(-4.95113e-21 -9.87721e-16 0)
(-5.08384e-21 -9.8772e-16 0)
(-5.20324e-21 -9.8772e-16 0)
(-5.30932e-21 -9.8772e-16 0)
(-5.40204e-21 -9.87719e-16 0)
(-5.48133e-21 -9.87719e-16 0)
(-5.54711e-21 -9.87718e-16 0)
(-5.59929e-21 -9.87718e-16 0)
(-5.63781e-21 -9.87717e-16 0)
(-5.66265e-21 -9.87717e-16 0)
(-5.67383e-21 -9.87717e-16 0)
(-5.6715e-21 -9.87716e-16 0)
(-5.65589e-21 -9.87716e-16 0)
(-5.62737e-21 -9.87716e-16 0)
(-5.58646e-21 -9.87715e-16 0)
(-5.53385e-21 -9.87715e-16 0)
(-5.47037e-21 -9.87715e-16 0)
(-5.39704e-21 -9.87714e-16 0)
(-8.97388e-21 -9.87714e-16 0)
(-5.82264e-10 -2.25354e-15 0)
(-4.51567e-07 -2.64293e-05 0)
(-2.18123e-07 -0.000523661 0)
(-1.6491e-22 -9.87725e-16 0)
(-4.90929e-22 -9.87725e-16 0)
(-8.08609e-22 -9.87724e-16 0)
(-1.11658e-21 -9.87724e-16 0)
(-1.41369e-21 -9.87724e-16 0)
(-1.69901e-21 -9.87724e-16 0)
(-1.97178e-21 -9.87724e-16 0)
(-2.23145e-21 -9.87724e-16 0)
(-2.47764e-21 -9.87724e-16 0)
(-2.7101e-21 -9.87723e-16 0)
(-2.92873e-21 -9.87723e-16 0)
(-3.13351e-21 -9.87723e-16 0)
(-3.32455e-21 -9.87723e-16 0)
(-3.502e-21 -9.87722e-16 0)
(-3.66611e-21 -9.87722e-16 0)
(-3.81714e-21 -9.87722e-16 0)
(-3.95543e-21 -9.87721e-16 0)
(-4.08134e-21 -9.87721e-16 0)
(-4.19527e-21 -9.8772e-16 0)
(-4.29764e-21 -9.8772e-16 0)
(-4.38894e-21 -9.8772e-16 0)
(-4.46963e-21 -9.87719e-16 0)
(-4.54025e-21 -9.87719e-16 0)
(-4.60135e-21 -9.87719e-16 0)
(-4.65348e-21 -9.87718e-16 0)