/*--------------------------------*- C++ -*----------------------------------*\
  =========                 |
  \\      /  F ield         | OpenFOAM: The Open Source CFD Toolbox
   \\    /   O peration     | Website:  https://openfoam.org
    \\  /    A nd           | Version:  7
     \\/     M anipulation  |
\*---------------------------------------------------------------------------*/
FoamFile
{
    version     2.0;
    format      ascii;
    class       volScalarField;
    location    "59.999473411";
    object      p;
}
// * * * * * * * * * * * * * * * * * * * * * * * * * * * * * * * * * * * * * //

dimensions      [0 2 -2 0 0 0 0];

internalField   nonuniform List<scalar> 
4096
(
0.0007024
0.0005315
0.0004472
0.0004051
0.0003817
0.0003679
0.000359
0.0003529
0.0003486
0.0003453
0.0003428
0.0003408
0.0003391
0.0003378
0.0003366
0.0003356
0.0003347
0.000334
0.0003332
0.0003326
0.000332
0.0003314
0.0003309
0.0003303
0.0003298
0.0003293
0.0003288
0.0003283
0.0003277
0.0003272
0.0003266
0.000326
0.0003253
0.0003246
0.0003239
0.000323
0.0003221
0.000321
0.0003198
0.0003185
0.000317
0.0003152
0.0003133
0.000311
0.0003085
0.0003057
0.0003024
0.0002988
0.0002948
0.0002902
0.0002852
0.0002797
0.0002736
0.000267
0.0002599
0.0002522
0.000244
0.0002352
0.000226
0.0002164
0.0002065
0.0001962
0.0001857
0.0001751
0.0001645
0.0001539
0.0001435
0.0001333
0.0001234
0.0001139
0.0001048
9.623e-05
8.814e-05
8.058e-05
7.356e-05
6.707e-05
6.113e-05
5.57e-05
5.078e-05
4.633e-05
4.234e-05
3.876e-05
3.558e-05
3.275e-05
3.025e-05
2.803e-05
2.608e-05
2.435e-05
2.283e-05
2.148e-05
2.029e-05
1.922e-05
1.827e-05
1.741e-05
1.663e-05
1.591e-05
1.525e-05
1.464e-05
1.406e-05
1.351e-05
1.298e-05
1.247e-05
1.198e-05
1.149e-05
1.102e-05
1.054e-05
1.007e-05
9.606e-06
9.138e-06
8.67e-06
8.2e-06
7.727e-06
7.252e-06
6.774e-06
6.292e-06
5.806e-06
5.316e-06
4.822e-06
4.324e-06
3.821e-06
3.315e-06
2.806e-06
2.295e-06
1.786e-06
1.282e-06
7.923e-07
3.363e-07
2.232e-08
0.0005579
0.0004941
0.0004443
0.0004123
0.0003914
0.0003772
0.0003671
0.0003598
0.0003543
0.0003501
0.0003468
0.0003442
0.000342
0.0003402
0.0003386
0.0003373
0.0003361
0.0003351
0.0003342
0.0003333
0.0003325
0.0003318
0.0003311
0.0003304
0.0003297
0.0003291
0.0003284
0.0003277
0.0003271
0.0003264
0.0003256
0.0003249
0.0003241
0.0003232
0.0003223
0.0003212
0.0003201
0.0003189
0.0003175
0.000316
0.0003142
0.0003123
0.0003102
0.0003078
0.0003051
0.0003021
0.0002987
0.000295
0.0002908
0.0002862
0.0002812
0.0002757
0.0002697
0.0002632
0.0002562
0.0002487
0.0002407
0.0002323
0.0002235
0.0002142
0.0002047
0.0001949
0.000185
0.0001749
0.0001648
0.0001547
0.0001448
0.000135
0.0001256
0.0001165
0.0001078
9.948e-05
9.164e-05
8.428e-05
7.74e-05
7.102e-05
6.513e-05
5.971e-05
5.476e-05
5.026e-05
4.618e-05
4.25e-05
3.918e-05
3.621e-05
3.354e-05
3.116e-05
2.904e-05
2.713e-05
2.544e-05
2.391e-05
2.255e-05
2.132e-05
2.021e-05
1.919e-05
1.827e-05
1.742e-05
1.663e-05
1.589e-05
1.52e-05
1.455e-05
1.393e-05
1.333e-05
1.275e-05
1.219e-05
1.164e-05
1.111e-05
1.058e-05
1.006e-05
9.547e-06
9.035e-06
8.526e-06
8.019e-06
7.513e-06
7.006e-06
6.499e-06
5.991e-06
5.482e-06
4.972e-06
4.459e-06
3.946e-06
3.43e-06
2.915e-06
2.4e-06
1.887e-06
1.381e-06
8.869e-07
4.148e-07
5.48e-08
0.0004744
0.0004527
0.0004273
0.0004065
0.000391
0.0003793
0.0003704
0.0003633
0.0003578
0.0003533
0.0003497
0.0003467
0.0003442
0.0003421
0.0003403
0.0003387
0.0003373
0.0003361
0.000335
0.0003339
0.000333
0.0003321
0.0003312
0.0003304
0.0003296
0.0003288
0.000328
0.0003272
0.0003264
0.0003256
0.0003247
0.0003238
0.0003228
0.0003218
0.0003207
0.0003195
0.0003182
0.0003168
0.0003153
0.0003136
0.0003117
0.0003096
0.0003073
0.0003048
0.0003019
0.0002988
0.0002953
0.0002915
0.0002873
0.0002826
0.0002776
0.0002721
0.0002662
0.0002598
0.0002529
0.0002456
0.0002379
0.0002297
0.0002212
0.0002124
0.0002032
0.0001938
0.0001843
0.0001746
0.000165
0.0001554
0.0001459
0.0001366
0.0001275
0.0001187
0.0001103
0.0001023
9.469e-05
8.752e-05
8.078e-05
7.45e-05
6.867e-05
6.329e-05
5.833e-05
5.379e-05
4.965e-05
4.588e-05
4.246e-05
3.937e-05
3.658e-05
3.406e-05
3.178e-05
2.973e-05
2.788e-05
2.621e-05
2.469e-05
2.332e-05
2.206e-05
2.091e-05
1.985e-05
1.888e-05
1.797e-05
1.712e-05
1.633e-05
1.557e-05
1.486e-05
1.418e-05
1.352e-05
1.289e-05
1.227e-05
1.168e-05
1.109e-05
1.052e-05
9.96e-06
9.406e-06
8.859e-06
8.317e-06
7.779e-06
7.245e-06
6.713e-06
6.183e-06
5.654e-06
5.127e-06
4.6e-06
4.073e-06
3.547e-06
3.022e-06
2.499e-06
1.978e-06
1.462e-06
9.536e-07
4.561e-07
5.996e-08
0.0004296
0.0004226
0.0004093
0.0003961
0.0003852
0.0003765
0.0003693
0.0003635
0.0003586
0.0003545
0.000351
0.000348
0.0003455
0.0003433
0.0003414
0.0003397
0.0003382
0.0003368
0.0003355
0.0003344
0.0003333
0.0003323
0.0003313
0.0003304
0.0003295
0.0003286
0.0003277
0.0003267
0.0003258
0.0003249
0.0003239
0.0003228
0.0003218
0.0003206
0.0003194
0.0003181
0.0003167
0.0003151
0.0003134
0.0003116
0.0003096
0.0003074
0.000305
0.0003023
0.0002994
0.0002961
0.0002926
0.0002887
0.0002844
0.0002798
0.0002747
0.0002693
0.0002634
0.0002571
0.0002504
0.0002432
0.0002357
0.0002277
0.0002195
0.0002109
0.000202
0.000193
0.0001838
0.0001745
0.0001651
0.0001558
0.0001467
0.0001377
0.0001289
0.0001204
0.0001123
0.0001045
9.705e-05
9.003e-05
8.343e-05
7.724e-05
7.147e-05
6.612e-05
6.118e-05
5.663e-05
5.245e-05
4.863e-05
4.515e-05
4.198e-05
3.909e-05
3.647e-05
3.409e-05
3.193e-05
2.996e-05
2.817e-05
2.654e-05
2.504e-05
2.367e-05
2.241e-05
2.125e-05
2.017e-05
1.916e-05
1.822e-05
1.733e-05
1.649e-05
1.57e-05
1.494e-05
1.422e-05
1.352e-05
1.285e-05
1.22e-05
1.156e-05
1.095e-05
1.034e-05
9.751e-06
9.169e-06
8.595e-06
8.029e-06
7.469e-06
6.914e-06
6.363e-06
5.817e-06
5.273e-06
4.731e-06
4.192e-06
3.654e-06
3.118e-06
2.584e-06
2.052e-06
1.523e-06
9.968e-07
4.749e-07
5.574e-08
0.0004027
0.0004017
0.0003948
0.0003862
0.0003784
0.0003719
0.0003664
0.0003617
0.0003576
0.0003541
0.000351
0.0003483
0.0003459
0.0003438
0.0003419
0.0003402
0.0003386
0.0003372
0.0003359
0.0003346
0.0003335
0.0003324
0.0003313
0.0003303
0.0003293
0.0003283
0.0003273
0.0003263
0.0003253
0.0003242
0.0003232
0.000322
0.0003208
0.0003196
0.0003183
0.0003168
0.0003153
0.0003137
0.0003119
0.00031
0.0003079
0.0003056
0.0003031
0.0003003
0.0002973
0.000294
0.0002904
0.0002865
0.0002822
0.0002776
0.0002726
0.0002671
0.0002613
0.0002551
0.0002484
0.0002414
0.000234
0.0002262
0.0002181
0.0002098
0.0002011
0.0001923
0.0001833
0.0001743
0.0001652
0.0001562
0.0001472
0.0001385
0.0001299
0.0001217
0.0001137
0.0001061
9.881e-05
9.192e-05
8.542e-05
7.931e-05
7.361e-05
6.83e-05
6.338e-05
5.883e-05
5.464e-05
5.08e-05
4.727e-05
4.405e-05
4.111e-05
3.842e-05
3.596e-05
3.372e-05
3.167e-05
2.979e-05
2.807e-05
2.649e-05
2.503e-05
2.368e-05
2.243e-05
2.127e-05
2.018e-05
1.916e-05
1.82e-05
1.729e-05
1.643e-05
1.562e-05
1.483e-05
1.408e-05
1.336e-05
1.266e-05
1.198e-05
1.133e-05
1.069e-05
1.006e-05
9.447e-06
8.846e-06
8.254e-06
7.672e-06
7.096e-06
6.527e-06
5.964e-06
5.405e-06
4.85e-06
4.298e-06
3.749e-06
3.202e-06
2.657e-06
2.113e-06
1.57e-06
1.028e-06
4.865e-07
5.093e-08
0.0003853
0.0003868
0.0003835
0.0003779
0.0003722
0.0003671
0.0003628
0.000359
0.0003558
0.0003528
0.0003502
0.0003478
0.0003456
0.0003437
0.0003419
0.0003402
0.0003387
0.0003373
0.000336
0.0003347
0.0003335
0.0003324
0.0003313
0.0003302
0.0003291
0.0003281
0.000327
0.0003259
0.0003248
0.0003237
0.0003226
0.0003213
0.0003201
0.0003188
0.0003174
0.0003159
0.0003143
0.0003125
0.0003107
0.0003087
0.0003065
0.0003042
0.0003016
0.0002988
0.0002958
0.0002925
0.0002888
0.0002849
0.0002806
0.000276
0.000271
0.0002656
0.0002598
0.0002536
0.000247
0.0002401
0.0002328
0.0002251
0.0002172
0.0002089
0.0002005
0.0001918
0.000183
0.0001741
0.0001652
0.0001563
0.0001476
0.000139
0.0001306
0.0001225
0.0001147
0.0001072
0.0001
9.324e-05
8.682e-05
8.079e-05
7.513e-05
6.986e-05
6.497e-05
6.044e-05
5.625e-05
5.24e-05
4.887e-05
4.562e-05
4.264e-05
3.992e-05
3.742e-05
3.512e-05
3.302e-05
3.108e-05
2.93e-05
2.765e-05
2.613e-05
2.472e-05
2.34e-05
2.218e-05
2.103e-05
1.995e-05
1.893e-05
1.797e-05
1.705e-05
1.618e-05
1.535e-05
1.456e-05
1.379e-05
1.305e-05
1.234e-05
1.165e-05
1.098e-05
1.033e-05
9.687e-06
9.062e-06
8.449e-06
7.847e-06
7.254e-06
6.669e-06
6.091e-06
5.519e-06
4.953e-06
4.39e-06
3.83e-06
3.273e-06
2.718e-06
2.163e-06
1.609e-06
1.054e-06
4.957e-07
4.747e-08
0.0003734
0.0003759
0.0003746
0.000371
0.0003668
0.0003628
0.0003593
0.0003563
0.0003535
0.0003511
0.0003489
0.0003468
0.0003449
0.0003432
0.0003415
0.00034
0.0003385
0.0003372
0.0003359
0.0003346
0.0003334
0.0003323
0.0003311
0.00033
0.0003289
0.0003278
0.0003267
0.0003256
0.0003245
0.0003233
0.0003221
0.0003208
0.0003195
0.0003181
0.0003167
0.0003151
0.0003135
0.0003117
0.0003098
0.0003078
0.0003056
0.0003032
0.0003006
0.0002978
0.0002947
0.0002914
0.0002878
0.0002838
0.0002796
0.0002749
0.0002699
0.0002646
0.0002588
0.0002526
0.0002461
0.0002392
0.000232
0.0002244
0.0002165
0.0002084
0.0002
0.0001914
0.0001827
0.000174
0.0001652
0.0001564
0.0001477
0.0001393
0.000131
0.000123
0.0001153
0.0001078
0.0001008
9.404e-05
8.768e-05
8.17e-05
7.609e-05
7.085e-05
6.599e-05
6.148e-05
5.732e-05
5.348e-05
4.995e-05
4.67e-05
4.372e-05
4.098e-05
3.846e-05
3.614e-05
3.401e-05
3.204e-05
3.022e-05
2.854e-05
2.697e-05
2.551e-05
2.415e-05
2.288e-05
2.169e-05
2.056e-05
1.95e-05
1.85e-05
1.754e-05
1.664e-05
1.577e-05
1.494e-05
1.414e-05
1.337e-05
1.263e-05
1.191e-05
1.122e-05
1.054e-05
9.883e-06
9.239e-06
8.609e-06
7.991e-06
7.384e-06
6.786e-06
6.196e-06
5.614e-06
5.037e-06
4.465e-06
3.897e-06
3.331e-06
2.768e-06
2.205e-06
1.641e-06
1.075e-06
5.046e-07
4.61e-08
0.0003648
0.0003675
0.0003674
0.0003652
0.0003622
0.0003591
0.0003562
0.0003536
0.0003513
0.0003493
0.0003474
0.0003456
0.0003439
0.0003424
0.0003409
0.0003395
0.0003381
0.0003369
0.0003356
0.0003344
0.0003332
0.0003321
0.000331
0.0003298
0.0003287
0.0003276
0.0003265
0.0003253
0.0003242
0.000323
0.0003217
0.0003204
0.0003191
0.0003177
0.0003162
0.0003146
0.0003129
0.0003111
0.0003092
0.0003072
0.000305
0.0003026
0.0003
0.0002972
0.0002941
0.0002908
0.0002872
0.0002833
0.000279
0.0002744
0.0002694
0.0002641
0.0002583
0.0002522
0.0002457
0.0002388
0.0002316
0.0002241
0.0002162
0.0002081
0.0001998
0.0001912
0.0001826
0.0001738
0.000165
0.0001563
0.0001477
0.0001393
0.0001311
0.0001231
0.0001154
0.0001081
0.000101
9.433e-05
8.801e-05
8.206e-05
7.649e-05
7.129e-05
6.646e-05
6.198e-05
5.785e-05
5.404e-05
5.054e-05
4.731e-05
4.435e-05
4.162e-05
3.911e-05
3.679e-05
3.465e-05
3.267e-05
3.084e-05
2.914e-05
2.755e-05
2.607e-05
2.468e-05
2.338e-05
2.216e-05
2.101e-05
1.992e-05
1.889e-05
1.791e-05
1.697e-05
1.608e-05
1.522e-05
1.44e-05
1.361e-05
1.285e-05
1.211e-05
1.14e-05
1.071e-05
1.003e-05
9.373e-06
8.73e-06
8.1e-06
7.482e-06
6.874e-06
6.276e-06
5.685e-06
5.101e-06
4.523e-06
3.948e-06
3.377e-06
2.807e-06
2.238e-06
1.667e-06
1.094e-06
5.141e-07
4.715e-08
0.0003583
0.000361
0.0003616
0.0003604
0.0003582
0.0003558
0.0003534
0.0003512
0.0003493
0.0003475
0.0003458
0.0003443
0.0003428
0.0003415
0.0003401
0.0003389
0.0003376
0.0003364
0.0003353
0.0003341
0.000333
0.0003319
0.0003308
0.0003296
0.0003285
0.0003274
0.0003263
0.0003251
0.000324
0.0003227
0.0003215
0.0003202
0.0003188
0.0003174
0.0003159
0.0003143
0.0003126
0.0003109
0.000309
0.0003069
0.0003047
0.0003023
0.0002998
0.000297
0.000294
0.0002907
0.0002871
0.0002832
0.000279
0.0002744
0.0002695
0.0002641
0.0002584
0.0002523
0.0002457
0.0002389
0.0002316
0.0002241
0.0002162
0.0002081
0.0001997
0.0001911
0.0001824
0.0001737
0.0001649
0.0001561
0.0001475
0.0001391
0.0001308
0.0001229
0.0001152
0.0001078
0.0001008
9.413e-05
8.782e-05
8.189e-05
7.635e-05
7.118e-05
6.639e-05
6.195e-05
5.787e-05
5.411e-05
5.065e-05
4.747e-05
4.454e-05
4.185e-05
3.936e-05
3.707e-05
3.495e-05
3.299e-05
3.116e-05
2.946e-05
2.787e-05
2.639e-05
2.499e-05
2.368e-05
2.245e-05
2.128e-05
2.018e-05
1.913e-05
1.814e-05
1.719e-05
1.628e-05
1.541e-05
1.457e-05
1.377e-05
1.299e-05
1.224e-05
1.152e-05
1.081e-05
1.013e-05
9.46e-06
8.809e-06
8.171e-06
7.546e-06
6.932e-06
6.328e-06
5.733e-06
5.144e-06
4.562e-06
3.983e-06
3.408e-06
2.835e-06
2.263e-06
1.688e-06
1.11e-06
5.245e-07
5.086e-08
0.0003532
0.0003558
0.0003568
0.0003562
0.0003548
0.0003529
0.000351
0.0003491
0.0003474
0.0003458
0.0003444
0.000343
0.0003417
0.0003405
0.0003393
0.0003382
0.000337
0.0003359
0.0003348
0.0003338
0.0003327
0.0003316
0.0003305
0.0003295
0.0003284
0.0003273
0.0003262
0.000325
0.0003238
0.0003226
0.0003214
0.0003201
0.0003187
0.0003173
0.0003158
0.0003143
0.0003126
0.0003108
0.000309
0.000307
0.0003048
0.0003025
0.0002999
0.0002972
0.0002942
0.000291
0.0002875
0.0002837
0.0002795
0.000275
0.00027
0.0002647
0.000259
0.0002528
0.0002463
0.0002393
0.0002321
0.0002244
0.0002165
0.0002083
0.0001998
0.0001912
0.0001824
0.0001735
0.0001646
0.0001558
0.0001471
0.0001386
0.0001303
0.0001223
0.0001146
0.0001071
0.0001001
9.341e-05
8.71e-05
8.117e-05
7.565e-05
7.051e-05
6.577e-05
6.139e-05
5.737e-05
5.368e-05
5.028e-05
4.717e-05
4.431e-05
4.167e-05
3.924e-05
3.7e-05
3.492e-05
3.299e-05
3.119e-05
2.951e-05
2.794e-05
2.647e-05
2.509e-05
2.379e-05
2.256e-05
2.139e-05
2.028e-05
1.923e-05
1.823e-05
1.728e-05
1.636e-05
1.549e-05
1.465e-05
1.384e-05
1.306e-05
1.23e-05
1.157e-05
1.086e-05
1.017e-05
9.5e-06
8.844e-06
8.203e-06
7.576e-06
6.959e-06
6.353e-06
5.756e-06
5.166e-06
4.582e-06
4.003e-06
3.427e-06
2.853e-06
2.279e-06
1.704e-06
1.124e-06
5.364e-07
5.74e-08
0.0003492
0.0003516
0.0003528
0.0003527
0.0003517
0.0003503
0.0003488
0.0003472
0.0003457
0.0003443
0.0003431
0.0003418
0.0003407
0.0003396
0.0003385
0.0003375
0.0003364
0.0003354
0.0003344
0.0003334
0.0003324
0.0003314
0.0003303
0.0003293
0.0003282
0.0003272
0.0003261
0.000325
0.0003238
0.0003226
0.0003214
0.0003201
0.0003188
0.0003174
0.000316
0.0003144
0.0003128
0.0003111
0.0003093
0.0003073
0.0003052
0.0003029
0.0003005
0.0002978
0.000295
0.0002918
0.0002884
0.0002846
0.0002805
0.0002761
0.0002712
0.0002659
0.0002601
0.0002539
0.0002473
0.0002404
0.000233
0.0002252
0.0002172
0.0002088
0.0002003
0.0001914
0.0001825
0.0001734
0.0001643
0.0001553
0.0001465
0.0001378
0.0001294
0.0001213
0.0001134
0.000106
9.885e-05
9.212e-05
8.579e-05
7.987e-05
7.437e-05
6.928e-05
6.459e-05
6.029e-05
5.636e-05
5.275e-05
4.946e-05
4.643e-05
4.366e-05
4.111e-05
3.876e-05
3.659e-05
3.457e-05
3.269e-05
3.095e-05
2.931e-05
2.778e-05
2.634e-05
2.498e-05
2.37e-05
2.248e-05
2.133e-05
2.024e-05
1.92e-05
1.82e-05
1.725e-05
1.634e-05
1.547e-05
1.463e-05
1.382e-05
1.304e-05
1.229e-05
1.156e-05
1.085e-05
1.016e-05
9.491e-06
8.836e-06
8.197e-06
7.57e-06
6.955e-06
6.35e-06
5.754e-06
5.165e-06
4.583e-06
4.006e-06
3.432e-06
2.86e-06
2.288e-06
1.715e-06
1.136e-06
5.497e-07
6.687e-08
0.0003459
0.0003481
0.0003494
0.0003496
0.0003491
0.0003481
0.0003468
0.0003455
0.0003442
0.000343
0.0003419
0.0003408
0.0003397
0.0003387
0.0003378
0.0003368
0.0003359
0.0003349
0.000334
0.000333
0.0003321
0.0003311
0.0003302
0.0003292
0.0003282
0.0003271
0.0003261
0.000325
0.0003239
0.0003227
0.0003216
0.0003203
0.000319
0.0003177
0.0003163
0.0003148
0.0003132
0.0003116
0.0003098
0.0003079
0.0003059
0.0003038
0.0003014
0.0002989
0.0002961
0.0002931
0.0002897
0.0002861
0.0002821
0.0002777
0.0002729
0.0002676
0.0002619
0.0002557
0.000249
0.0002419
0.0002344
0.0002266
0.0002183
0.0002098
0.000201
0.0001919
0.0001826
0.0001733
0.000164
0.0001547
0.0001456
0.0001367
0.0001281
0.0001198
0.0001118
0.0001042
9.7e-05
9.022e-05
8.386e-05
7.794e-05
7.247e-05
6.744e-05
6.284e-05
5.864e-05
5.482e-05
5.134e-05
4.817e-05
4.527e-05
4.261e-05
4.017e-05
3.793e-05
3.585e-05
3.392e-05
3.212e-05
3.044e-05
2.886e-05
2.738e-05
2.599e-05
2.467e-05
2.342e-05
2.224e-05
2.111e-05
2.004e-05
1.902e-05
1.805e-05
1.711e-05
1.621e-05
1.535e-05
1.452e-05
1.373e-05
1.295e-05
1.221e-05
1.149e-05
1.078e-05
1.01e-05
9.435e-06
8.786e-06
8.151e-06
7.529e-06
6.918e-06
6.318e-06
5.727e-06
5.143e-06
4.565e-06
3.993e-06
3.424e-06
2.857e-06
2.289e-06
1.72e-06
1.147e-06
5.648e-07
7.932e-08
0.0003432
0.0003452
0.0003466
0.000347
0.0003468
0.0003461
0.0003451
0.000344
0.0003429
0.0003419
0.0003408
0.0003398
0.0003389
0.000338
0.0003371
0.0003362
0.0003353
0.0003345
0.0003336
0.0003327
0.0003318
0.0003309
0.00033
0.0003291
0.0003281
0.0003272
0.0003262
0.0003251
0.0003241
0.000323
0.0003218
0.0003206
0.0003194
0.0003181
0.0003168
0.0003154
0.0003139
0.0003123
0.0003106
0.0003089
0.0003069
0.0003049
0.0003027
0.0003003
0.0002976
0.0002947
0.0002916
0.0002881
0.0002842
0.00028
0.0002752
0.00027
0.0002643
0.0002581
0.0002514
0.0002442
0.0002366
0.0002285
0.00022
0.0002113
0.0002022
0.0001927
0.000183
0.0001733
0.0001636
0.0001539
0.0001443
0.0001351
0.0001262
0.0001177
0.0001095
0.0001017
9.444e-05
8.76e-05
8.123e-05
7.533e-05
6.991e-05
6.497e-05
6.048e-05
5.643e-05
5.276e-05
4.944e-05
4.643e-05
4.368e-05
4.118e-05
3.888e-05
3.676e-05
3.48e-05
3.297e-05
3.127e-05
2.968e-05
2.818e-05
2.677e-05
2.544e-05
2.417e-05
2.298e-05
2.184e-05
2.075e-05
1.971e-05
1.872e-05
1.777e-05
1.686e-05
1.599e-05
1.515e-05
1.433e-05
1.355e-05
1.28e-05
1.206e-05
1.135e-05
1.066e-05
9.989e-06
9.334e-06
8.694e-06
8.068e-06
7.454e-06
6.852e-06
6.26e-06
5.676e-06
5.1e-06
4.53e-06
3.965e-06
3.403e-06
2.843e-06
2.283e-06
1.722e-06
1.155e-06
5.815e-07
9.469e-08
0.0003409
0.0003428
0.0003441
0.0003447
0.0003447
0.0003443
0.0003436
0.0003427
0.0003418
0.0003408
0.0003399
0.000339
0.0003381
0.0003373
0.0003365
0.0003357
0.0003349
0.0003341
0.0003333
0.0003325
0.0003316
0.0003308
0.0003299
0.0003291
0.0003282
0.0003272
0.0003263
0.0003253
0.0003243
0.0003233
0.0003222
0.0003211
0.0003199
0.0003187
0.0003175
0.0003161
0.0003147
0.0003133
0.0003117
0.00031
0.0003082
0.0003063
0.0003043
0.000302
0.0002996
0.0002969
0.0002939
0.0002906
0.0002869
0.0002828
0.0002782
0.0002732
0.0002675
0.0002613
0.0002546
0.0002474
0.0002397
0.0002314
0.0002226
0.0002135
0.0002041
0.0001941
0.0001837
0.0001733
0.0001631
0.0001528
0.0001426
0.0001328
0.0001237
0.0001148
0.0001064
9.84e-05
9.102e-05
8.416e-05
7.78e-05
7.195e-05
6.663e-05
6.182e-05
5.751e-05
5.364e-05
5.018e-05
4.706e-05
4.425e-05
4.17e-05
3.937e-05
3.724e-05
3.528e-05
3.346e-05
3.177e-05
3.018e-05
2.87e-05
2.729e-05
2.597e-05
2.471e-05
2.351e-05
2.237e-05
2.129e-05
2.025e-05
1.926e-05
1.83e-05
1.739e-05
1.651e-05
1.567e-05
1.485e-05
1.406e-05
1.33e-05
1.257e-05
1.185e-05
1.116e-05
1.049e-05
9.83e-06
9.189e-06
8.563e-06
7.95e-06
7.348e-06
6.757e-06
6.176e-06
5.603e-06
5.037e-06
4.477e-06
3.922e-06
3.37e-06
2.82e-06
2.27e-06
1.719e-06
1.163e-06
5.999e-07
1.129e-07
0.000339
0.0003408
0.0003421
0.0003428
0.0003429
0.0003427
0.0003422
0.0003415
0.0003407
0.0003399
0.0003391
0.0003383
0.0003375
0.0003367
0.000336
0.0003352
0.0003345
0.0003338
0.000333
0.0003323
0.0003315
0.0003307
0.0003299
0.0003291
0.0003283
0.0003274
0.0003265
0.0003256
0.0003247
0.0003237
0.0003227
0.0003217
0.0003206
0.0003194
0.0003183
0.000317
0.0003157
0.0003144
0.0003129
0.0003114
0.0003098
0.000308
0.0003062
0.0003041
0.0003019
0.0002994
0.0002967
0.0002936
0.0002902
0.0002863
0.000282
0.0002771
0.0002716
0.0002655
0.0002588
0.0002516
0.0002439
0.0002354
0.0002262
0.0002168
0.000207
0.0001962
0.0001848
0.0001735
0.0001625
0.0001513
0.0001401
0.0001295
0.00012
0.0001109
0.0001021
9.395e-05
8.658e-05
7.976e-05
7.347e-05
6.773e-05
6.258e-05
5.798e-05
5.391e-05
5.029e-05
4.708e-05
4.422e-05
4.166e-05
3.934e-05
3.723e-05
3.53e-05
3.352e-05
3.187e-05
3.033e-05
2.888e-05
2.751e-05
2.621e-05
2.498e-05
2.381e-05
2.27e-05
2.163e-05
2.061e-05
1.963e-05
1.868e-05
1.778e-05
1.691e-05
1.607e-05
1.526e-05
1.448e-05
1.372e-05
1.299e-05
1.228e-05
1.159e-05
1.092e-05
1.027e-05
9.629e-06
9.006e-06
8.396e-06
7.799e-06
7.213e-06
6.636e-06
6.069e-06
5.509e-06
4.956e-06
4.408e-06
3.865e-06
3.326e-06
2.788e-06
2.25e-06
1.712e-06
1.169e-06
6.198e-07
1.337e-07
0.0003374
0.0003391
0.0003403
0.0003411
0.0003414
0.0003413
0.000341
0.0003404
0.0003398
0.0003391
0.0003384
0.0003377
0.0003369
0.0003362
0.0003356
0.0003349
0.0003342
0.0003335
0.0003328
0.0003321
0.0003314
0.0003307
0.00033
0.0003292
0.0003284
0.0003276
0.0003268
0.000326
0.0003251
0.0003242
0.0003233
0.0003223
0.0003213
0.0003203
0.0003192
0.0003181
0.0003169
0.0003157
0.0003144
0.000313
0.0003116
0.00031
0.0003083
0.0003065
0.0003045
0.0003023
0.0002999
0.0002971
0.000294
0.0002904
0.0002864
0.0002818
0.0002766
0.0002707
0.0002641
0.0002571
0.0002496
0.0002411
0.0002315
0.0002217
0.0002117
0.0001998
0.0001866
0.0001739
0.0001616
0.0001491
0.0001362
0.0001246
0.0001148
0.0001054
9.622e-05
8.809e-05
8.091e-05
7.428e-05
6.816e-05
6.263e-05
5.773e-05
5.344e-05
4.968e-05
4.64e-05
4.351e-05
4.096e-05
3.869e-05
3.664e-05
3.479e-05
3.309e-05
3.152e-05
3.005e-05
2.868e-05
2.738e-05
2.615e-05
2.497e-05
2.385e-05
2.278e-05
2.175e-05
2.076e-05
1.981e-05
1.89e-05
1.801e-05
1.716e-05
1.634e-05
1.555e-05
1.478e-05
1.404e-05
1.332e-05
1.262e-05
1.194e-05
1.128e-05
1.063e-05
1e-05
9.389e-06
8.787e-06
8.198e-06
7.619e-06
7.051e-06
6.492e-06
5.94e-06
5.396e-06
4.858e-06
4.326e-06
3.797e-06
3.272e-06
2.748e-06
2.225e-06
1.701e-06
1.174e-06
6.412e-07
1.569e-07
0.0003361
0.0003376
0.0003389
0.0003397
0.00034
0.0003401
0.0003399
0.0003395
0.000339
0.0003384
0.0003378
0.0003371
0.0003365
0.0003358
0.0003352
0.0003346
0.0003339
0.0003333
0.0003327
0.000332
0.0003314
0.0003307
0.0003301
0.0003294
0.0003286
0.0003279
0.0003272
0.0003264
0.0003256
0.0003248
0.0003239
0.0003231
0.0003222
0.0003212
0.0003203
0.0003193
0.0003182
0.0003171
0.000316
0.0003148
0.0003135
0.0003122
0.0003107
0.0003092
0.0003075
0.0003056
0.0003034
0.000301
0.0002983
0.0002952
0.0002915
0.0002873
0.0002825
0.0002769
0.0002707
0.0002641
0.0002571
0.0002489
0.000239
0.0002293
0.0002195
0.0002058
0.0001895
0.0001745
0.0001606
0.0001458
0.0001299
0.0001166
0.0001071
9.781e-05
8.834e-05
8.05e-05
7.386e-05
6.762e-05
6.18e-05
5.661e-05
5.21e-05
4.822e-05
4.489e-05
4.201e-05
3.951e-05
3.733e-05
3.539e-05
3.366e-05
3.209e-05
3.065e-05
2.931e-05
2.805e-05
2.686e-05
2.572e-05
2.464e-05
2.36e-05
2.259e-05
2.163e-05
2.069e-05
1.979e-05
1.892e-05
1.808e-05
1.726e-05
1.647e-05
1.57e-05
1.496e-05
1.424e-05
1.354e-05
1.286e-05
1.22e-05
1.155e-05
1.092e-05
1.031e-05
9.704e-06
9.116e-06
8.538e-06
7.972e-06
7.415e-06
6.867e-06
6.327e-06
5.794e-06
5.267e-06
4.746e-06
4.23e-06
3.718e-06
3.209e-06
2.701e-06
2.195e-06
1.687e-06
1.178e-06
6.637e-07
1.821e-07
0.000335
0.0003364
0.0003376
0.0003384
0.0003389
0.000339
0.0003389
0.0003387
0.0003383
0.0003378
0.0003372
0.0003367
0.0003361
0.0003355
0.0003349
0.0003344
0.0003338
0.0003332
0.0003326
0.000332
0.0003314
0.0003308
0.0003302
0.0003296
0.0003289
0.0003283
0.0003276
0.0003269
0.0003262
0.0003254
0.0003247
0.0003239
0.0003231
0.0003223
0.0003214
0.0003205
0.0003196
0.0003187
0.0003177
0.0003167
0.0003156
0.0003145
0.0003133
0.000312
0.0003106
0.0003091
0.0003073
0.0003054
0.0003031
0.0003004
0.0002973
0.0002936
0.0002893
0.0002842
0.0002785
0.0002726
0.0002668
0.0002593
0.000249
0.0002403
0.0002349
0.0002167
0.0001923
0.0001746
0.00016
0.0001428
0.0001188
0.0001012
9.605e-05
8.78e-05
7.784e-05
7.077e-05
6.534e-05
5.98e-05
5.447e-05
4.977e-05
4.579e-05
4.244e-05
3.961e-05
3.721e-05
3.516e-05
3.339e-05
3.184e-05
3.046e-05
2.92e-05
2.804e-05
2.694e-05
2.591e-05
2.491e-05
2.395e-05
2.302e-05
2.212e-05
2.124e-05
2.038e-05
1.955e-05
1.874e-05
1.795e-05
1.718e-05
1.644e-05
1.571e-05
1.501e-05
1.432e-05
1.365e-05
1.299e-05
1.236e-05
1.173e-05
1.112e-05
1.053e-05
9.947e-06
9.376e-06
8.815e-06
8.265e-06
7.723e-06
7.19e-06
6.664e-06
6.145e-06
5.632e-06
5.125e-06
4.623e-06
4.125e-06
3.63e-06
3.138e-06
2.649e-06
2.16e-06
1.671e-06
1.181e-06
6.873e-07
2.09e-07
0.000334
0.0003354
0.0003365
0.0003373
0.0003378
0.0003381
0.0003381
0.0003379
0.0003376
0.0003372
0.0003368
0.0003363
0.0003358
0.0003353
0.0003347
0.0003342
0.0003337
0.0003331
0.0003326
0.0003321
0.0003315
0.000331
0.0003304
0.0003298
0.0003293
0.0003287
0.000328
0.0003274
0.0003268
0.0003261
0.0003255
0.0003248
0.0003241
0.0003234
0.0003226
0.0003219
0.0003211
0.0003203
0.0003195
0.0003187
0.0003178
0.0003169
0.000316
0.000315
0.0003139
0.0003128
0.0003115
0.0003099
0.0003081
0.000306
0.0003035
0.0003004
0.0002967
0.0002923
0.0002872
0.0002826
0.0002793
0.0002747
0.0002584
0.0002469
0.0002591
0.000257
0.0001953
0.0001729
0.0001602
0.0001399
7.922e-05
7.735e-05
8.948e-05
7.832e-05
6.262e-05
5.836e-05
5.543e-05
5.108e-05
4.642e-05
4.233e-05
3.898e-05
3.624e-05
3.399e-05
3.213e-05
3.057e-05
2.926e-05
2.813e-05
2.712e-05
2.619e-05
2.532e-05
2.449e-05
2.368e-05
2.288e-05
2.21e-05
2.133e-05
2.057e-05
1.982e-05
1.908e-05
1.835e-05
1.763e-05
1.693e-05
1.624e-05
1.557e-05
1.491e-05
1.426e-05
1.363e-05
1.301e-05
1.241e-05
1.182e-05
1.124e-05
1.067e-05
1.011e-05
9.563e-06
9.024e-06
8.494e-06
7.972e-06
7.457e-06
6.948e-06
6.446e-06
5.95e-06
5.459e-06
4.972e-06
4.49e-06
4.011e-06
3.536e-06
3.063e-06
2.592e-06
2.122e-06
1.653e-06
1.183e-06
7.115e-07
2.371e-07
0.0003332
0.0003345
0.0003356
0.0003364
0.000337
0.0003373
0.0003374
0.0003373
0.0003371
0.0003368
0.0003364
0.000336
0.0003355
0.0003351
0.0003346
0.0003341
0.0003336
0.0003331
0.0003327
0.0003322
0.0003317
0.0003312
0.0003307
0.0003301
0.0003296
0.0003291
0.0003286
0.000328
0.0003274
0.0003269
0.0003263
0.0003257
0.0003251
0.0003245
0.0003239
0.0003232
0.0003226
0.000322
0.0003213
0.0003207
0.00032
0.0003194
0.0003187
0.0003181
0.0003173
0.0003166
0.0003157
0.0003147
0.0003134
0.0003119
0.0003099
0.0003075
0.0003045
0.0003005
0.0002958
0.0002922
0.000293
0.000298
0.0002838
0.0002308
0.000227
0.0002363
0.0001728
0.0001671
0.0001663
0.0001624
9.984e-05
0.0001092
0.0001049
5.36e-05
4e-05
4.483e-05
4.591e-05
4.253e-05
3.822e-05
3.465e-05
3.194e-05
2.984e-05
2.819e-05
2.689e-05
2.587e-05
2.504e-05
2.434e-05
2.372e-05
2.314e-05
2.257e-05
2.2e-05
2.142e-05
2.082e-05
2.022e-05
1.961e-05
1.899e-05
1.836e-05
1.774e-05
1.711e-05
1.649e-05
1.588e-05
1.527e-05
1.467e-05
1.408e-05
1.349e-05
1.292e-05
1.236e-05
1.18e-05
1.126e-05
1.072e-05
1.02e-05
9.675e-06
9.163e-06
8.658e-06
8.159e-06
7.666e-06
7.178e-06
6.696e-06
6.219e-06
5.746e-06
5.277e-06
4.812e-06
4.351e-06
3.892e-06
3.436e-06
2.983e-06
2.531e-06
2.081e-06
1.633e-06
1.184e-06
7.36e-07
2.661e-07
0.0003325
0.0003337
0.0003348
0.0003356
0.0003362
0.0003366
0.0003367
0.0003367
0.0003366
0.0003364
0.0003361
0.0003357
0.0003353
0.0003349
0.0003345
0.0003341
0.0003336
0.0003332
0.0003327
0.0003323
0.0003318
0.0003314
0.0003309
0.0003305
0.00033
0.0003296
0.0003291
0.0003286
0.0003281
0.0003276
0.0003271
0.0003266
0.0003261
0.0003256
0.0003251
0.0003246
0.0003241
0.0003236
0.0003232
0.0003227
0.0003223
0.0003218
0.0003214
0.0003211
0.0003207
0.0003203
0.0003199
0.0003194
0.0003187
0.0003177
0.0003164
0.0003147
0.0003123
0.0003085
0.0003034
0.0002939
0.0002974
0.0003046
0.0002781
0.0001911
0.0001995
0.0001603
0.0001289
0.0001585
0.0001756
0.0002056
0.0001745
0.0001364
0.0001445
6.28e-05
3.335e-05
4.052e-05
4.416e-05
3.501e-05
3.027e-05
2.692e-05
2.483e-05
2.341e-05
2.238e-05
2.167e-05
2.119e-05
2.087e-05
2.061e-05
2.038e-05
2.013e-05
1.985e-05
1.954e-05
1.918e-05
1.878e-05
1.835e-05
1.789e-05
1.741e-05
1.69e-05
1.639e-05
1.587e-05
1.534e-05
1.481e-05
1.428e-05
1.376e-05
1.323e-05
1.271e-05
1.22e-05
1.169e-05
1.119e-05
1.069e-05
1.02e-05
9.711e-06
9.23e-06
8.754e-06
8.283e-06
7.816e-06
7.353e-06
6.894e-06
6.438e-06
5.986e-06
5.537e-06
5.091e-06
4.648e-06
4.208e-06
3.769e-06
3.334e-06
2.9e-06
2.469e-06
2.039e-06
1.612e-06
1.186e-06
7.606e-07
2.954e-07
0.000332
0.0003331
0.0003342
0.000335
0.0003356
0.000336
0.0003362
0.0003363
0.0003362
0.000336
0.0003358
0.0003355
0.0003352
0.0003348
0.0003344
0.0003341
0.0003337
0.0003333
0.0003329
0.0003325
0.000332
0.0003316
0.0003312
0.0003308
0.0003304
0.00033
0.0003296
0.0003292
0.0003288
0.0003284
0.000328
0.0003276
0.0003272
0.0003268
0.0003264
0.000326
0.0003256
0.0003253
0.000325
0.0003247
0.0003244
0.0003242
0.0003241
0.000324
0.0003239
0.0003239
0.0003239
0.0003239
0.0003238
0.0003235
0.0003229
0.0003219
0.0003204
0.0003173
0.0003125
0.0003012
0.0002694
0.0002756
0.0002509
0.00011
0.0001757
0.000116
0.0001389
0.0001592
0.0001765
0.000197
0.00022
0.0001602
0.0002248
0.0001191
6.331e-05
6.938e-05
3.678e-05
2.595e-05
2.168e-05
1.889e-05
1.772e-05
1.708e-05
1.673e-05
1.663e-05
1.671e-05
1.687e-05
1.705e-05
1.719e-05
1.726e-05
1.726e-05
1.718e-05
1.702e-05
1.68e-05
1.653e-05
1.621e-05
1.586e-05
1.547e-05
1.507e-05
1.464e-05
1.42e-05
1.376e-05
1.33e-05
1.285e-05
1.239e-05
1.193e-05
1.148e-05
1.102e-05
1.057e-05
1.012e-05
9.673e-06
9.227e-06
8.785e-06
8.345e-06
7.907e-06
7.472e-06
7.039e-06
6.608e-06
6.18e-06
5.753e-06
5.328e-06
4.905e-06
4.483e-06
4.064e-06
3.646e-06
3.231e-06
2.817e-06
2.406e-06
1.997e-06
1.59e-06
1.186e-06
7.849e-07
3.245e-07
0.0003315
0.0003326
0.0003336
0.0003344
0.000335
0.0003355
0.0003357
0.0003359
0.0003359
0.0003358
0.0003356
0.0003353
0.0003351
0.0003348
0.0003344
0.0003341
0.0003337
0.0003334
0.000333
0.0003326
0.0003323
0.0003319
0.0003316
0.0003312
0.0003309
0.0003305
0.0003302
0.0003298
0.0003295
0.0003291
0.0003288
0.0003285
0.0003282
0.0003279
0.0003276
0.0003273
0.0003271
0.0003268
0.0003267
0.0003265
0.0003264
0.0003264
0.0003265
0.0003266
0.0003269
0.0003272
0.0003276
0.0003281
0.0003285
0.0003288
0.0003288
0.0003287
0.0003282
0.0003266
0.0003206
0.0002956
0.0002319
0.0002104
6.37e-05
0.000118
0.0001494
0.0001445
0.0001523
0.0001631
0.000174
0.000185
0.000193
0.0001885
0.0002212
0.0002803
0.0001331
0.0001062
4.5e-05
1.83e-05
1.282e-05
1.128e-05
1.116e-05
1.131e-05
1.154e-05
1.201e-05
1.261e-05
1.322e-05
1.379e-05
1.425e-05
1.46e-05
1.484e-05
1.497e-05
1.499e-05
1.494e-05
1.481e-05
1.462e-05
1.438e-05
1.41e-05
1.379e-05
1.345e-05
1.31e-05
1.273e-05
1.235e-05
1.197e-05
1.157e-05
1.117e-05
1.077e-05
1.037e-05
9.967e-06
9.563e-06
9.158e-06
8.753e-06
8.348e-06
7.943e-06
7.539e-06
7.135e-06
6.731e-06
6.328e-06
5.925e-06
5.523e-06
5.122e-06
4.721e-06
4.321e-06
3.922e-06
3.525e-06
3.129e-06
2.735e-06
2.344e-06
1.955e-06
1.569e-06
1.186e-06
8.085e-07
3.53e-07
0.0003311
0.0003322
0.0003332
0.000334
0.0003346
0.000335
0.0003353
0.0003355
0.0003356
0.0003355
0.0003354
0.0003352
0.000335
0.0003347
0.0003344
0.0003341
0.0003338
0.0003335