/*--------------------------------*- C++ -*----------------------------------*\
  =========                 |
  \\      /  F ield         | OpenFOAM: The Open Source CFD Toolbox
   \\    /   O peration     | Website:  https://openfoam.org
    \\  /    A nd           | Version:  7
     \\/     M anipulation  |
\*---------------------------------------------------------------------------*/
FoamFile
{
    version     2.0;
    format      ascii;
    class       surfaceScalarField;
    location    "59.999473411";
    object      phi;
}
// * * * * * * * * * * * * * * * * * * * * * * * * * * * * * * * * * * * * * //

dimensions      [0 3 -1 0 0 0 0];

internalField   nonuniform List<scalar> 
8032
(
6.857e-10
2.518e-10
4.804e-10
2.053e-10
3.48e-10
1.324e-10
2.643e-10
8.372e-11
2.101e-10
5.414e-11
1.738e-10
3.633e-11
1.483e-10
2.545e-11
1.297e-10
1.859e-11
1.157e-10
1.406e-11
1.047e-10
1.094e-11
9.603e-11
8.701e-12
8.9e-11
7.027e-12
8.327e-11
5.738e-12
7.855e-11
4.719e-12
7.465e-11
3.894e-12
7.144e-11
3.213e-12
6.88e-11
2.639e-12
6.665e-11
2.148e-12
6.493e-11
1.72e-12
6.359e-11
1.341e-12
6.259e-11
9.999e-13
6.19e-11
6.874e-13
6.151e-11
3.966e-13
6.139e-11
1.216e-13
6.153e-11
-1.428e-13
6.193e-11
-4.006e-13
6.258e-11
-6.557e-13
6.35e-11
-9.112e-13
6.467e-11
-1.17e-12
6.61e-11
-1.435e-12
6.781e-11
-1.707e-12
6.98e-11
-1.99e-12
7.208e-11
-2.284e-12
7.467e-11
-2.591e-12
7.758e-11
-2.912e-12
8.083e-11
-3.246e-12
8.443e-11
-3.595e-12
8.838e-11
-3.957e-12
9.271e-11
-4.332e-12
9.743e-11
-4.717e-12
1.025e-10
-5.109e-12
1.08e-10
-5.505e-12
1.139e-10
-5.901e-12
1.202e-10
-6.291e-12
1.269e-10
-6.667e-12
1.339e-10
-7.023e-12
1.413e-10
-7.35e-12
1.489e-10
-7.637e-12
1.568e-10
-7.876e-12
1.648e-10
-8.055e-12
1.73e-10
-8.163e-12
1.812e-10
-8.19e-12
1.893e-10
-8.126e-12
1.973e-10
-7.963e-12
2.05e-10
-7.691e-12
2.123e-10
-7.307e-12
2.191e-10
-6.806e-12
2.253e-10
-6.187e-12
2.307e-10
-5.455e-12
2.353e-10
-4.616e-12
2.39e-10
-3.681e-12
2.417e-10
-2.666e-12
2.433e-10
-1.592e-12
2.438e-10
-4.81e-13
2.431e-10
6.395e-13
2.414e-10
1.743e-12
2.386e-10
2.805e-12
2.348e-10
3.801e-12
2.301e-10
4.713e-12
2.245e-10
5.527e-12
2.183e-10
6.231e-12
2.115e-10
6.821e-12
2.042e-10
7.296e-12
1.965e-10
7.657e-12
1.886e-10
7.909e-12
1.806e-10
8.058e-12
1.725e-10
8.112e-12
1.644e-10
8.08e-12
1.564e-10
7.973e-12
1.486e-10
7.799e-12
1.41e-10
7.57e-12
1.337e-10
7.296e-12
1.268e-10
6.986e-12
1.201e-10
6.65e-12
1.138e-10
6.295e-12
1.079e-10
5.929e-12
1.023e-10
5.559e-12
9.713e-11
5.19e-12
9.23e-11
4.826e-12
8.783e-11
4.471e-12
8.37e-11
4.129e-12
7.99e-11
3.801e-12
7.641e-11
3.49e-12
7.322e-11
3.195e-12
7.03e-11
2.918e-12
6.764e-11
2.659e-12
6.522e-11
2.417e-12
6.303e-11
2.193e-12
6.104e-11
1.986e-12
5.925e-11
1.795e-12
5.763e-11
1.62e-12
5.617e-11
1.459e-12
5.486e-11
1.313e-12
5.368e-11
1.179e-12
5.262e-11
1.057e-12
5.167e-11
9.461e-13
5.083e-11
8.458e-13
5.007e-11
7.55e-13
4.94e-11
6.731e-13
4.88e-11
5.992e-13
4.827e-11
5.327e-13
4.78e-11
4.731e-13
4.738e-11
4.198e-13
4.7e-11
3.724e-13
4.667e-11
3.304e-13
4.638e-11
2.936e-13
4.612e-11
2.616e-13
4.588e-11
2.345e-13
4.567e-11
2.122e-13
4.548e-11
1.949e-13
4.529e-11
1.829e-13
4.512e-11
1.772e-13
4.494e-11
1.793e-13
4.474e-11
1.921e-13
4.452e-11
2.212e-13
4.425e-11
2.759e-13
4.388e-11
3.665e-13
4.762e-13
9.523e-10
2.37e-10
8.501e-10
3.075e-10
7.275e-10
2.55e-10
6.183e-10
1.929e-10
5.295e-10
1.429e-10
4.595e-10
1.063e-10
4.046e-10
8.035e-11
3.613e-10
6.191e-11
3.267e-10
4.863e-11
2.988e-10
3.885e-11
2.76e-10
3.147e-11
2.573e-10
2.576e-11
2.418e-10
2.125e-11
2.289e-10
1.761e-11
2.181e-10
1.462e-11
2.092e-10
1.212e-11
2.019e-10
9.996e-12
1.959e-10
8.161e-12
1.91e-10
6.552e-12
1.873e-10
5.12e-12
1.844e-10
3.825e-12
1.825e-10
2.635e-12
1.814e-10
1.526e-12
1.81e-10
4.745e-13
1.814e-10
-5.365e-13
1.825e-10
-1.523e-12
1.844e-10
-2.498e-12
1.869e-10
-3.473e-12
1.902e-10
-4.459e-12
1.942e-10
-5.466e-12
1.99e-10
-6.5e-12
2.046e-10
-7.569e-12
2.11e-10
-8.678e-12
2.183e-10
-9.832e-12
2.264e-10
-1.103e-11
2.354e-10
-1.228e-11
2.454e-10
-1.358e-11
2.564e-10
-1.492e-11
2.683e-10
-1.631e-11
2.814e-10
-1.772e-11
2.954e-10
-1.916e-11
3.105e-10
-2.061e-11
3.267e-10
-2.205e-11
3.438e-10
-2.345e-11
3.62e-10
-2.481e-11
3.81e-10
-2.608e-11
4.009e-10
-2.723e-11
4.215e-10
-2.824e-11
4.427e-10
-2.906e-11
4.643e-10
-2.966e-11
4.861e-10
-3e-11
5.08e-10
-3.004e-11
5.296e-10
-2.976e-11
5.507e-10
-2.91e-11
5.711e-10
-2.807e-11
5.904e-10
-2.662e-11
6.084e-10
-2.476e-11
6.247e-10
-2.249e-11
6.39e-10
-1.981e-11
6.512e-10
-1.675e-11
6.609e-10
-1.336e-11
6.679e-10
-9.682e-12
6.721e-10
-5.8e-12
6.734e-10
-1.791e-12
6.718e-10
2.252e-12
6.673e-10
6.24e-12
6.6e-10
1.008e-11
6.501e-10
1.37e-11
6.378e-10
1.702e-11
6.233e-10
2e-11
6.07e-10
2.259e-11
5.89e-10
2.478e-11
5.697e-10
2.656e-11
5.495e-10
2.794e-11
5.284e-10
2.892e-11
5.07e-10
2.953e-11
4.853e-10
2.979e-11
4.636e-10
2.974e-11
4.422e-10
2.941e-11
4.212e-10
2.884e-11
4.007e-10
2.805e-11
3.809e-10
2.71e-11
3.618e-10
2.601e-11
3.437e-10
2.481e-11
3.264e-10
2.354e-11
3.101e-10
2.222e-11
2.948e-10
2.088e-11
2.805e-10
1.954e-11
2.671e-10
1.821e-11
2.546e-10
1.691e-11
2.431e-10
1.565e-11
2.325e-10
1.444e-11
2.227e-10
1.328e-11
2.137e-10
1.218e-11
2.055e-10
1.115e-11
1.98e-10
1.018e-11
1.911e-10
9.272e-12
1.849e-10
8.429e-12
1.792e-10
7.648e-12
1.741e-10
6.927e-12
1.694e-10
6.263e-12
1.653e-10
5.653e-12
1.615e-10
5.094e-12
1.581e-10
4.584e-12
1.55e-10
4.118e-12
1.523e-10
3.694e-12
1.498e-10
3.309e-12
1.476e-10
2.961e-12
1.456e-10
2.645e-12
1.439e-10
2.36e-12
1.423e-10
2.103e-12
1.409e-10
1.873e-12
1.396e-10
1.666e-12
1.385e-10
1.482e-12
1.375e-10
1.319e-12
1.367e-10
1.175e-12
1.359e-10
1.05e-12
1.352e-10
9.438e-13
1.345e-10
8.555e-13
1.339e-10
7.856e-13
1.334e-10
7.353e-13
1.328e-10
7.065e-13
1.323e-10
7.022e-13
1.318e-10
7.275e-13
1.312e-10
7.895e-13
1.306e-10
8.965e-13
1.299e-10
1.047e-12
1.189e-12
9.779e-10
1.966e-10
9.637e-10
3.217e-10
9.014e-10
3.174e-10
8.214e-10
2.729e-10
7.413e-10
2.231e-10
6.685e-10
1.791e-10
6.054e-10
1.435e-10
5.518e-10
1.155e-10
5.067e-10
9.375e-11
4.688e-10
7.675e-11
4.369e-10
6.332e-11
4.101e-10
5.257e-11
3.875e-10
4.384e-11
3.685e-10
3.664e-11
3.525e-10
3.062e-11
3.391e-10
2.552e-11
3.28e-10
2.114e-11
3.188e-10
1.731e-11
3.114e-10
1.394e-11
3.057e-10
1.091e-11
3.013e-10
8.157e-12
2.983e-10
5.619e-12
2.966e-10
3.242e-12
2.961e-10
9.856e-13
2.968e-10
-1.189e-12
2.985e-10
-3.312e-12
3.015e-10
-5.411e-12
3.055e-10
-7.512e-12
3.107e-10
-9.635e-12
3.17e-10
-1.18e-11
3.245e-10
-1.402e-11
3.333e-10
-1.631e-11
3.433e-10
-1.868e-11
3.546e-10
-2.115e-11
3.673e-10
-2.371e-11
3.814e-10
-2.637e-11
3.969e-10
-2.912e-11
4.139e-10
-3.197e-11
4.325e-10
-3.489e-11
4.527e-10
-3.787e-11
4.744e-10
-4.089e-11
4.977e-10
-4.392e-11
5.226e-10
-4.692e-11
5.49e-10
-4.985e-11
5.768e-10
-5.266e-11
6.06e-10
-5.528e-11
6.365e-10
-5.765e-11
6.679e-10
-5.971e-11
7.002e-10
-6.137e-11
7.331e-10
-6.256e-11
7.663e-10
-6.32e-11
7.995e-10
-6.322e-11
8.323e-10
-6.254e-11
8.643e-10
-6.111e-11
8.951e-10
-5.888e-11
9.243e-10
-5.58e-11
9.514e-10
-5.187e-11
9.76e-10
-4.707e-11
9.976e-10
-4.145e-11
1.016e-09
-3.504e-11
1.03e-09
-2.795e-11
1.041e-09
-2.028e-11
1.047e-09
-1.219e-11
1.05e-09
-3.83e-12
1.047e-09
4.601e-12
1.04e-09
1.292e-11
1.03e-09
2.094e-11
1.015e-09
2.85e-11
9.964e-10
3.547e-11
9.746e-10
4.172e-11
9.5e-10
4.72e-11
9.23e-10
5.184e-11
8.939e-10
5.564e-11
8.633e-10
5.859e-11
8.315e-10
6.073e-11
7.989e-10
6.209e-11
7.659e-10
6.273e-11
7.33e-10
6.272e-11
7.003e-10
6.211e-11
6.681e-10
6.099e-11
6.368e-10
5.942e-11
6.064e-10
5.748e-11
5.771e-10
5.525e-11
5.492e-10
5.279e-11
5.225e-10
5.016e-11
4.973e-10
4.742e-11
4.736e-10
4.463e-11
4.513e-10
4.182e-11
4.305e-10
3.903e-11
4.111e-10
3.629e-11
3.931e-10
3.363e-11
3.765e-10
3.107e-11
3.612e-10
2.862e-11
3.47e-10
2.63e-11
3.341e-10
2.41e-11
3.222e-10
2.203e-11
3.114e-10
2.01e-11
3.015e-10
1.83e-11
2.926e-10
1.662e-11
2.844e-10
1.508e-11
2.77e-10
1.365e-11
2.703e-10
1.234e-11
2.643e-10
1.113e-11
2.589e-10
1.003e-11
2.54e-10
9.026e-12
2.495e-10
8.109e-12
2.456e-10
7.276e-12
2.42e-10
6.519e-12
2.388e-10
5.833e-12
2.36e-10
5.213e-12
2.334e-10
4.654e-12
2.311e-10
4.15e-12
2.291e-10
3.699e-12
2.273e-10
3.296e-12
2.257e-10
2.938e-12
2.242e-10
2.623e-12
2.229e-10
2.347e-12
2.218e-10
2.111e-12
2.207e-10
1.914e-12
2.197e-10
1.754e-12
2.188e-10
1.635e-12
2.18e-10
1.558e-12
2.172e-10
1.525e-12
2.163e-10
1.543e-12
2.155e-10
1.614e-12
2.147e-10
1.739e-12
2.138e-10
1.9e-12
2.032e-12
9.752e-10
1.589e-10
9.931e-10
3.038e-10
9.73e-10
3.375e-10
9.272e-10
3.186e-10
8.696e-10
2.807e-10
8.093e-10
2.394e-10
7.516e-10
2.012e-10
6.988e-10
1.683e-10
6.518e-10
1.407e-10
6.106e-10
1.179e-10
5.749e-10
9.91e-11
5.439e-10
8.348e-11
5.174e-10
7.042e-11
4.946e-10
5.941e-11
4.752e-10
5.002e-11
4.588e-10
4.193e-11
4.45e-10
3.489e-11
4.337e-10
2.868e-11
4.244e-10
2.315e-11
4.172e-10
1.815e-11
4.118e-10
1.357e-11
4.081e-10
9.321e-12
4.06e-10
5.328e-12
4.055e-10
1.523e-12
4.064e-10
-2.153e-12
4.089e-10
-5.75e-12
4.128e-10
-9.311e-12
4.181e-10
-1.288e-11
4.25e-10
-1.648e-11
4.333e-10
-2.015e-11
4.432e-10
-2.391e-11
4.547e-10
-2.779e-11
4.678e-10
-3.18e-11
4.826e-10
-3.596e-11
4.992e-10
-4.028e-11
5.176e-10
-4.475e-11
5.378e-10
-4.938e-11
5.6e-10
-5.414e-11
5.842e-10
-5.903e-11
6.103e-10
-6.401e-11
6.385e-10
-6.905e-11
6.686e-10
-7.408e-11
7.008e-10
-7.906e-11
7.348e-10
-8.391e-11
7.707e-10
-8.853e-11
8.082e-10
-9.284e-11
8.473e-10
-9.673e-11
8.877e-10
-1.001e-10
9.291e-10
-1.028e-10
9.712e-10
-1.046e-10
1.014e-09
-1.056e-10
1.056e-09
-1.056e-10
1.098e-09
-1.044e-10
1.139e-09
-1.019e-10
1.178e-09
-9.811e-11
1.215e-09
-9.293e-11
1.249e-09
-8.634e-11
1.281e-09
-7.833e-11
1.308e-09
-6.896e-11
1.331e-09
-5.831e-11
1.35e-09
-4.653e-11
1.363e-09
-3.38e-11
1.372e-09
-2.036e-11
1.374e-09
-6.495e-12
1.371e-09
7.496e-12
1.363e-09
2.131e-11
1.349e-09
3.463e-11
1.331e-09
4.721e-11
1.307e-09
5.881e-11
1.28e-09
6.924e-11
1.249e-09
7.839e-11
1.214e-09
8.618e-11
1.177e-09
9.258e-11
1.138e-09
9.759e-11
1.098e-09
1.013e-10
1.056e-09
1.036e-10
1.014e-09
1.048e-10
9.72e-10
1.049e-10
9.301e-10
1.04e-10
8.888e-10
1.022e-10
8.485e-10
9.973e-11
8.094e-10
9.66e-11
7.717e-10
9.295e-11
7.356e-10
8.892e-11
7.011e-10
8.46e-11
6.685e-10
8.008e-11
6.377e-10
7.545e-11
6.087e-10
7.078e-11
5.816e-10
6.614e-11
5.563e-10
6.158e-11
5.328e-10
5.714e-11
5.11e-10
5.286e-11
4.909e-10
4.875e-11
4.723e-10
4.484e-11
4.553e-10
4.114e-11
4.397e-10
3.766e-11
4.254e-10
3.44e-11
4.123e-10
3.135e-11
4.004e-10
2.852e-11
3.896e-10
2.59e-11
3.798e-10
2.347e-11
3.709e-10
2.124e-11
3.628e-10
1.919e-11
3.555e-10
1.732e-11
3.489e-10
1.56e-11
3.43e-10
1.403e-11
3.377e-10
1.261e-11
3.329e-10
1.131e-11
3.286e-10
1.013e-11
3.247e-10
9.067e-12
3.213e-10
8.105e-12
3.182e-10
7.239e-12
3.154e-10
6.461e-12
3.13e-10
5.765e-12
3.108e-10
5.146e-12
3.088e-10
4.598e-12
3.07e-10
4.119e-12
3.054e-10
3.705e-12
3.04e-10
3.356e-12
3.027e-10
3.069e-12
3.015e-10
2.847e-12
3.003e-10
2.689e-12
2.992e-10
2.599e-12
2.982e-10
2.577e-12
2.972e-10
2.624e-12
2.962e-10
2.731e-12
2.952e-10
2.873e-12
2.982e-12
9.668e-10
1.296e-10
9.945e-10
2.761e-10
9.982e-10
3.339e-10
9.786e-10
3.382e-10
9.433e-10
3.159e-10
8.998e-10
2.829e-10
8.535e-10
2.475e-10
8.078e-10
2.14e-10
7.647e-10
1.838e-10
7.252e-10
1.574e-10
6.896e-10
1.347e-10
6.58e-10
1.151e-10
6.302e-10
9.822e-11
6.06e-10
8.365e-11
5.85e-10
7.098e-11
5.671e-10
5.987e-11
5.519e-10
5.006e-11
5.393e-10
4.131e-11
5.29e-10
3.342e-11
5.209e-10
2.622e-11
5.149e-10
1.959e-11
5.108e-10
1.34e-11
5.086e-10
7.541e-12
5.082e-10
1.936e-12
5.096e-10
-3.496e-12
5.126e-10
-8.824e-12
5.174e-10
-1.411e-11
5.24e-10
-1.94e-11
5.322e-10
-2.476e-11
5.423e-10
-3.021e-11
5.542e-10
-3.58e-11
5.68e-10
-4.156e-11
5.837e-10
-4.752e-11
6.014e-10
-5.368e-11
6.212e-10
-6.007e-11
6.431e-10
-6.667e-11
6.672e-10
-7.35e-11
6.936e-10
-8.052e-11
7.223e-10
-8.771e-11
7.533e-10
-9.503e-11
7.867e-10
-1.024e-10
8.224e-10
-1.098e-10
8.603e-10
-1.17e-10
9.005e-10
-1.241e-10
9.428e-10
-1.308e-10
9.871e-10
-1.371e-10
1.033e-09
-1.427e-10
1.081e-09
-1.475e-10
1.129e-09
-1.514e-10
1.179e-09
-1.54e-10
1.228e-09
-1.554e-10
1.278e-09
-1.552e-10
1.327e-09
-1.533e-10
1.375e-09
-1.496e-10
1.42e-09
-1.44e-10
1.464e-09
-1.363e-10
1.504e-09
-1.266e-10
1.541e-09
-1.149e-10
1.573e-09
-1.011e-10
1.6e-09
-8.554e-11
1.622e-09
-6.829e-11
1.638e-09
-4.965e-11
1.647e-09
-2.999e-11
1.651e-09
-9.69e-12
1.647e-09
1.079e-11
1.637e-09
3.101e-11
1.622e-09
5.054e-11
1.6e-09
6.897e-11
1.573e-09
8.598e-11
1.541e-09
1.013e-10
1.504e-09
1.148e-10
1.464e-09
1.263e-10
1.421e-09
1.357e-10
1.375e-09
1.432e-10
1.328e-09
1.486e-10
1.279e-09
1.523e-10
1.23e-09
1.541e-10
1.181e-09
1.544e-10
1.131e-09
1.532e-10
1.083e-09
1.508e-10
1.035e-09
1.472e-10
9.893e-10
1.427e-10
9.448e-10
1.375e-10
9.021e-10
1.316e-10
8.613e-10
1.254e-10
8.226e-10
1.188e-10
7.861e-10
1.12e-10
7.516e-10
1.052e-10
7.193e-10
9.842e-11
6.892e-10
9.173e-11
6.611e-10
8.521e-11
6.351e-10
7.89e-11
6.11e-10
7.285e-11
5.887e-10
6.708e-11
5.683e-10
6.162e-11
5.494e-10
5.646e-11
5.322e-10
5.163e-11
5.165e-10
4.711e-11
5.021e-10
4.29e-11
4.89e-10
3.9e-11
4.771e-10
3.539e-11
4.663e-10
3.206e-11
4.564e-10
2.9e-11
4.476e-10
2.619e-11
4.396e-10
2.362e-11
4.323e-10
2.127e-11
4.258e-10
1.913e-11
4.199e-10
1.718e-11
4.146e-10
1.541e-11
4.099e-10
1.381e-11
4.056e-10
1.236e-11
4.018e-10
1.105e-11
3.984e-10
9.874e-12
3.954e-10
8.82e-12
3.926e-10
7.88e-12
3.902e-10
7.048e-12
3.88e-10
6.316e-12
3.86e-10
5.681e-12
3.842e-10
5.139e-12
3.826e-10
4.689e-12
3.811e-10
4.328e-12
3.798e-10
4.057e-12
3.785e-10
3.876e-12
3.773e-10
3.783e-12
3.761e-10
3.774e-12
3.75e-10
3.835e-12
3.74e-10
3.936e-12
4.017e-12
9.592e-10
1.079e-10
9.877e-10
2.476e-10
1.003e-09
3.185e-10
1.001e-09
3.405e-10
9.836e-10
3.332e-10
9.56e-10
3.105e-10
9.225e-10
2.811e-10
8.864e-10
2.5e-10
8.503e-10
2.2e-10
8.155e-10
1.922e-10
7.83e-10
1.672e-10
7.533e-10
1.448e-10
7.265e-10
1.25e-10
7.026e-10
1.075e-10
6.817e-10
9.19e-11
6.636e-10
7.801e-11
6.481e-10
6.555e-11
6.351e-10
5.428e-11
6.245e-10
4.401e-11
6.162e-10
3.456e-11
6.1e-10
2.577e-11
6.059e-10
1.75e-11
6.038e-10
9.64e-12
6.037e-10
2.079e-12
6.054e-10
-5.278e-12
6.091e-10
-1.252e-11
6.147e-10
-1.971e-11
6.223e-10
-2.693e-11
6.317e-10
-3.424e-11
6.432e-10
-4.168e-11
6.567e-10
-4.932e-11
6.723e-10
-5.718e-11
6.901e-10
-6.53e-11
7.101e-10
-7.37e-11
7.325e-10
-8.239e-11
7.571e-10
-9.137e-11
7.843e-10
-1.006e-10
8.139e-10
-1.102e-10
8.461e-10
-1.199e-10
8.809e-10
-1.298e-10
9.183e-10
-1.398e-10
9.582e-10
-1.497e-10
1.001e-09
-1.595e-10
1.046e-09
-1.69e-10
1.093e-09
-1.781e-10
1.142e-09
-1.864e-10
1.193e-09
-1.94e-10
1.246e-09
-2.004e-10
1.3e-09
-2.055e-10
1.355e-09
-2.09e-10
1.411e-09
-2.107e-10
1.466e-09
-2.103e-10
1.52e-09
-2.077e-10
1.573e-09
-2.026e-10
1.624e-09
-1.949e-10
1.672e-09
-1.845e-10
1.717e-09
-1.714e-10
1.758e-09
-1.555e-10
1.793e-09
-1.369e-10
1.824e-09
-1.158e-10
1.848e-09
-9.252e-11
1.866e-09
-6.734e-11
1.876e-09
-4.076e-11
1.88e-09
-1.332e-11
1.876e-09
1.438e-11
1.866e-09
4.173e-11
1.848e-09
6.813e-11
1.824e-09
9.307e-11
1.794e-09
1.161e-10
1.758e-09
1.368e-10
1.718e-09
1.551e-10
1.674e-09
1.707e-10
1.626e-09
1.835e-10
1.575e-09
1.937e-10
1.523e-09
2.012e-10
1.469e-09
2.063e-10
1.414e-09
2.089e-10
1.359e-09
2.094e-10
1.304e-09
2.08e-10
1.25e-09
2.048e-10
1.197e-09
2.001e-10
1.146e-09
1.942e-10
1.096e-09
1.872e-10
1.048e-09
1.794e-10
1.002e-09
1.71e-10
9.591e-10
1.622e-10
9.181e-10
1.531e-10
8.794e-10
1.439e-10
8.431e-10
1.347e-10
8.091e-10
1.257e-10
7.774e-10
1.169e-10
7.48e-10
1.083e-10
7.208e-10
1.001e-10
6.956e-10
9.227e-11
6.724e-10
8.483e-11
6.51e-10
7.781e-11
6.314e-10
7.122e-11
6.135e-10
6.505e-11
5.971e-10
5.93e-11
5.821e-10
5.395e-11
5.685e-10
4.901e-11
5.561e-10
4.444e-11
5.449e-10
4.024e-11
5.347e-10
3.638e-11
5.255e-10
3.284e-11
5.171e-10
2.96e-11
5.096e-10
2.665e-11
5.028e-10
2.396e-11
4.967e-10
2.152e-11
4.912e-10
1.93e-11
4.863e-10
1.729e-11
4.819e-10
1.548e-11
4.779e-10
1.384e-11
4.744e-10
1.238e-11
4.712e-10
1.107e-11
4.683e-10
9.903e-12
4.658e-10
8.878e-12
4.634e-10
7.983e-12
4.614e-10
7.213e-12
4.595e-10
6.564e-12
4.578e-10
6.033e-12
4.562e-10
5.618e-12
4.548e-10
5.316e-12
4.535e-10
5.122e-12
4.522e-10
5.029e-12
4.51e-10
5.021e-12
4.499e-10
5.066e-12
5.115e-12
9.537e-10
9.173e-11
9.797e-10
2.215e-10
1e-09
2.981e-10
1.008e-09
3.322e-10
1.004e-09
3.374e-10
9.896e-10
3.249e-10
9.68e-10
3.027e-10
9.42e-10
2.76e-10
9.139e-10
2.481e-10
8.854e-10
2.207e-10
8.577e-10
1.949e-10
8.315e-10
1.71e-10
8.072e-10
1.492e-10
7.852e-10
1.295e-10
7.656e-10
1.115e-10
7.484e-10
9.526e-11
7.335e-10
8.042e-11
7.21e-10
6.683e-11
7.107e-10
5.429e-11
7.026e-10
4.263e-11
6.967e-10
3.169e-11
6.929e-10
2.133e-11
6.911e-10
1.141e-11
6.914e-10
1.823e-12
6.936e-10
-7.546e-12
6.979e-10
-1.679e-11
7.042e-10
-2.601e-11
7.125e-10
-3.528e-11
7.23e-10
-4.466e-11
7.355e-10
-5.424e-11
7.503e-10
-6.406e-11
7.673e-10
-7.417e-11
7.866e-10
-8.46e-11
8.083e-10
-9.54e-11
8.324e-10
-1.066e-10
8.592e-10
-1.181e-10
8.885e-10
-1.3e-10
9.205e-10
-1.422e-10
9.552e-10
-1.546e-10
9.927e-10
-1.673e-10
1.033e-09
-1.8e-10
1.076e-09
-1.927e-10
1.122e-09
-2.052e-10
1.17e-09
-2.173e-10
1.221e-09
-2.288e-10
1.273e-09
-2.394e-10
1.328e-09
-2.489e-10
1.385e-09
-2.57e-10
1.443e-09
-2.634e-10
1.502e-09
-2.678e-10
1.561e-09
-2.699e-10
1.62e-09
-2.693e-10
1.678e-09
-2.659e-10
1.735e-09
-2.593e-10
1.79e-09
-2.495e-10
1.841e-09
-2.362e-10
1.889e-09
-2.193e-10
1.933e-09
-1.99e-10
1.971e-09
-1.753e-10
2.004e-09
-1.484e-10
2.03e-09
-1.186e-10
2.049e-09
-8.639e-11
2.06e-09
-5.238e-11
2.064e-09
-1.728e-11
2.06e-09
1.817e-11
2.049e-09
5.316e-11
2.03e-09
8.695e-11
2.004e-09
1.189e-10
1.972e-09
1.483e-10
1.934e-09
1.748e-10
1.891e-09
1.982e-10
1.844e-09
2.181e-10
1.793e-09
2.347e-10
1.738e-09
2.478e-10
1.682e-09
2.575e-10
1.624e-09
2.64e-10
1.566e-09
2.676e-10
1.507e-09
2.684e-10
1.448e-09
2.667e-10
1.39e-09
2.628e-10
1.333e-09
2.569e-10
1.278e-09
2.494e-10
1.225e-09
2.406e-10
1.173e-09
2.308e-10
1.124e-09
2.201e-10
1.077e-09
2.089e-10
1.033e-09
1.974e-10
9.914e-10
1.857e-10
9.522e-10
1.74e-10
9.155e-10
1.624e-10
8.812e-10
1.511e-10
8.493e-10
1.402e-10
8.197e-10
1.297e-10
7.924e-10
1.196e-10
7.671e-10
1.101e-10
7.439e-10
1.011e-10
7.225e-10
9.258e-11
7.029e-10
8.463e-11
6.85e-10
7.722e-11
6.686e-10
7.032e-11
6.537e-10
6.393e-11
6.401e-10
5.803e-11
6.278e-10
5.259e-11
6.166e-10
4.759e-11
6.064e-10
4.3e-11
5.972e-10
3.88e-11
5.889e-10
3.496e-11
5.814e-10
3.146e-11
5.746e-10
2.828e-11
5.686e-10
2.538e-11
5.631e-10
2.276e-11
5.582e-10
2.039e-11
5.538e-10
1.826e-11
5.498e-10
1.634e-11
5.462e-10
1.462e-11
5.431e-10
1.309e-11
5.402e-10
1.173e-11
5.376e-10
1.055e-11
5.353e-10
9.518e-12
5.333e-10
8.642e-12
5.314e-10
7.913e-12
5.297e-10
7.326e-12
5.281e-10
6.877e-12
5.267e-10
6.558e-12
5.253e-10
6.359e-12
5.241e-10
6.263e-12
5.229e-10
6.243e-12
6.255e-12
9.498e-10
7.939e-11
9.727e-10
1.987e-10
9.944e-10
2.764e-10
1.009e-09
3.181e-10
1.013e-09
3.329e-10
1.009e-09
3.293e-10
9.971e-10
3.143e-10
9.803e-10
2.928e-10
9.603e-10
2.681e-10
9.386e-10
2.424e-10
9.165e-10
2.17e-10
8.947e-10
1.928e-10
8.741e-10
1.699e-10
8.549e-10
1.487e-10
8.374e-10
1.29e-10
8.219e-10
1.108e-10
8.084e-10
9.395e-11
7.969e-10
7.831e-11
7.875e-10
6.371e-11
7.801e-10
4.999e-11
7.748e-10
3.701e-11
7.715e-10
2.461e-11
7.702e-10
1.268e-11
7.71e-10
1.071e-12
7.738e-10
-1.032e-11
7.786e-10
-2.161e-11
7.855e-10
-3.289e-11
7.944e-10
-4.425e-11
8.056e-10
-5.578e-11
8.189e-10
-6.755e-11
8.344e-10
-7.963e-11
8.523e-10
-9.207e-11
8.727e-10
-1.049e-10
8.954e-10
-1.182e-10
9.208e-10
-1.319e-10
9.488e-10
-1.461e-10
9.795e-10
-1.607e-10
1.013e-09
-1.756e-10
1.049e-09
-1.909e-10
1.088e-09
-2.064e-10
1.13e-09
-2.22e-10
1.175e-09
-2.375e-10
1.223e-09
-2.528e-10
1.273e-09
-2.676e-10
1.326e-09
-2.816e-10
1.381e-09
-2.945e-10
1.438e-09
-3.061e-10
1.497e-09
-3.16e-10
1.557e-09
-3.237e-10
1.619e-09
-3.29e-10
1.68e-09
-3.314e-10
1.742e-09
-3.307e-10
1.802e-09
-3.264e-10
1.861e-09
-3.183e-10
1.918e-09
-3.061e-10
1.971e-09
-2.898e-10
2.021e-09
-2.692e-10
2.066e-09
-2.443e-10
2.106e-09
-2.153e-10
2.14e-09
-1.823e-10
2.168e-09
-1.458e-10
2.187e-09
-1.063e-10
2.2e-09
-6.457e-11
2.204e-09
-2.146e-11
2.2e-09
2.207e-11
2.188e-09
6.505e-11
2.168e-09
1.065e-10
2.142e-09
1.457e-10
2.108e-09
1.818e-10
2.069e-09
2.143e-10
2.024e-09
2.429e-10
1.975e-09
2.674e-10
1.921e-09
2.877e-10
1.865e-09
3.039e-10
1.807e-09
3.159e-10
1.747e-09
3.24e-10
1.686e-09
3.285e-10
1.625e-09
3.297e-10
1.564e-09
3.277e-10
1.503e-09
3.231e-10
1.444e-09
3.16e-10
1.387e-09
3.07e-10
1.331e-09
2.963e-10
1.277e-09
2.843e-10
1.226e-09
2.714e-10
1.177e-09
2.577e-10
1.131e-09
2.436e-10
1.087e-09
2.293e-10
1.046e-09
2.15e-10
1.008e-09
2.009e-10
9.72e-10
1.871e-10
9.386e-10
1.737e-10
9.075e-10
1.607e-10
8.787e-10
1.484e-10
8.522e-10
1.367e-10
8.277e-10
1.256e-10
8.051e-10
1.151e-10
7.845e-10
1.053e-10
7.655e-10
9.616e-11
7.482e-10
8.764e-11
7.324e-10
7.975e-11
7.18e-10
7.244e-11
7.049e-10
6.57e-11
6.93e-10
5.95e-11
6.821e-10
5.381e-11
6.723e-10
4.859e-11
6.635e-10
4.382e-11
6.555e-10
3.947e-11
6.482e-10
3.551e-11
6.417e-10
3.19e-11
6.358e-10
2.863e-11
6.306e-10
2.567e-11
6.258e-10
2.3e-11
6.216e-10
2.06e-11
6.177e-10
1.844e-11
6.143e-10
1.651e-11
6.112e-10
1.481e-11
6.085e-10
1.33e-11
6.06e-10
1.199e-11
6.038e-10
1.087e-11
6.018e-10
9.917e-12
6e-10
9.137e-12
5.983e-10
8.519e-12
5.968e-10
8.055e-12
5.955e-10
7.733e-12
5.942e-10
7.537e-12
5.93e-10
7.443e-12
7.417e-12
9.472e-10
6.965e-11
9.671e-10
1.788e-10
9.885e-10
2.55e-10
1.006e-09
3.009e-10
1.016e-09
3.226e-10
1.019e-09
3.264e-10
1.015e-09
3.18e-10
1.006e-09
3.017e-10
9.937e-10
2.807e-10
9.786e-10
2.575e-10
9.621e-10
2.335e-10
9.453e-10
2.096e-10
9.287e-10
1.865e-10
9.129e-10
1.645e-10
8.982e-10
1.437e-10
8.849e-10
1.24e-10
8.733e-10
1.056e-10
8.633e-10
8.827e-11
8.551e-10
7.188e-11
8.488e-10
5.632e-11
8.443e-10
4.147e-11
8.418e-10
2.717e-11
8.411e-10
1.331e-11
8.424e-10
-2.362e-13
8.457e-10
-1.36e-11
8.51e-10
-2.689e-11
8.583e-10
-4.021e-11
8.677e-10
-5.366e-11
8.793e-10
-6.733e-11
8.93e-10
-8.13e-11
9.09e-10
-9.565e-11
9.274e-10
-1.104e-10
9.482e-10
-1.257e-10
9.714e-10
-1.415e-10
9.973e-10
-1.578e-10
1.026e-09
-1.746e-10
1.057e-09
-1.919e-10
1.091e-09
-2.097e-10
1.128e-09
-2.278e-10
1.168e-09
-2.462e-10
1.21e-09
-2.647e-10
1.256e-09
-2.83e-10
1.304e-09
-3.011e-10
1.355e-09
-3.186e-10
1.409e-09
-3.352e-10
1.465e-09
-3.505e-10
1.523e-09
-3.641e-10
1.583e-09
-3.758e-10
1.644e-09
-3.849e-10
1.706e-09
-3.91e-10
1.768e-09
-3.938e-10
1.83e-09
-3.928e-10
1.891e-09
-3.876e-10
1.951e-09
-3.779e-10
2.008e-09
-3.635e-10
2.063e-09
-3.441e-10
2.113e-09
-3.197e-10
2.159e-09
-2.902e-10
2.2e-09
-2.558e-10
2.234e-09
-2.168e-10
2.262e-09
-1.735e-10
2.282e-09
-1.266e-10
2.295e-09
-7.7e-11
2.299e-09
-2.573e-11
2.295e-09
2.603e-11
2.283e-09
7.714e-11
2.263e-09
1.265e-10
2.236e-09
1.729e-10
2.202e-09
2.157e-10
2.162e-09
2.543e-10
2.116e-09
2.882e-10
2.067e-09
3.173e-10
2.013e-09
3.414e-10
1.956e-09
3.606e-10
1.897e-09
3.749e-10
1.837e-09
3.847e-10
1.775e-09
3.902e-10
1.713e-09
3.917e-10
1.651e-09
3.896e-10
1.59e-09
3.842e-10
1.53e-09
3.76e-10
1.472e-09
3.654e-10
1.415e-09
3.529e-10
1.361e-09
3.387e-10
1.309e-09
3.235e-10
1.259e-09
3.073e-10
1.212e-09
2.907e-10
1.167e-09
2.738e-10
1.126e-09
2.568e-10
1.086e-09
2.401e-10
1.05e-09
2.237e-10
1.016e-09
2.078e-10
9.839e-10
1.925e-10
9.545e-10
1.778e-10
9.273e-10
1.638e-10
9.022e-10
1.506e-10
8.791e-10
1.382e-10
8.579e-10
1.265e-10
8.385e-10
1.156e-10
8.207e-10
1.055e-10
8.044e-10
9.602e-11
7.895e-10
8.729e-11
7.76e-10
7.923e-11
7.637e-10
7.181e-11
7.525e-10
6.499e-11
7.424e-10
5.873e-11
7.332e-10
5.301e-11
7.249e-10
4.778e-11
7.174e-10
4.301e-11
7.106e-10
3.868e-11
7.045e-10
3.474e-11
6.99e-10
3.117e-11
6.94e-10
2.795e-11
6.896e-10
2.504e-11
6.856e-10
2.243e-11
6.82e-10
2.009e-11
6.788e-10
1.801e-11
6.76e-10
1.618e-11
6.734e-10
1.457e-11
6.711e-10
1.318e-11
6.69e-10
1.199e-11
6.671e-10
1.1e-11
6.654e-10
1.02e-11
6.639e-10
9.58e-12
6.625e-10
9.124e-12
6.612e-10
8.818e-12
6.6e-10
8.644e-12
8.578e-12
9.454e-10
6.173e-11
9.627e-10
1.615e-10
9.83e-10
2.347e-10
1.001e-09
2.825e-10
1.015e-09
3.088e-10
1.023e-09
3.183e-10
1.026e-09
3.154e-10
1.024e-09
3.04e-10
1.017e-09
2.87e-10
1.008e-09
2.666e-10
9.972e-10
2.445e-10
9.851e-10
2.216e-10
9.728e-10
1.989e-10
9.606e-10
1.767e-10
9.49e-10
1.552e-10
9.383e-10
1.347e-10
9.288e-10
1.151e-10
9.207e-10
9.641e-11
9.14e-10
7.854e-11
9.089e-10
6.14e-11
9.055e-10
4.489e-11
9.038e-10
2.888e-11
9.039e-10
1.325e-11
9.058e-10
-2.113e-12
9.095e-10
-1.734e-11
9.151e-10
-3.253e-11
9.227e-10
-4.781e-11
9.324e-10
-6.328e-11
9.441e-10
-7.903e-11
9.579e-10
-9.514e-11
9.74e-10
-1.117e-10
9.923e-10
-1.288e-10
1.013e-09
-1.464e-10
1.036e-09
-1.646e-10
1.062e-09
-1.835e-10
1.09e-09
-2.029e-10
1.121e-09
-2.229e-10
1.155e-09
-2.435e-10
1.192e-09
-2.644e-10
1.231e-09
-2.856e-10
1.273e-09
-3.069e-10
1.319e-09
-3.281e-10
1.366e-09
-3.49e-10
1.417e-09
-3.691e-10
1.47e-09
-3.882e-10
1.525e-09
-4.059e-10
1.583e-09
-4.216e-10
1.642e-09
-4.349e-10
1.702e-09
-4.453e-10
1.764e-09
-4.523e-10
1.825e-09
-4.554e-10
1.887e-09
-4.541e-10
1.947e-09
-4.48e-10
2.006e-09
-4.367e-10
2.062e-09
-4.2e-10
2.116e-09
-3.976e-10
2.166e-09
-3.694e-10
2.211e-09
-3.354e-10
2.251e-09
-2.958e-10
2.285e-09
-2.508e-10
2.312e-09
-2.009e-10
2.332e-09
-1.467e-10
2.345e-09
-8.929e-11
2.349e-09
-2.995e-11
2.345e-09
2.995e-11
2.333e-09
8.91e-11
2.313e-09
1.462e-10
2.286e-09
1.999e-10
2.253e-09
2.492e-10
2.213e-09
2.937e-10
2.169e-09
3.328e-10
2.12e-09
3.663e-10
2.067e-09
3.941e-10
2.011e-09
4.163e-10
1.953e-09
4.33e-10
1.893e-09
4.445e-10
1.833e-09
4.51e-10
1.771e-09
4.529e-10
1.71e-09
4.506e-10
1.65e-09
4.446e-10
1.591e-09
4.353e-10
1.533e-09
4.232e-10
1.477e-09
4.088e-10
1.423e-09
3.926e-10
1.371e-09
3.751e-10
1.322e-09
3.565e-10
1.275e-09
3.373e-10
1.231e-09
3.179e-10
1.19e-09
2.984e-10
1.151e-09
2.791e-10
1.114e-09
2.601e-10
1.08e-09
2.418e-10
1.049e-09
2.241e-10
1.02e-09
2.071e-10
9.925e-10
1.91e-10
9.675e-10
1.757e-10
9.444e-10
1.613e-10
9.232e-10
1.477e-10
9.037e-10
1.351e-10
8.859e-10
1.233e-10
8.696e-10
1.123e-10
8.547e-10
1.022e-10
8.411e-10
9.282e-11
8.287e-10
8.418e-11
8.174e-10
7.624e-11
8.072e-10
6.895e-11
7.98e-10
6.228e-11
7.896e-10
5.617e-11
7.82e-10
5.06e-11
7.751e-10
4.553e-11
7.689e-10
4.093e-11
7.634e-10
3.675e-11
7.583e-10
3.296e-11
7.538e-10
2.955e-11
7.498e-10
2.648e-11
7.461e-10
2.373e-11
7.429e-10
2.127e-11
7.4e-10
1.91e-11
7.373e-10
1.718e-11
7.35e-10
1.552e-11
7.329e-10
1.409e-11
7.31e-10
1.288e-11
7.294e-10
1.189e-11
7.278e-10
1.11e-11
7.265e-10
1.05e-11
7.252e-10
1.008e-11
7.24e-10
9.824e-12
9.716e-12
9.441e-10
5.512e-11
9.593e-10
1.462e-10
9.783e-10
2.157e-10
9.971e-10
2.638e-10
1.013e-09
2.929e-10
1.025e-09
3.066e-10
1.032e-09
3.084e-10
1.034e-09
3.012e-10
1.034e-09
2.879e-10
1.03e-09
2.705e-10
1.024e-09
2.505e-10
1.016e-09
2.291e-10
1.008e-09
2.072e-10
9.993e-10
1.853e-10
9.909e-10
1.637e-10
9.83e-10
1.426e-10
9.758e-10
1.223e-10
9.697e-10
1.026e-10
9.647e-10
8.353e-11
9.61e-10
6.51e-11
9.587e-10
4.718e-11
9.579e-10
2.967e-11
9.587e-10
1.247e-11
9.611e-10
-4.531e-12
9.652e-10
-2.146e-11
9.711e-10
-3.842e-11
9.788e-10
-5.553e-11
9.884e-10
-7.289e-11
1e-09
-9.06e-11
1.014e-09
-1.088e-10
1.029e-09
-1.274e-10
1.047e-09
-1.467e-10
1.067e-09
-1.666e-10
1.09e-09
-1.872e-10
1.115e-09
-2.085e-10
1.142e-09
-2.304e-10
1.173e-09
-2.53e-10
1.205e-09
-2.762e-10
1.241e-09
-2.998e-10
1.279e-09
-3.238e-10
1.32e-09
-3.478e-10
1.363e-09
-3.718e-10
1.41e-09
-3.953e-10
1.458e-09
-4.18e-10
1.51e-09
-4.395e-10
1.563e-09
-4.594e-10
1.619e-09
-4.771e-10
1.676e-09
-4.92e-10
1.734e-09
-5.037e-10
1.793e-09
-5.114e-10
1.853e-09
-5.147e-10
1.911e-09
-5.13e-10
1.969e-09
-5.059e-10
2.026e-09
-4.929e-10
2.079e-09
-4.739e-10
2.13e-09
-4.485e-10
2.178e-09
-4.167e-10
2.221e-09
-3.784e-10
2.259e-09
-3.337e-10
2.291e-09
-2.831e-10
2.317e-09
-2.27e-10
2.336e-09
-1.659e-10
2.348e-09
-1.01e-10
2.352e-09
-3.394e-11
2.348e-09
3.371e-11
2.337e-09
1.005e-10
2.318e-09
1.65e-10
2.292e-09
2.256e-10
2.26e-09
2.811e-10
2.223e-09
3.31e-10
2.181e-09
3.751e-10
2.134e-09
4.129e-10
2.084e-09
4.443e-10
2.031e-09
4.695e-10
1.975e-09
4.885e-10
1.918e-09
5.017e-10
1.86e-09
5.093e-10
1.801e-09
5.117e-10
1.742e-09
5.094e-10
1.684e-09
5.028e-10
1.627e-09
4.925e-10
1.571e-09
4.79e-10
1.517e-09
4.629e-10
1.465e-09
4.447e-10
1.415e-09
4.25e-10
1.367e-09
4.041e-10
1.322e-09
3.825e-10
1.279e-09
3.606e-10
1.239e-09
3.386e-10
1.202e-09
3.168e-10
1.166e-09
2.955e-10
1.133e-09
2.747e-10
1.103e-09
2.547e-10
1.074e-09
2.356e-10
1.048e-09
2.173e-10
1.023e-09
2e-10
1.001e-09
1.837e-10
9.803e-10
1.684e-10
9.613e-10
1.541e-10
9.439e-10
1.407e-10
9.279e-10
1.283e-10
9.134e-10
1.168e-10
9e-10
1.061e-10
8.879e-10
9.631e-11
8.769e-10
8.728e-11
8.668e-10
7.899e-11
8.577e-10
7.138e-11
8.495e-10
6.443e-11
8.42e-10
5.808e-11
8.352e-10
5.229e-11
8.291e-10
4.703e-11
8.236e-10
4.225e-11
8.187e-10
3.792e-11
8.142e-10
3.401e-11
8.102e-10
3.049e-11
8.066e-10
2.733e-11
8.034e-10
2.45e-11
8.005e-10
2.199e-11
7.979e-10
1.977e-11
7.956e-10
1.783e-11
7.935e-10
1.615e-11
7.917e-10
1.472e-11
7.9e-10
1.354e-11
7.886e-10
1.258e-11
7.872e-10
1.183e-11
7.86e-10
1.13e-11
7.849e-10
1.096e-11
1.081e-11
9.431e-10
4.948e-11
9.567e-10
1.327e-10
9.743e-10
1.981e-10
9.928e-10
2.453e-10
1.01e-09
2.76e-10
1.024e-09
2.926e-10
1.034e-09
2.979e-10
1.041e-09
2.944e-10
1.044e-09
2.845e-10
1.045e-09
2.699e-10
1.043e-09
2.521e-10
1.04e-09
2.325e-10
1.036e-09
2.117e-10
1.03e-09
1.904e-10
1.025e-09
1.69e-10
1.02e-09
1.479e-10
1.015e-09
1.271e-10
1.011e-09
1.067e-10
1.008e-09
8.683e-11
1.005e-09
6.738e-11
1.004e-09
4.832e-11
1.004e-09
2.956e-11
1.006e-09
1.101e-11
1.009e-09
-7.426e-12
1.013e-09
-2.586e-11
1.019e-09
-4.441e-11
1.027e-09
-6.318e-11
1.036e-09
-8.227e-11
1.047e-09
-1.018e-10
1.06e-09
-1.218e-10
1.075e-09
-1.424e-10
1.092e-09
-1.637e-10
1.112e-09
-1.858e-10
1.133e-09
-2.085e-10
1.157e-09
-2.321e-10
1.183e-09
-2.564e-10
1.211e-09
-2.814e-10
1.242e-09
-3.071e-10
1.275e-09
-3.332e-10
1.311e-09
-3.597e-10
1.35e-09
-3.864e-10
1.391e-09
-4.129e-10
1.434e-09
-4.389e-10
1.48e-09
-4.64e-10
1.529e-09
-4.878e-10
1.579e-09
-5.097e-10
1.631e-09
-5.292e-10
1.685e-09
-5.456e-10
1.74e-09
-5.583e-10
1.795e-09
-5.667e-10
1.85e-09
-5.7e-10
1.905e-09
-5.678e-10
1.958e-09
-5.595e-10
2.01e-09
-5.447e-10
2.06e-09
-5.233e-10
2.106e-09
-4.95e-10
2.149e-09
-4.597e-10
2.188e-09