/*--------------------------------*- C++ -*----------------------------------*\
  =========                 |
  \\      /  F ield         | OpenFOAM: The Open Source CFD Toolbox
   \\    /   O peration     | Website:  https://openfoam.org
    \\  /    A nd           | Version:  7
     \\/     M anipulation  |
\*---------------------------------------------------------------------------*/
FoamFile
{
    version     2.0;
    format      ascii;
    class       volVectorField;
    location    "59.999473411";
    object      U;
}
// * * * * * * * * * * * * * * * * * * * * * * * * * * * * * * * * * * * * * //

dimensions      [0 1 -1 0 0 0 0];

internalField   nonuniform List<vector> 
4096
(
(0.001039 0.0001611 0)
(0.0007463 0.0001314 0)
(0.0005301 8.474e-05 0)
(0.0003918 5.358e-05 0)
(0.0003036 3.465e-05 0)
(0.0002457 2.325e-05 0)
(0.0002062 1.629e-05 0)
(0.000178 1.19e-05 0)
(0.0001571 9.001e-06 0)
(0.0001411 7.005e-06 0)
(0.0001285 5.569e-06 0)
(0.0001184 4.497e-06 0)
(0.0001103 3.672e-06 0)
(0.0001036 3.02e-06 0)
(9.805e-05 2.492e-06 0)
(9.35e-05 2.056e-06 0)
(8.975e-05 1.689e-06 0)
(8.669e-05 1.375e-06 0)
(8.421e-05 1.101e-06 0)
(8.225e-05 8.584e-07 0)
(8.076e-05 6.399e-07 0)
(7.968e-05 4.399e-07 0)
(7.898e-05 2.538e-07 0)
(7.865e-05 7.779e-08 0)
(7.866e-05 -9.137e-08 0)
(7.901e-05 -2.564e-07 0)
(7.969e-05 -4.196e-07 0)
(8.069e-05 -5.832e-07 0)
(8.202e-05 -7.488e-07 0)
(8.369e-05 -9.182e-07 0)
(8.57e-05 -1.093e-06 0)
(8.807e-05 -1.274e-06 0)
(9.08e-05 -1.462e-06 0)
(9.392e-05 -1.658e-06 0)
(9.744e-05 -1.863e-06 0)
(0.0001014 -2.078e-06 0)
(0.0001058 -2.301e-06 0)
(0.0001106 -2.533e-06 0)
(0.0001159 -2.772e-06 0)
(0.0001217 -3.019e-06 0)
(0.000128 -3.27e-06 0)
(0.0001348 -3.523e-06 0)
(0.0001421 -3.777e-06 0)
(0.0001499 -4.026e-06 0)
(0.0001582 -4.267e-06 0)
(0.0001669 -4.495e-06 0)
(0.0001761 -4.704e-06 0)
(0.0001857 -4.888e-06 0)
(0.0001957 -5.041e-06 0)
(0.0002058 -5.155e-06 0)
(0.0002162 -5.224e-06 0)
(0.0002267 -5.242e-06 0)
(0.0002371 -5.201e-06 0)
(0.0002474 -5.096e-06 0)
(0.0002575 -4.922e-06 0)
(0.000267 -4.676e-06 0)
(0.0002761 -4.356e-06 0)
(0.0002844 -3.96e-06 0)
(0.0002918 -3.491e-06 0)
(0.0002983 -2.954e-06 0)
(0.0003036 -2.356e-06 0)
(0.0003077 -1.706e-06 0)
(0.0003104 -1.019e-06 0)
(0.0003117 -3.078e-07 0)
(0.0003116 4.093e-07 0)
(0.0003101 1.116e-06 0)
(0.0003072 1.795e-06 0)
(0.000303 2.433e-06 0)
(0.0002975 3.017e-06 0)
(0.0002909 3.537e-06 0)
(0.0002834 3.988e-06 0)
(0.0002751 4.366e-06 0)
(0.000266 4.67e-06 0)
(0.0002565 4.901e-06 0)
(0.0002465 5.062e-06 0)
(0.0002363 5.157e-06 0)
(0.0002259 5.192e-06 0)
(0.0002156 5.171e-06 0)
(0.0002053 5.102e-06 0)
(0.0001952 4.992e-06 0)
(0.0001854 4.845e-06 0)
(0.0001759 4.67e-06 0)
(0.0001667 4.471e-06 0)
(0.000158 4.256e-06 0)
(0.0001497 4.029e-06 0)
(0.0001419 3.795e-06 0)
(0.0001345 3.558e-06 0)
(0.0001276 3.321e-06 0)
(0.0001212 3.089e-06 0)
(0.0001153 2.862e-06 0)
(0.0001098 2.643e-06 0)
(0.0001047 2.433e-06 0)
(0.0001 2.233e-06 0)
(9.576e-05 2.045e-06 0)
(9.185e-05 1.867e-06 0)
(8.828e-05 1.701e-06 0)
(8.503e-05 1.547e-06 0)
(8.208e-05 1.404e-06 0)
(7.941e-05 1.271e-06 0)
(7.699e-05 1.149e-06 0)
(7.48e-05 1.037e-06 0)
(7.283e-05 9.34e-07 0)
(7.106e-05 8.4e-07 0)
(6.946e-05 7.543e-07 0)
(6.803e-05 6.764e-07 0)
(6.675e-05 6.055e-07 0)
(6.56e-05 5.413e-07 0)
(6.458e-05 4.832e-07 0)
(6.366e-05 4.308e-07 0)
(6.285e-05 3.835e-07 0)
(6.213e-05 3.409e-07 0)
(6.148e-05 3.028e-07 0)
(6.091e-05 2.687e-07 0)
(6.04e-05 2.383e-07 0)
(5.995e-05 2.114e-07 0)
(5.955e-05 1.879e-07 0)
(5.92e-05 1.675e-07 0)
(5.888e-05 1.501e-07 0)
(5.859e-05 1.358e-07 0)
(5.833e-05 1.247e-07 0)
(5.809e-05 1.171e-07 0)
(5.786e-05 1.134e-07 0)
(5.763e-05 1.148e-07 0)
(5.74e-05 1.23e-07 0)
(5.713e-05 1.416e-07 0)
(5.681e-05 1.766e-07 0)
(5.64e-05 2.346e-07 0)
(5.586e-05 3.048e-07 0)
(0.001209 0.0003128 0)
(0.001154 0.0003282 0)
(0.00101 0.000248 0)
(0.0008613 0.000177 0)
(0.0007346 0.0001261 0)
(0.0006329 9.131e-05 0)
(0.000553 6.771e-05 0)
(0.0004901 5.152e-05 0)
(0.0004403 4.013e-05 0)
(0.0004003 3.187e-05 0)
(0.0003679 2.571e-05 0)
(0.0003413 2.098e-05 0)
(0.0003194 1.727e-05 0)
(0.0003012 1.429e-05 0)
(0.0002861 1.185e-05 0)
(0.0002735 9.814e-06 0)
(0.0002631 8.086e-06 0)
(0.0002546 6.598e-06 0)
(0.0002476 5.294e-06 0)
(0.0002421 4.135e-06 0)
(0.0002379 3.088e-06 0)
(0.0002348 2.127e-06 0)
(0.0002329 1.23e-06 0)
(0.0002319 3.814e-07 0)
(0.0002319 -4.347e-07 0)
(0.0002329 -1.231e-06 0)
(0.0002348 -2.018e-06 0)
(0.0002376 -2.806e-06 0)
(0.0002414 -3.603e-06 0)
(0.0002461 -4.416e-06 0)
(0.0002517 -5.253e-06 0)
(0.0002583 -6.118e-06 0)
(0.000266 -7.016e-06 0)
(0.0002747 -7.951e-06 0)
(0.0002846 -8.925e-06 0)
(0.0002955 -9.939e-06 0)
(0.0003077 -1.099e-05 0)
(0.0003211 -1.208e-05 0)
(0.0003358 -1.321e-05 0)
(0.0003518 -1.436e-05 0)
(0.0003691 -1.553e-05 0)
(0.0003878 -1.671e-05 0)
(0.0004078 -1.789e-05 0)
(0.0004291 -1.904e-05 0)
(0.0004517 -2.014e-05 0)
(0.0004755 -2.118e-05 0)
(0.0005004 -2.213e-05 0)
(0.0005263 -2.296e-05 0)
(0.0005531 -2.364e-05 0)
(0.0005805 -2.414e-05 0)
(0.0006083 -2.442e-05 0)
(0.0006362 -2.447e-05 0)
(0.0006641 -2.424e-05 0)
(0.0006914 -2.372e-05 0)
(0.000718 -2.289e-05 0)
(0.0007434 -2.171e-05 0)
(0.0007673 -2.02e-05 0)
(0.0007892 -1.835e-05 0)
(0.0008088 -1.617e-05 0)
(0.0008257 -1.367e-05 0)
(0.0008397 -1.09e-05 0)
(0.0008504 -7.903e-06 0)
(0.0008576 -4.73e-06 0)
(0.0008611 -1.454e-06 0)
(0.0008609 1.851e-06 0)
(0.000857 5.109e-06 0)
(0.0008495 8.247e-06 0)
(0.0008385 1.12e-05 0)
(0.0008243 1.391e-05 0)
(0.0008071 1.634e-05 0)
(0.0007874 1.845e-05 0)
(0.0007654 2.023e-05 0)
(0.0007416 2.167e-05 0)
(0.0007163 2.278e-05 0)
(0.0006899 2.357e-05 0)
(0.0006627 2.405e-05 0)
(0.0006351 2.426e-05 0)
(0.0006073 2.421e-05 0)
(0.0005797 2.393e-05 0)
(0.0005525 2.345e-05 0)
(0.000526 2.28e-05 0)
(0.0005002 2.201e-05 0)
(0.0004753 2.112e-05 0)
(0.0004515 2.014e-05 0)
(0.0004289 1.91e-05 0)
(0.0004074 1.802e-05 0)
(0.0003872 1.692e-05 0)
(0.0003682 1.583e-05 0)
(0.0003504 1.474e-05 0)
(0.0003339 1.368e-05 0)
(0.0003186 1.266e-05 0)
(0.0003044 1.167e-05 0)
(0.0002913 1.073e-05 0)
(0.0002793 9.841e-06 0)
(0.0002683 9.002e-06 0)
(0.0002582 8.215e-06 0)
(0.000249 7.481e-06 0)
(0.0002406 6.798e-06 0)
(0.000233 6.166e-06 0)
(0.0002261 5.582e-06 0)
(0.0002199 5.045e-06 0)
(0.0002142 4.552e-06 0)
(0.0002091 4.1e-06 0)
(0.0002045 3.688e-06 0)
(0.0002004 3.312e-06 0)
(0.0001966 2.97e-06 0)
(0.0001933 2.659e-06 0)
(0.0001903 2.378e-06 0)
(0.0001876 2.124e-06 0)
(0.0001853 1.894e-06 0)
(0.0001831 1.687e-06 0)
(0.0001812 1.501e-06 0)
(0.0001795 1.335e-06 0)
(0.000178 1.187e-06 0)
(0.0001767 1.055e-06 0)
(0.0001755 9.4e-07 0)
(0.0001744 8.397e-07 0)
(0.0001735 7.542e-07 0)
(0.0001726 6.833e-07 0)
(0.0001718 6.275e-07 0)
(0.0001711 5.877e-07 0)
(0.0001704 5.656e-07 0)
(0.0001697 5.642e-07 0)
(0.000169 5.886e-07 0)
(0.0001683 6.469e-07 0)
(0.0001676 7.503e-07 0)
(0.0001667 9.047e-07 0)
(0.0001658 1.066e-06 0)
(0.001226 0.0002775 0)
(0.001243 0.0004027 0)
(0.001194 0.0003664 0)
(0.001103 0.0002981 0)
(0.001 0.0002342 0)
(0.0009023 0.0001827 0)
(0.0008153 0.0001432 0)
(0.0007406 0.0001135 0)
(0.0006774 9.113e-05 0)
(0.0006243 7.399e-05 0)
(0.0005797 6.067e-05 0)
(0.0005421 5.013e-05 0)
(0.0005105 4.166e-05 0)
(0.0004839 3.472e-05 0)
(0.0004615 2.896e-05 0)
(0.0004426 2.409e-05 0)
(0.0004269 1.992e-05 0)
(0.000414 1.63e-05 0)
(0.0004034 1.311e-05 0)
(0.0003949 1.026e-05 0)
(0.0003885 7.669e-06 0)
(0.0003838 5.283e-06 0)
(0.0003808 3.052e-06 0)
(0.0003793 9.344e-07 0)
(0.0003794 -1.104e-06 0)
(0.000381 -3.094e-06 0)
(0.000384 -5.062e-06 0)
(0.0003885 -7.03e-06 0)
(0.0003944 -9.02e-06 0)
(0.0004017 -1.105e-05 0)
(0.0004106 -1.313e-05 0)
(0.000421 -1.528e-05 0)
(0.000433 -1.751e-05 0)
(0.0004466 -1.983e-05 0)
(0.000462 -2.224e-05 0)
(0.0004791 -2.474e-05 0)
(0.0004981 -2.733e-05 0)
(0.0005189 -3.001e-05 0)
(0.0005417 -3.277e-05 0)
(0.0005665 -3.558e-05 0)
(0.0005933 -3.844e-05 0)
(0.0006221 -4.13e-05 0)
(0.000653 -4.414e-05 0)
(0.0006858 -4.692e-05 0)
(0.0007205 -4.958e-05 0)
(0.000757 -5.207e-05 0)
(0.0007952 -5.433e-05 0)
(0.0008348 -5.629e-05 0)
(0.0008756 -5.787e-05 0)
(0.0009173 -5.902e-05 0)
(0.0009596 -5.965e-05 0)
(0.001002 -5.969e-05 0)
(0.001044 -5.907e-05 0)
(0.001086 -5.774e-05 0)
(0.001126 -5.564e-05 0)
(0.001164 -5.275e-05 0)
(0.0012 -4.904e-05 0)
(0.001234 -4.452e-05 0)
(0.001263 -3.92e-05 0)
(0.001289 -3.315e-05 0)
(0.00131 -2.644e-05 0)
(0.001326 -1.918e-05 0)
(0.001337 -1.151e-05 0)
(0.001342 -3.598e-06 0)
(0.001342 4.386e-06 0)
(0.001336 1.226e-05 0)
(0.001325 1.985e-05 0)
(0.001308 2.701e-05 0)
(0.001287 3.359e-05 0)
(0.001261 3.95e-05 0)
(0.001232 4.467e-05 0)
(0.001199 4.904e-05 0)
(0.001163 5.261e-05 0)
(0.001125 5.538e-05 0)
(0.001085 5.737e-05 0)
(0.001043 5.864e-05 0)
(0.001001 5.922e-05 0)
(0.0009593 5.917e-05 0)
(0.0009173 5.857e-05 0)
(0.0008758 5.749e-05 0)
(0.0008351 5.598e-05 0)
(0.0007956 5.413e-05 0)
(0.0007574 5.201e-05 0)
(0.0007208 4.966e-05 0)
(0.0006859 4.717e-05 0)
(0.0006527 4.457e-05 0)
(0.0006214 4.193e-05 0)
(0.0005919 3.927e-05 0)
(0.0005644 3.663e-05 0)
(0.0005386 3.405e-05 0)
(0.0005147 3.154e-05 0)
(0.0004926 2.912e-05 0)
(0.0004721 2.682e-05 0)
(0.0004532 2.463e-05 0)
(0.0004359 2.256e-05 0)
(0.0004201 2.061e-05 0)
(0.0004055 1.88e-05 0)
(0.0003923 1.71e-05 0)
(0.0003802 1.553e-05 0)
(0.0003693 1.408e-05 0)
(0.0003593 1.274e-05 0)
(0.0003503 1.151e-05 0)
(0.0003422 1.039e-05 0)
(0.0003348 9.354e-06 0)
(0.0003282 8.412e-06 0)
(0.0003222 7.554e-06 0)
(0.0003169 6.774e-06 0)
(0.0003121 6.067e-06 0)
(0.0003077 5.426e-06 0)
(0.0003039 4.847e-06 0)
(0.0003004 4.324e-06 0)
(0.0002973 3.855e-06 0)
(0.0002946 3.434e-06 0)
(0.0002921 3.058e-06 0)
(0.0002899 2.724e-06 0)
(0.0002879 2.431e-06 0)
(0.0002862 2.175e-06 0)
(0.0002846 1.955e-06 0)
(0.0002832 1.772e-06 0)
(0.0002819 1.626e-06 0)
(0.0002807 1.517e-06 0)
(0.0002796 1.449e-06 0)
(0.0002785 1.426e-06 0)
(0.0002774 1.453e-06 0)
(0.0002764 1.538e-06 0)
(0.0002753 1.686e-06 0)
(0.0002742 1.886e-06 0)
(0.0002732 2.061e-06 0)
(0.001224 0.0002275 0)
(0.00126 0.0004003 0)
(0.001258 0.0004191 0)
(0.001216 0.0003786 0)
(0.00115 0.0003224 0)
(0.001074 0.0002678 0)
(0.000999 0.0002206 0)
(0.0009282 0.0001816 0)
(0.0008644 0.0001501 0)
(0.000808 0.0001246 0)
(0.0007587 0.000104 0)
(0.000716 8.707e-05 0)
(0.0006792 7.313e-05 0)
(0.0006476 6.147e-05 0)
(0.0006207 5.161e-05 0)
(0.0005977 4.317e-05 0)
(0.0005784 3.586e-05 0)
(0.0005624 2.944e-05 0)
(0.0005492 2.373e-05 0)
(0.0005387 1.859e-05 0)
(0.0005306 1.39e-05 0)
(0.0005247 9.561e-06 0)
(0.000521 5.485e-06 0)
(0.0005193 1.605e-06 0)
(0.0005196 -2.139e-06 0)
(0.0005218 -5.799e-06 0)
(0.0005259 -9.422e-06 0)
(0.0005318 -1.305e-05 0)
(0.0005396 -1.671e-05 0)
(0.0005493 -2.045e-05 0)
(0.000561 -2.428e-05 0)
(0.0005747 -2.823e-05 0)
(0.0005904 -3.231e-05 0)
(0.0006083 -3.655e-05 0)
(0.0006284 -4.095e-05 0)
(0.0006507 -4.552e-05 0)
(0.0006755 -5.024e-05 0)
(0.0007026 -5.511e-05 0)
(0.0007323 -6.011e-05 0)
(0.0007645 -6.52e-05 0)
(0.0007992 -7.036e-05 0)
(0.0008365 -7.552e-05 0)
(0.0008764 -8.063e-05 0)
(0.0009188 -8.561e-05 0)
(0.0009635 -9.036e-05 0)
(0.001011 -9.48e-05 0)
(0.00106 -9.88e-05 0)
(0.00111 -0.0001023 0)
(0.001163 -0.000105 0)
(0.001216 -0.000107 0)
(0.00127 -0.000108 0)
(0.001324 -0.000108 0)
(0.001378 -0.0001068 0)
(0.001431 -0.0001043 0)
(0.001482 -0.0001005 0)
(0.001531 -9.519e-05 0)
(0.001577 -8.845e-05 0)
(0.001619 -8.026e-05 0)
(0.001657 -7.066e-05 0)
(0.001689 -5.975e-05 0)
(0.001716 -4.767e-05 0)
(0.001737 -3.461e-05 0)
(0.001751 -2.083e-05 0)
(0.001757 -6.608e-06 0)
(0.001757 7.742e-06 0)
(0.00175 2.19e-05 0)
(0.001736 3.557e-05 0)
(0.001715 4.846e-05 0)
(0.001688 6.033e-05 0)
(0.001656 7.102e-05 0)
(0.001618 8.038e-05 0)
(0.001576 8.834e-05 0)
(0.001531 9.486e-05 0)
(0.001482 9.996e-05 0)
(0.001431 0.0001037 0)
(0.001379 0.0001061 0)
(0.001325 0.0001072 0)
(0.001271 0.0001073 0)
(0.001217 0.0001063 0)
(0.001164 0.0001045 0)
(0.001112 0.0001019 0)
(0.001061 9.861e-05 0)
(0.001012 9.485e-05 0)
(0.0009647 9.069e-05 0)
(0.0009195 8.624e-05 0)
(0.0008766 8.16e-05 0)
(0.0008359 7.685e-05 0)
(0.0007977 7.206e-05 0)
(0.0007618 6.731e-05 0)
(0.0007282 6.264e-05 0)
(0.000697 5.81e-05 0)
(0.000668 5.371e-05 0)
(0.0006412 4.952e-05 0)
(0.0006164 4.553e-05 0)
(0.0005937 4.175e-05 0)
(0.0005728 3.82e-05 0)
(0.0005536 3.488e-05 0)
(0.0005361 3.177e-05 0)
(0.0005201 2.889e-05 0)
(0.0005056 2.622e-05 0)
(0.0004924 2.376e-05 0)
(0.0004804 2.149e-05 0)
(0.0004695 1.941e-05 0)
(0.0004597 1.75e-05 0)
(0.0004508 1.576e-05 0)
(0.0004428 1.417e-05 0)
(0.0004356 1.272e-05 0)
(0.0004292 1.141e-05 0)
(0.0004234 1.022e-05 0)
(0.0004181 9.139e-06 0)
(0.0004135 8.166e-06 0)
(0.0004093 7.289e-06 0)
(0.0004055 6.502e-06 0)
(0.0004022 5.799e-06 0)
(0.0003992 5.174e-06 0)
(0.0003965 4.621e-06 0)
(0.0003941 4.139e-06 0)
(0.000392 3.723e-06 0)
(0.00039 3.372e-06 0)
(0.0003882 3.087e-06 0)
(0.0003866 2.868e-06 0)
(0.0003851 2.718e-06 0)
(0.0003837 2.639e-06 0)
(0.0003824 2.637e-06 0)
(0.0003811 2.712e-06 0)
(0.0003798 2.861e-06 0)
(0.0003785 3.055e-06 0)
(0.0003773 3.209e-06 0)
(0.001219 0.0001847 0)
(0.001255 0.0003711 0)
(0.001275 0.0004297 0)
(0.001265 0.0004204 0)
(0.00123 0.0003818 0)
(0.00118 0.0003342 0)
(0.001122 0.0002872 0)
(0.001063 0.0002446 0)
(0.001006 0.0002077 0)
(0.0009535 0.0001762 0)
(0.0009055 0.0001496 0)
(0.0008625 0.0001271 0)
(0.0008245 0.0001079 0)
(0.0007912 9.156e-05 0)
(0.0007622 7.744e-05 0)
(0.0007373 6.516e-05 0)
(0.0007162 5.437e-05 0)
(0.0006984 4.48e-05 0)
(0.0006837 3.62e-05 0)
(0.000672 2.84e-05 0)
(0.0006629 2.122e-05 0)
(0.0006565 1.454e-05 0)
(0.0006525 8.236e-06 0)
(0.0006508 2.214e-06 0)
(0.0006514 -3.615e-06 0)
(0.0006542 -9.327e-06 0)
(0.0006592 -1.499e-05 0)
(0.0006665 -2.066e-05 0)
(0.000676 -2.639e-05 0)
(0.0006877 -3.223e-05 0)
(0.0007018 -3.822e-05 0)
(0.0007182 -4.439e-05 0)
(0.0007371 -5.077e-05 0)
(0.0007584 -5.737e-05 0)
(0.0007825 -6.422e-05 0)
(0.0008091 -7.131e-05 0)
(0.0008386 -7.864e-05 0)
(0.0008709 -8.619e-05 0)
(0.0009062 -9.392e-05 0)
(0.0009444 -0.0001018 0)
(0.0009856 -0.0001097 0)
(0.00103 -0.0001177 0)
(0.001077 -0.0001255 0)
(0.001127 -0.0001331 0)
(0.00118 -0.0001404 0)
(0.001235 -0.0001472 0)
(0.001293 -0.0001532 0)
(0.001353 -0.0001585 0)
(0.001414 -0.0001626 0)
(0.001477 -0.0001656 0)
(0.00154 -0.000167 0)
(0.001604 -0.0001669 0)
(0.001667 -0.0001649 0)
(0.001729 -0.000161 0)
(0.001789 -0.0001549 0)
(0.001846 -0.0001467 0)
(0.001899 -0.0001363 0)
(0.001949 -0.0001237 0)
(0.001993 -0.0001089 0)
(0.002031 -9.207e-05 0)
(0.002062 -7.348e-05 0)
(0.002086 -5.341e-05 0)
(0.002102 -3.222e-05 0)
(0.002111 -1.036e-05 0)
(0.002111 1.171e-05 0)
(0.002102 3.348e-05 0)
(0.002086 5.451e-05 0)
(0.002062 7.436e-05 0)
(0.00203 9.266e-05 0)
(0.001992 0.0001092 0)
(0.001949 0.0001236 0)
(0.0019 0.000136 0)
(0.001846 0.0001461 0)
(0.00179 0.0001541 0)
(0.00173 0.0001599 0)
(0.001669 0.0001638 0)
(0.001606 0.0001657 0)
(0.001543 0.000166 0)
(0.00148 0.0001646 0)
(0.001417 0.0001619 0)
(0.001356 0.000158 0)
(0.001296 0.0001532 0)
(0.001238 0.0001475 0)
(0.001182 0.0001411 0)
(0.001129 0.0001344 0)
(0.001078 0.0001273 0)
(0.00103 0.00012 0)
(0.0009841 0.0001126 0)
(0.0009414 0.0001053 0)
(0.0009015 9.812e-05 0)
(0.0008642 9.111e-05 0)
(0.0008296 8.433e-05 0)
(0.0007975 7.783e-05 0)
(0.0007678 7.163e-05 0)
(0.0007405 6.577e-05 0)
(0.0007153 6.024e-05 0)
(0.0006923 5.505e-05 0)
(0.0006712 5.021e-05 0)
(0.0006519 4.571e-05 0)
(0.0006343 4.153e-05 0)
(0.0006183 3.767e-05 0)
(0.0006037 3.411e-05 0)
(0.0005905 3.084e-05 0)
(0.0005786 2.784e-05 0)
(0.0005678 2.51e-05 0)
(0.000558 2.259e-05 0)
(0.0005492 2.031e-05 0)
(0.0005413 1.823e-05 0)
(0.0005341 1.635e-05 0)
(0.0005277 1.464e-05 0)
(0.000522 1.31e-05 0)
(0.0005168 1.17e-05 0)
(0.0005122 1.045e-05 0)
(0.000508 9.334e-06 0)
(0.0005043 8.336e-06 0)
(0.000501 7.453e-06 0)
(0.000498 6.678e-06 0)
(0.0004954 6.007e-06 0)
(0.000493 5.437e-06 0)
(0.0004908 4.965e-06 0)
(0.0004888 4.592e-06 0)
(0.000487 4.318e-06 0)
(0.0004853 4.144e-06 0)
(0.0004837 4.071e-06 0)
(0.0004822 4.095e-06 0)
(0.0004807 4.203e-06 0)
(0.0004793 4.357e-06 0)
(0.000478 4.479e-06 0)
(0.001214 0.000152 0)
(0.001246 0.0003351 0)
(0.001274 0.0004175 0)
(0.001283 0.0004344 0)
(0.00127 0.0004154 0)
(0.001241 0.0003797 0)
(0.001202 0.0003383 0)
(0.001158 0.000297 0)
(0.001112 0.0002584 0)
(0.001066 0.0002238 0)
(0.001023 0.0001932 0)
(0.0009832 0.0001663 0)
(0.000947 0.0001429 0)
(0.0009146 0.0001223 0)
(0.000886 0.0001042 0)
(0.000861 8.825e-05 0)
(0.0008395 7.399e-05 0)
(0.0008213 6.118e-05 0)
(0.0008062 4.956e-05 0)
(0.0007941 3.89e-05 0)
(0.0007848 2.903e-05 0)
(0.0007782 1.977e-05 0)
(0.0007742 1.1e-05 0)
(0.0007728 2.57e-06 0)
(0.0007738 -5.615e-06 0)
(0.0007773 -1.366e-05 0)
(0.0007833 -2.164e-05 0)
(0.0007917 -2.965e-05 0)
(0.0008026 -3.776e-05 0)
(0.000816 -4.601e-05 0)
(0.000832 -5.448e-05 0)
(0.0008506 -6.32e-05 0)
(0.000872 -7.22e-05 0)
(0.0008962 -8.152e-05 0)
(0.0009233 -9.117e-05 0)
(0.0009533 -0.0001012 0)
(0.0009865 -0.0001115 0)
(0.001023 -0.000122 0)
(0.001062 -0.0001329 0)
(0.001105 -0.0001439 0)
(0.001152 -0.000155 0)
(0.001201 -0.0001661 0)
(0.001254 -0.000177 0)
(0.00131 -0.0001876 0)
(0.001369 -0.0001977 0)
(0.00143 -0.0002071 0)
(0.001495 -0.0002155 0)
(0.001561 -0.0002227 0)
(0.00163 -0.0002284 0)
(0.0017 -0.0002323 0)
(0.00177 -0.0002343 0)
(0.001841 -0.0002339 0)
(0.001911 -0.000231 0)
(0.00198 -0.0002254 0)
(0.002046 -0.0002169 0)
(0.00211 -0.0002054 0)
(0.002169 -0.0001907 0)
(0.002224 -0.000173 0)
(0.002273 -0.0001524 0)
(0.002315 -0.0001289 0)
(0.00235 -0.0001029 0)
(0.002377 -7.488e-05 0)
(0.002395 -4.528e-05 0)
(0.002404 -1.473e-05 0)
(0.002404 1.611e-05 0)
(0.002395 4.655e-05 0)
(0.002377 7.595e-05 0)
(0.00235 0.0001037 0)
(0.002316 0.0001293 0)
(0.002274 0.0001524 0)
(0.002225 0.0001727 0)
(0.002171 0.00019 0)
(0.002112 0.0002043 0)
(0.002049 0.0002156 0)
(0.001983 0.0002239 0)
(0.001915 0.0002295 0)
(0.001845 0.0002324 0)
(0.001775 0.0002329 0)
(0.001704 0.0002312 0)
(0.001635 0.0002276 0)
(0.001566 0.0002223 0)
(0.001499 0.0002156 0)
(0.001435 0.0002078 0)
(0.001372 0.0001991 0)
(0.001312 0.0001897 0)
(0.001255 0.0001798 0)
(0.001201 0.0001697 0)
(0.00115 0.0001594 0)
(0.001102 0.0001492 0)
(0.001057 0.0001392 0)
(0.001015 0.0001293 0)
(0.0009763 0.0001198 0)
(0.00094 0.0001107 0)
(0.0009065 0.000102 0)
(0.0008755 9.373e-05 0)
(0.000847 8.594e-05 0)
(0.0008208 7.862e-05 0)
(0.0007967 7.178e-05 0)
(0.0007748 6.54e-05 0)
(0.0007547 5.949e-05 0)
(0.0007364 5.401e-05 0)
(0.0007198 4.896e-05 0)
(0.0007046 4.431e-05 0)
(0.0006909 4.004e-05 0)
(0.0006785 3.613e-05 0)
(0.0006673 3.256e-05 0)
(0.0006571 2.93e-05 0)
(0.000648 2.633e-05 0)
(0.0006397 2.363e-05 0)
(0.0006323 2.119e-05 0)
(0.0006256 1.897e-05 0)
(0.0006196 1.698e-05 0)
(0.0006143 1.518e-05 0)
(0.0006094 1.357e-05 0)
(0.0006051 1.213e-05 0)
(0.0006013 1.085e-05 0)
(0.0005978 9.724e-06 0)
(0.0005947 8.745e-06 0)
(0.0005919 7.905e-06 0)
(0.0005894 7.202e-06 0)
(0.0005871 6.631e-06 0)
(0.000585 6.192e-06 0)
(0.0005831 5.883e-06 0)
(0.0005813 5.699e-06 0)
(0.0005796 5.634e-06 0)
(0.0005781 5.668e-06 0)
(0.0005766 5.761e-06 0)
(0.0005751 5.844e-06 0)
(0.00121 0.0001278 0)
(0.001237 0.0003002 0)
(0.001267 0.0003946 0)
(0.001285 0.0004305 0)
(0.001288 0.0004292 0)
(0.001276 0.0004067 0)
(0.001253 0.0003736 0)
(0.001222 0.0003367 0)
(0.001188 0.0002996 0)
(0.001152 0.0002643 0)
(0.001116 0.0002317 0)
(0.001081 0.0002021 0)
(0.001049 0.0001755 0)
(0.001019 0.0001516 0)
(0.0009925 0.0001302 0)
(0.0009689 0.0001109 0)
(0.0009484 9.342e-05 0)
(0.0009308 7.751e-05 0)
(0.0009162 6.291e-05 0)
(0.0009045 4.94e-05 0)
(0.0008956 3.677e-05 0)
(0.0008893 2.485e-05 0)
(0.0008857 1.347e-05 0)
(0.0008848 2.498e-06 0)
(0.0008864 -8.207e-06 0)
(0.0008906 -1.876e-05 0)
(0.0008973 -2.926e-05 0)
(0.0009067 -3.981e-05 0)
(0.0009187 -5.05e-05 0)
(0.0009334 -6.139e-05 0)
(0.0009509 -7.256e-05 0)
(0.0009712 -8.406e-05 0)
(0.0009944 -9.594e-05 0)
(0.001021 -0.0001082 0)
(0.00105 -0.0001209 0)
(0.001083 -0.0001341 0)
(0.001118 -0.0001476 0)
(0.001158 -0.0001615 0)
(0.0012 -0.0001757 0)
(0.001247 -0.0001901 0)
(0.001296 -0.0002047 0)
(0.00135 -0.0002192 0)
(0.001406 -0.0002334 0)
(0.001466 -0.0002472 0)
(0.00153 -0.0002604 0)
(0.001596 -0.0002725 0)
(0.001665 -0.0002834 0)
(0.001737 -0.0002927 0)
(0.00181 -0.0003001 0)
(0.001885 -0.0003051 0)
(0.00196 -0.0003075 0)
(0.002036 -0.0003069 0)
(0.002111 -0.0003031 0)
(0.002185 -0.0002956 0)
(0.002256 -0.0002844 0)
(0.002324 -0.0002692 0)
(0.002387 -0.0002501 0)
(0.002446 -0.0002269 0)
(0.002498 -0.0001998 0)
(0.002544 -0.0001691 0)
(0.002581 -0.0001351 0)
(0.00261 -9.839e-05 0)
(0.00263 -5.961e-05 0)
(0.00264 -1.958e-05 0)
(0.00264 2.083e-05 0)
(0.00263 6.073e-05 0)
(0.002611 9.926e-05 0)
(0.002582 0.0001356 0)
(0.002545 0.0001692 0)
(0.0025 0.0001995 0)
(0.002448 0.0002261 0)
(0.00239 0.0002488 0)
(0.002327 0.0002677 0)
(0.00226 0.0002825 0)
(0.002189 0.0002936 0)
(0.002116 0.000301 0)
(0.002042 0.000305 0)
(0.001966 0.0003058 0)
(0.001891 0.0003038 0)
(0.001817 0.0002992 0)
(0.001743 0.0002925 0)
(0.001671 0.0002839 0)
(0.001602 0.0002738 0)
(0.001535 0.0002625 0)
(0.00147 0.0002503 0)
(0.001409 0.0002375 0)
(0.001351 0.0002243 0)
(0.001296 0.0002109 0)
(0.001244 0.0001976 0)
(0.001195 0.0001844 0)
(0.00115 0.0001715 0)
(0.001108 0.0001591 0)
(0.001068 0.0001471 0)
(0.001032 0.0001356 0)
(0.0009981 0.0001247 0)
(0.000967 0.0001145 0)
(0.0009385 0.0001048 0)
(0.0009123 9.579e-05 0)
(0.0008883 8.737e-05 0)
(0.0008663 7.954e-05 0)
(0.0008463 7.228e-05 0)
(0.0008281 6.558e-05 0)
(0.0008115 5.941e-05 0)
(0.0007964 5.374e-05 0)
(0.0007827 4.854e-05 0)
(0.0007703 4.378e-05 0)
(0.0007591 3.943e-05 0)
(0.000749 3.547e-05 0)
(0.0007399 3.187e-05 0)
(0.0007317 2.86e-05 0)
(0.0007243 2.563e-05 0)
(0.0007176 2.296e-05 0)
(0.0007116 2.054e-05 0)
(0.0007063 1.838e-05 0)
(0.0007015 1.644e-05 0)
(0.0006971 1.471e-05 0)
(0.0006933 1.319e-05 0)
(0.0006898 1.186e-05 0)
(0.0006867 1.071e-05 0)
(0.0006839 9.732e-06 0)
(0.0006814 8.926e-06 0)
(0.0006791 8.284e-06 0)
(0.000677 7.803e-06 0)
(0.0006751 7.475e-06 0)
(0.0006733 7.288e-06 0)
(0.0006716 7.222e-06 0)
(0.0006701 7.238e-06 0)
(0.0006686 7.277e-06 0)
(0.001208 0.0001095 0)
(0.00123 0.0002689 0)
(0.001259 0.0003677 0)
(0.001282 0.0004162 0)
(0.001294 0.000429 0)
(0.001294 0.0004187 0)
(0.001284 0.0003949 0)
(0.001266 0.000364 0)
(0.001242 0.0003303 0)
(0.001215 0.0002964 0)
(0.001187 0.0002636 0)
(0.001159 0.0002328 0)
(0.001132 0.0002043 0)
(0.001107 0.000178 0)
(0.001083 0.0001539 0)
(0.001062 0.0001319 0)
(0.001043 0.0001116 0)
(0.001027 9.288e-05 0)
(0.001014 7.551e-05 0)
(0.001003 5.927e-05 0)
(0.0009951 4.396e-05 0)
(0.0009896 2.94e-05 0)
(0.0009867 1.542e-05 0)
(0.0009864 1.852e-06 0)
(0.0009886 -1.144e-05 0)
(0.0009935 -2.458e-05 0)
(0.001001 -3.769e-05 0)
(0.001011 -5.09e-05 0)
(0.001024 -6.429e-05 0)
(0.00104 -7.795e-05 0)
(0.001058 -9.196e-05 0)
(0.00108 -0.0001064 0)
(0.001104 -0.0001213 0)
(0.001132 -0.0001367 0)
(0.001162 -0.0001526 0)
(0.001197 -0.0001691 0)
(0.001234 -0.000186 0)
(0.001275 -0.0002034 0)
(0.00132 -0.0002212 0)
(0.001368 -0.0002392 0)
(0.00142 -0.0002573 0)
(0.001475 -0.0002753 0)
(0.001535 -0.0002931 0)
(0.001597 -0.0003103 0)
(0.001663 -0.0003266 0)
(0.001732 -0.0003417 0)
(0.001804 -0.0003552 0)
(0.001879 -0.0003667 0)
(0.001955 -0.0003758 0)
(0.002033 -0.000382 0)
(0.002111 -0.0003848 0)
(0.00219 -0.000384 0)
(0.002268 -0.000379 0)
(0.002344 -0.0003696 0)
(0.002418 -0.0003556 0)
(0.002489 -0.0003366 0)
(0.002555 -0.0003127 0)
(0.002616 -0.0002837 0)
(0.002671 -0.0002499 0)
(0.002718 -0.0002116 0)
(0.002757 -0.0001692 0)
(0.002787 -0.0001233 0)
(0.002808 -7.485e-05 0)
(0.002818 -2.479e-05 0)
(0.002818 2.575e-05 0)
(0.002808 7.566e-05 0)
(0.002788 0.0001238 0)
(0.002758 0.0001693 0)
(0.00272 0.0002112 0)
(0.002673 0.0002491 0)
(0.002619 0.0002823 0)
(0.002559 0.0003108 0)
(0.002493 0.0003343 0)
(0.002424 0.000353 0)
(0.00235 0.000367 0)
(0.002275 0.0003764 0)
(0.002197 0.0003815 0)
(0.002119 0.0003828 0)
(0.002041 0.0003804 0)
(0.001963 0.0003749 0)
(0.001887 0.0003667 0)
(0.001812 0.0003561 0)
(0.001739 0.0003437 0)
(0.001669 0.0003297 0)
(0.001602 0.0003146 0)
(0.001538 0.0002986 0)
(0.001477 0.0002822 0)
(0.00142 0.0002656 0)
(0.001366 0.000249 0)
(0.001315 0.0002325 0)
(0.001267 0.0002165 0)
(0.001223 0.0002009 0)
(0.001181 0.0001859 0)
(0.001143 0.0001715 0)
(0.001108 0.0001579 0)
(0.001075 0.000145 0)
(0.001045 0.0001329 0)
(0.001017 0.0001216 0)
(0.000992 0.000111 0)
(0.0009688 0.0001011 0)
(0.0009476 9.196e-05 0)
(0.0009282 8.35e-05 0)
(0.0009106 7.571e-05 0)
(0.0008946 6.854e-05 0)
(0.0008801 6.196e-05 0)
(0.0008669 5.593e-05 0)
(0.0008549 5.042e-05 0)
(0.0008441 4.54e-05 0)
(0.0008344 4.082e-05 0)
(0.0008256 3.666e-05 0)
(0.0008176 3.289e-05 0)
(0.0008105 2.948e-05 0)
(0.0008041 2.641e-05 0)
(0.0007983 2.364e-05 0)
(0.0007932 2.116e-05 0)
(0.0007885 1.894e-05 0)
(0.0007844 1.699e-05 0)
(0.0007806 1.526e-05 0)
(0.0007773 1.377e-05 0)
(0.0007743 1.249e-05 0)
(0.0007716 1.141e-05 0)
(0.0007691 1.054e-05 0)
(0.0007669 9.853e-06 0)
(0.0007649 9.352e-06 0)
(0.0007631 9.019e-06 0)
(0.0007614 8.832e-06 0)
(0.0007598 8.759e-06 0)
(0.0007583 8.75e-06 0)
(0.001206 9.539e-05 0)
(0.001225 0.0002416 0)
(0.001252 0.0003401 0)
(0.001276 0.0003962 0)
(0.001294 0.0004195 0)
(0.001302 0.0004197 0)
(0.001302 0.0004047 0)
(0.001294 0.0003805 0)
(0.00128 0.0003513 0)
(0.001262 0.0003199 0)
(0.001242 0.0002883 0)
(0.001221 0.0002575 0)
(0.001199 0.0002281 0)
(0.001179 0.0002004 0)
(0.001159 0.0001745 0)
(0.001141 0.0001503 0)
(0.001125 0.0001277 0)
(0.001111 0.0001066 0)
(0.0011 8.677e-05 0)
(0.001091 6.804e-05 0)
(0.001084 5.022e-05 0)
(0.001079 3.314e-05 0)
(0.001077 1.664e-05 0)
(0.001077 5.34e-07 0)
(0.00108 -1.531e-05 0)
(0.001086 -3.104e-05 0)
(0.001094 -4.678e-05 0)
(0.001105 -6.266e-05 0)
(0.001118 -7.879e-05 0)
(0.001134 -9.527e-05 0)
(0.001153 -0.0001122 0)
(0.001175 -0.0001296 0)
(0.0012 -0.0001476 0)
(0.001229 -0.0001662 0)
(0.00126 -0.0001854 0)
(0.001295 -0.0002052 0)
(0.001333 -0.0002256 0)
(0.001375 -0.0002466 0)
(0.00142 -0.000268 0)
(0.001469 -0.0002897 0)
(0.001522 -0.0003115 0)
(0.001578 -0.0003332 0)
(0.001639 -0.0003545 0)
(0.001702 -0.0003751 0)
(0.001769 -0.0003947 0)
(0.001839 -0.0004128 0)
(0.001912 -0.000429 0)
(0.001987 -0.0004427 0)
(0.002065 -0.0004535 0)
(0.002144 -0.0004608 0)
(0.002223 -0.0004641 0)
(0.002303 -0.000463 0)
(0.002382 -0.0004569 0)
(0.002459 -0.0004455 0)
(0.002534 -0.0004285 0)
(0.002606 -0.0004057 0)
(0.002673 -0.0003769 0)
(0.002734 -0.0003421 0)
(0.00279 -0.0003015 0)
(0.002838 -0.0002554 0)
(0.002877 -0.0002043 0)
(0.002908 -0.0001491 0)
(0.002929 -9.06e-05 0)
(0.00294 -3.02e-05 0)
(0.00294 3.079e-05 0)
(0.00293 9.1e-05 0)
(0.002909 0.0001491 0)
(0.002879 0.0002039 0)
(0.00284 0.0002544 0)
(0.002793 0.0002999 0)
(0.002738 0.00034 0)
(0.002677 0.0003742 0)
(0.002611 0.0004026 0)
(0.00254 0.0004252 0)
(0.002466 0.0004421 0)
(0.00239 0.0004536 0)
(0.002311 0.00046 0)
(0.002232 0.0004617 0)
(0.002153 0.0004591 0)
(0.002074 0.0004526 0)
(0.001997 0.0004429 0)
(0.001921 0.0004303 0)
(0.001847 0.0004155 0)
(0.001776 0.0003988 0)
(0.001708 0.0003807 0)
(0.001643 0.0003616 0)
(0.001581 0.0003419 0)
(0.001523 0.000322 0)
(0.001468 0.000302 0)
(0.001416 0.0002822 0)
(0.001367 0.0002629 0)
(0.001322 0.0002441 0)
(0.00128 0.0002261 0)
(0.001241 0.0002088 0)
(0.001204 0.0001923 0)
(0.001171 0.0001768 0)
(0.00114 0.0001621 0)
(0.001112 0.0001484 0)
(0.001086 0.0001355 0)
(0.001062 0.0001236 0)
(0.00104 0.0001125 0)
(0.00102 0.0001022 0)
(0.001002 9.276e-05 0)
(0.0009854 8.404e-05 0)
(0.0009704 7.603e-05 0)
(0.0009567 6.869e-05 0)
(0.0009444 6.197e-05 0)
(0.0009332 5.584e-05 0)
(0.000923 5.025e-05 0)
(0.0009139 4.517e-05 0)
(0.0009057 4.056e-05 0)
(0.0008982 3.638e-05 0)
(0.0008915 3.261e-05 0)
(0.0008855 2.921e-05 0)
(0.0008801 2.615e-05 0)
(0.0008753 2.343e-05 0)
(0.000871 2.1e-05 0)
(0.0008671 1.887e-05 0)
(0.0008636 1.7e-05 0)
(0.0008604 1.539e-05 0)
(0.0008576 1.402e-05 0)
(0.0008551 1.289e-05 0)
(0.0008528 1.198e-05 0)
(0.0008508 1.129e-05 0)
(0.0008489 1.079e-05 0)
(0.0008472 1.047e-05 0)
(0.0008456 1.03e-05 0)
(0.0008441 1.024e-05 0)
(0.001205 8.409e-05 0)
(0.001221 0.0002178 0)
(0.001245 0.0003134 0)
(0.00127 0.0003734 0)
(0.001291 0.0004041 0)
(0.001305 0.0004126 0)
(0.001312 0.0004054 0)
(0.001312 0.0003876 0)
(0.001306 0.0003634 0)
(0.001296 0.0003354 0)
(0.001283 0.0003059 0)
(0.001269 0.000276 0)
(0.001253 0.0002467 0)
(0.001237 0.0002183 0)
(0.001222 0.0001913 0)
(0.001208 0.0001656 0)
(0.001195 0.0001413 0)
(0.001184 0.0001182 0)
(0.001174 9.627e-05 0)
(0.001167 7.534e-05 0)
(0.001161 5.527e-05 0)
(0.001158 3.587e-05 0)
(0.001157 1.7e-05 0)
(0.001158 -1.503e-06 0)
(0.001162 -1.98e-05 0)
(0.001168 -3.803e-05 0)
(0.001176 -5.633e-05 0)
(0.001187 -7.484e-05 0)
(0.001201 -9.367e-05 0)
(0.001217 -0.0001129 0)
(0.001236 -0.0001327 0)
(0.001258 -0.0001531 0)
(0.001283 -0.0001741 0)
(0.001312 -0.0001959 0)
(0.001343 -0.0002184 0)
(0.001377 -0.0002416 0)
(0.001415 -0.0002655 0)
(0.001457 -0.00029 0)
(0.001502 -0.000315 0)
(0.001551 -0.0003403 0)
(0.001603 -0.0003658 0)
(0.001659 -0.0003912 0)
(0.001718 -0.0004161 0)
(0.001781 -0.0004401 0)
(0.001848 -0.000463 0)
(0.001917 -0.0004841 0)
(0.001989 -0.0005029 0)
(0.002064 -0.0005188 0)
(0.00214 -0.0005313 0)
(0.002218 -0.0005397 0)
(0.002297 -0.0005435 0)
(0.002376 -0.000542 0)
(0.002454 -0.0005348 0)
(0.00253 -0.0005213 0)
(0.002604 -0.0005014 0)
(0.002674 -0.0004747 0)
(0.00274 -0.000441 0)
(0.002801 -0.0004004 0)
(0.002855 -0.000353 0)
(0.002903 -0.0002992 0)
(0.002942 -0.0002396 0)
(0.002972 -0.0001749 0)
(0.002993 -0.0001064 0)
(0.003004 -3.563e-05 0)
(0.003004 3.583e-05 0)
(0.002994 0.0001064 0)
(0.002973 0.0001745 0)
(0.002944 0.0002386 0)
(0.002905 0.0002976 0)
(0.002858 0.0003507 0)
(0.002805 0.0003974 0)
(0.002745 0.0004375 0)
(0.00268 0.0004707 0)
(0.00261 0.0004972 0)
(0.002537 0.0005171 0)
(0.002462 0.0005307 0)
(0.002385 0.0005384 0)
(0.002307 0.0005406 0)
(0.002228 0.0005377 0)
(0.002151 0.0005304 0)
(0.002074 0.0005192 0)
(0.001999 0.0005047 0)
(0.001926 0.0004875 0)
(0.001856 0.0004681 0)
(0.001788 0.0004471 0)
(0.001724 0.0004249 0)
(0.001662 0.0004019 0)