/*--------------------------------*- C++ -*----------------------------------*\
  =========                 |
  \\      /  F ield         | OpenFOAM: The Open Source CFD Toolbox
   \\    /   O peration     | Website:  https://openfoam.org
    \\  /    A nd           | Version:  7
     \\/     M anipulation  |
\*---------------------------------------------------------------------------*/
FoamFile
{
    version     2.0;
    format      ascii;
    class       volScalarField;
    location    "59.999473411";
    object      Y.K;
}
// * * * * * * * * * * * * * * * * * * * * * * * * * * * * * * * * * * * * * //

dimensions      [0 0 0 0 0 0 0];

internalField   nonuniform List<scalar> 
4096
(
1.636e-66
-9.884e-68
2.14e-65
-1.317e-65
-1.822e-66
4.28e-66
-2.256e-66
-1.745e-66
1.177e-66
-1.06e-65
1.247e-64
-1.826e-63
2.709e-62
-3.577e-61
4.704e-60
-5.854e-59
7.074e-58
-8.522e-57
9.673e-56
-1.107e-54
1.229e-53
-1.325e-52
1.389e-51
-1.412e-50
1.351e-49
-1.244e-48
1.129e-47
-1.004e-46
8.725e-46
-7.358e-45
5.992e-44
-4.684e-43
3.494e-42
-2.47e-41
1.645e-40
-1.027e-39
5.995e-39
-3.308e-38
1.775e-37
-9.897e-37
6.072e-36
-4.095e-35
3.17e-34
-2.188e-33
1.409e-32
-8.204e-32
4.084e-31
-1.768e-30
6.91e-30
-1.493e-29
3.655e-29
5.312e-28
-1.418e-27
3.25e-26
-1.268e-26
9.515e-25
3.059e-24
2.504e-23
1.358e-22
1.064e-21
3.604e-21
1.326e-20
1.557e-19
2.028e-18
6.342e-18
1.479e-17
3.072e-17
5.985e-17
1.116e-16
2.01e-16
3.511e-16
5.966e-16
9.877e-16
1.596e-15
2.519e-15
3.89e-15
5.882e-15
8.718e-15
1.268e-14
1.81e-14
2.541e-14
3.51e-14
4.774e-14
6.399e-14
8.462e-14
1.105e-13
1.425e-13
1.818e-13
2.295e-13
2.869e-13
3.554e-13
4.365e-13
5.319e-13
6.433e-13
7.729e-13
9.226e-13
1.095e-12
1.292e-12
1.517e-12
1.773e-12
2.062e-12
2.39e-12
2.758e-12
3.172e-12
3.635e-12
4.153e-12
4.731e-12
5.374e-12
6.089e-12
6.882e-12
7.76e-12
8.731e-12
9.803e-12
1.098e-11
1.229e-11
1.372e-11
1.529e-11
1.701e-11
1.889e-11
2.096e-11
2.321e-11
2.566e-11
2.832e-11
3.12e-11
3.427e-11
3.745e-11
4.051e-11
4.288e-11
3.846e-65
-2.192e-64
2.55e-64
-3.688e-65
-1.942e-64
1.79e-64
-1.93e-66
-1.098e-64
3.817e-65
-6.041e-64
6.771e-63
-1.005e-61
1.445e-60
-1.962e-59
2.535e-58
-3.147e-57
3.786e-56
-4.443e-55
5.1e-54
-5.735e-53
6.313e-52
-6.785e-51
7.075e-50
-7.154e-49
6.824e-48
-6.286e-47
5.705e-46
-5.074e-45
4.403e-44
-3.708e-43
3.015e-42
-2.353e-41
1.752e-40
-1.236e-39
8.222e-39
-5.123e-38
2.983e-37
-1.637e-36
8.671e-36
-4.7e-35
2.833e-34
-1.874e-33
1.413e-32
-9.632e-32
6.221e-31
-3.64e-30
1.809e-29
-7.869e-29
3.204e-28
-6.595e-28
2.157e-27
2.36e-26
-1.757e-26
1.399e-24
1.104e-24
4.317e-23
1.651e-22
1.16e-21
5.895e-21
4.082e-20
1.375e-19
4.193e-19
2.39e-18
7.088e-18
1.641e-17
3.426e-17
6.72e-17
1.259e-16
2.271e-16
3.962e-16
6.703e-16
1.102e-15
1.765e-15
2.757e-15
4.207e-15
6.281e-15
9.187e-15
1.318e-14
1.858e-14
2.576e-14
3.515e-14
4.726e-14
6.27e-14
8.213e-14
1.063e-13
1.361e-13
1.725e-13
2.165e-13
2.693e-13
3.322e-13
4.066e-13
4.941e-13
5.963e-13
7.151e-13
8.525e-13
1.011e-12
1.192e-12
1.399e-12
1.635e-12
1.903e-12
2.205e-12
2.546e-12
2.929e-12
3.359e-12
3.841e-12
4.379e-12
4.978e-12
5.645e-12
6.386e-12
7.207e-12
8.116e-12
9.121e-12
1.023e-11
1.145e-11
1.28e-11
1.427e-11
1.59e-11
1.768e-11
1.962e-11
2.175e-11
2.408e-11
2.661e-11
2.937e-11
3.235e-11
3.557e-11
3.898e-11
4.248e-11
4.571e-11
-8.866e-64
6.183e-63
-1.568e-62
2.146e-62
-1.544e-62
2.581e-63
5.787e-63
-5.26e-63
-6.7e-65
-3.347e-62
3.563e-61
-5.184e-60
7.373e-59
-9.883e-58
1.261e-56
-1.546e-55
1.84e-54
-2.137e-53
2.431e-52
-2.712e-51
2.964e-50
-3.166e-49
3.285e-48
-3.303e-47
3.146e-46
-2.903e-45
2.637e-44
-2.347e-43
2.038e-42
-1.717e-41
1.396e-40
-1.09e-39
8.122e-39
-5.739e-38
3.822e-37
-2.385e-36
1.389e-35
-7.58e-35
3.939e-34
-2.048e-33
1.161e-32
-7.249e-32
5.478e-31
-3.696e-30
2.423e-29
-1.442e-28
7.202e-28
-3.186e-27
1.376e-26
-2.574e-26
1.203e-25
8.892e-25
1.932e-24
5.535e-23
1.359e-22
2.009e-21
8.647e-21
5.437e-20
2.415e-19
1.29e-18
4.095e-18
1.028e-17
2.339e-17
4.994e-17
1.012e-16
1.961e-16
3.64e-16
6.498e-16
1.118e-15
1.858e-15
2.99e-15
4.666e-15
7.077e-15
1.045e-14
1.507e-14
2.122e-14
2.928e-14
3.961e-14
5.266e-14
6.889e-14
8.881e-14
1.13e-13
1.421e-13
1.767e-13
2.177e-13
2.66e-13
3.224e-13
3.882e-13
4.644e-13
5.525e-13
6.54e-13
7.706e-13
9.04e-13
1.056e-12
1.23e-12
1.427e-12
1.65e-12
1.903e-12
2.188e-12
2.509e-12
2.87e-12
3.274e-12
3.726e-12
4.232e-12
4.796e-12
5.424e-12
6.121e-12
6.896e-12
7.754e-12
8.703e-12
9.752e-12
1.091e-11
1.218e-11
1.359e-11
1.513e-11
1.682e-11
1.867e-11
2.07e-11
2.292e-11
2.535e-11
2.799e-11
3.087e-11
3.399e-11
3.739e-11
4.105e-11
4.5e-11
4.923e-11
5.384e-11
1.45e-62
-1.154e-61
4.101e-61
-9.041e-61
1.314e-60
-1.273e-60
7.538e-61
-1.604e-61
-6.888e-62
-1.79e-60
1.758e-59
-2.471e-58
3.442e-57
-4.516e-56
5.638e-55
-6.78e-54
7.925e-53
-9.061e-52
1.017e-50
-1.121e-49
1.213e-48
-1.285e-47
1.325e-46
-1.325e-45
1.262e-44
-1.168e-43
1.064e-42
-9.497e-42
8.264e-41
-6.979e-40
5.692e-39
-4.459e-38
3.336e-37
-2.369e-36
1.587e-35
-9.956e-35
5.823e-34
-3.173e-33
1.615e-32
-7.933e-32
4.076e-31
-2.274e-30
1.725e-29
-1.145e-28
7.751e-28
-4.759e-27
2.411e-26
-1.093e-25
5.138e-25
-6.855e-25
6.086e-24
3.202e-23
2.199e-22
1.986e-21
1.048e-20
8.618e-20
3.807e-19
1.942e-18
6.556e-18
1.769e-17
4.318e-17
9.856e-17
2.126e-16
4.359e-16
8.513e-16
1.587e-15
2.831e-15
4.842e-15
7.959e-15
1.26e-14
1.927e-14
2.851e-14
4.091e-14
5.709e-14
7.763e-14
1.031e-13
1.339e-13
1.706e-13
2.136e-13
2.632e-13
3.197e-13
3.838e-13
4.557e-13
5.361e-13
6.257e-13
7.254e-13
8.362e-13
9.593e-13
1.096e-12
1.249e-12
1.418e-12
1.607e-12
1.818e-12
2.053e-12
2.315e-12
2.608e-12
2.934e-12
3.299e-12
3.705e-12
4.158e-12
4.662e-12
5.223e-12
5.846e-12
6.539e-12
7.306e-12
8.157e-12
9.098e-12
1.014e-11
1.129e-11
1.255e-11
1.395e-11
1.548e-11
1.717e-11
1.901e-11
2.104e-11
2.326e-11
2.568e-11
2.833e-11
3.122e-11
3.436e-11
3.778e-11
4.15e-11
4.552e-11
4.988e-11
5.459e-11
5.966e-11
6.518e-11
7.192e-11
-2.043e-61
1.765e-60
-7.77e-60
2.293e-59
-4.791e-59
7.346e-59
-8.301e-59
6.633e-59
-3.142e-59
-8.43e-59
8.074e-58
-1.076e-56
1.447e-55
-1.832e-54
2.21e-53
-2.576e-52
2.928e-51
-3.269e-50
3.595e-49
-3.896e-48
4.158e-47
-4.355e-46
4.458e-45
-4.44e-44
4.235e-43
-3.944e-42
3.613e-41
-3.241e-40
2.836e-39
-2.408e-38
1.977e-37
-1.56e-36
1.177e-35
-8.441e-35
5.722e-34
-3.638e-33
2.155e-32
-1.185e-31
5.968e-31
-2.78e-30
1.254e-29
-5.677e-29
4.099e-28
-2.607e-27
1.866e-26
-1.181e-25
6.364e-25
-2.932e-24
1.528e-23
2.763e-24
2.646e-22
1.851e-21
1.371e-20
1.002e-19
5.497e-19
2.961e-18
1.079e-17
3.187e-17
8.526e-17
2.128e-16
4.995e-16
1.107e-15
2.322e-15
4.618e-15
8.718e-15
1.565e-14
2.679e-14
4.381e-14
6.862e-14
1.033e-13
1.496e-13
2.094e-13
2.838e-13
3.733e-13
4.779e-13
5.971e-13
7.297e-13
8.743e-13
1.029e-12
1.194e-12
1.366e-12
1.546e-12
1.734e-12
1.93e-12
2.134e-12
2.349e-12
2.576e-12
2.817e-12
3.076e-12
3.354e-12
3.656e-12
3.984e-12
4.343e-12
4.737e-12
5.171e-12
5.649e-12
6.177e-12
6.762e-12
7.408e-12
8.124e-12
8.916e-12
9.792e-12
1.076e-11
1.183e-11
1.301e-11
1.432e-11
1.576e-11
1.734e-11
1.908e-11
2.1e-11
2.31e-11
2.54e-11
2.793e-11
3.069e-11
3.37e-11
3.7e-11
4.059e-11
4.449e-11
4.874e-11
5.335e-11
5.835e-11
6.376e-11
6.961e-11
7.592e-11
8.271e-11
9.001e-11
9.791e-11
1.083e-10
2.634e-60
-2.4e-59
1.226e-58
-4.454e-58
1.201e-57
-2.488e-57
4.016e-57
-5.007e-57
4.686e-57
-5.696e-57
3.425e-56
-4.189e-55
5.307e-54
-6.341e-53
7.25e-52
-8.058e-51
8.793e-50
-9.484e-49
1.014e-47
-1.074e-46
1.125e-45
-1.164e-44
1.182e-43
-1.174e-42
1.127e-41
-1.06e-40
9.808e-40
-8.882e-39
7.847e-38
-6.736e-37
5.593e-36
-4.472e-35
3.426e-34
-2.501e-33
1.732e-32
-1.128e-31
6.873e-31
-3.895e-30
1.998e-29
-9.225e-29
3.834e-28
-1.377e-27
6.463e-27
-2.421e-26
1.66e-25
-8.859e-25
6.886e-24
-2.854e-23
3.069e-22
1.708e-21
1.517e-20
1.055e-19
6.714e-19
3.967e-18
1.6e-17
5.288e-17
1.585e-16
4.418e-16
1.153e-15
2.824e-15
6.502e-15
1.409e-14
2.876e-14
5.541e-14
1.009e-13
1.74e-13
2.85e-13
4.444e-13
6.618e-13
9.439e-13
1.294e-12
1.709e-12
2.181e-12
2.7e-12
3.25e-12
3.815e-12
4.378e-12
4.926e-12
5.45e-12
5.943e-12
6.404e-12
6.836e-12
7.238e-12
7.619e-12
7.986e-12
8.348e-12
8.712e-12
9.087e-12
9.484e-12
9.909e-12
1.037e-11
1.088e-11
1.143e-11
1.205e-11
1.274e-11
1.351e-11
1.437e-11
1.532e-11
1.638e-11
1.756e-11
1.886e-11
2.031e-11
2.192e-11
2.369e-11
2.565e-11
2.781e-11
3.019e-11
3.281e-11
3.568e-11
3.884e-11
4.229e-11
4.607e-11
5.02e-11
5.471e-11
5.962e-11
6.497e-11
7.078e-11
7.71e-11
8.395e-11
9.136e-11
9.936e-11
1.08e-10
1.173e-10
1.273e-10
1.38e-10
1.495e-10
1.619e-10
1.789e-10
-3.193e-59
3.014e-58
-1.715e-57
7.298e-57
-2.397e-56
6.253e-56
-1.315e-55
2.219e-55
-2.87e-55
1.111e-55
1.257e-54
-1.383e-53
1.593e-52
-1.734e-51
1.823e-50
-1.888e-49
1.942e-48
-1.997e-47
2.056e-46
-2.117e-45
2.174e-44
-2.22e-43
2.244e-42
-2.234e-41
2.177e-40
-2.086e-39
1.963e-38
-1.808e-37
1.627e-36
-1.424e-35
1.208e-34
-9.883e-34
7.773e-33
-5.85e-32
4.199e-31
-2.847e-30
1.825e-29
-1.1e-28
5.975e-28
-2.94e-27
1.302e-26
-4.727e-26
1.827e-25
-2.239e-25
7.1e-25
1.769e-23
2.086e-23
8.077e-22
1.141e-20
8.122e-20
6.349e-19
4.262e-18
1.941e-17
7.316e-17
2.505e-16
7.96e-16
2.357e-15
6.515e-15
1.682e-14
4.059e-14
9.165e-14
1.938e-13
3.841e-13
7.15e-13
1.252e-12
2.069e-12
3.233e-12
4.795e-12
6.771e-12
9.134e-12
1.181e-11
1.47e-11
1.766e-11
2.054e-11
2.32e-11
2.556e-11
2.752e-11
2.906e-11
3.02e-11
3.099e-11
3.145e-11
3.17e-11
3.168e-11
3.157e-11
3.14e-11
3.12e-11
3.101e-11
3.087e-11
3.084e-11
3.09e-11
3.107e-11
3.139e-11
3.185e-11
3.248e-11
3.328e-11
3.428e-11
3.547e-11
3.687e-11
3.85e-11
4.036e-11
4.248e-11
4.488e-11
4.757e-11
5.057e-11
5.391e-11
5.762e-11
6.172e-11
6.624e-11
7.122e-11
7.668e-11
8.266e-11
8.921e-11
9.635e-11
1.041e-10
1.126e-10
1.218e-10
1.319e-10
1.427e-10
1.544e-10
1.671e-10
1.807e-10
1.954e-10
2.112e-10
2.281e-10
2.462e-10
2.655e-10
2.86e-10
3.153e-10
3.679e-58
-3.554e-57
2.193e-56
-1.057e-55
4.073e-55
-1.284e-54
3.358e-54
-7.283e-54
1.289e-53
-1.894e-53
5.145e-53
-3.435e-52
3.351e-51
-3.091e-50
2.823e-49
-2.625e-48
2.476e-47
-2.393e-46
2.354e-45
-2.353e-44
2.373e-43
-2.412e-42
2.457e-41
-2.495e-40
2.508e-39
-2.485e-38
2.421e-37
-2.308e-36
2.159e-35
-1.969e-34
1.746e-33
-1.495e-32
1.233e-31
-9.776e-31
7.444e-30
-5.362e-29
3.718e-28
-2.449e-27
1.45e-26
-8.046e-26
4.16e-25
-1.825e-24
7.554e-24
-2.405e-23
4.833e-23
2.407e-22
9.821e-22
5.771e-20
4.463e-19
3.382e-18
1.777e-17
7.773e-17
3.095e-16
1.141e-15
3.907e-15
1.242e-14
3.67e-14
1.007e-13
2.57e-13
6.098e-13
1.347e-12
2.771e-12
5.318e-12
9.535e-12
1.601e-11
2.526e-11
3.755e-11
5.283e-11
7.057e-11
8.986e-11
1.095e-10
1.282e-10
1.446e-10
1.578e-10
1.67e-10
1.729e-10
1.743e-10
1.728e-10
1.691e-10
1.635e-10
1.566e-10
1.49e-10
1.41e-10
1.332e-10
1.258e-10
1.19e-10
1.129e-10
1.075e-10
1.028e-10
9.894e-11
9.579e-11
9.334e-11
9.157e-11
9.045e-11
8.995e-11
9.016e-11
9.087e-11
9.212e-11
9.401e-11
9.649e-11
9.956e-11
1.032e-10
1.076e-10
1.125e-10
1.182e-10
1.246e-10
1.317e-10
1.397e-10
1.485e-10
1.582e-10
1.689e-10
1.806e-10
1.934e-10
2.073e-10
2.225e-10
2.39e-10
2.569e-10
2.763e-10
2.972e-10
3.197e-10
3.44e-10
3.7e-10
3.979e-10
4.277e-10
4.595e-10
4.934e-10
5.291e-10
5.813e-10
-4.029e-57
3.95e-56
-2.595e-55
1.384e-54
-6.094e-54
2.257e-53
-7.118e-53
1.91e-52
-4.232e-52
6.856e-52
1.521e-52
-4.532e-51
2.612e-50
-1.008e-49
3.548e-49
-1.627e-48
1.283e-47
-1.41e-46
1.609e-45
-1.876e-44
2.323e-43
-3.043e-42
4.053e-41
-5.398e-40
6.557e-39
-7.591e-38
8.421e-37
-8.894e-36
9.356e-35
-9.393e-34
9.289e-33
-8.528e-32
7.455e-31
-6.213e-30
4.978e-29
-3.685e-28
2.713e-27
-1.865e-26
1.192e-25
-7.485e-25
4.294e-24
-2.449e-23
1.296e-22
-6.262e-22
3.732e-21
9.009e-22
1.78e-19
1.847e-18
1.145e-17
5.913e-17
2.781e-16
1.208e-15
4.86e-15
1.809e-14
6.224e-14
1.98e-13
5.825e-13
1.584e-12
3.983e-12
9.267e-12
1.996e-11
3.984e-11
7.377e-11
1.27e-10
2.037e-10
3.058e-10
4.314e-10
5.742e-10
7.235e-10
8.683e-10
9.952e-10
1.094e-09
1.157e-09
1.184e-09
1.172e-09
1.138e-09
1.083e-09
1.012e-09
9.324e-10
8.499e-10
7.687e-10
6.918e-10
6.212e-10
5.577e-10
5.016e-10
4.527e-10
4.106e-10
3.748e-10
3.445e-10
3.191e-10
2.98e-10
2.807e-10
2.668e-10
2.557e-10
2.473e-10
2.412e-10
2.372e-10
2.348e-10
2.35e-10
2.363e-10
2.392e-10
2.437e-10
2.497e-10
2.573e-10
2.664e-10
2.771e-10
2.894e-10
3.033e-10
3.19e-10
3.364e-10
3.557e-10
3.77e-10
4.004e-10
4.26e-10
4.538e-10
4.841e-10
5.169e-10
5.524e-10
5.908e-10
6.32e-10
6.764e-10
7.239e-10
7.747e-10
8.29e-10
8.867e-10
9.481e-10
1.012e-09
1.108e-09
4.162e-56
-4.116e-55
2.841e-54
-1.647e-53
8.127e-53
-3.466e-52
1.293e-51
-4.241e-51
1.208e-50
-2.828e-50
4.197e-50
8.935e-50
-9.855e-49
6.851e-48
-3.814e-47
1.941e-46
-1.03e-45
6.641e-45
-6.306e-44
7.572e-43
-9.296e-42
1.08e-40
-1.182e-39
1.229e-38
-1.222e-37
1.157e-36
-1.053e-35
9.236e-35
-7.629e-34
6.238e-33
-4.854e-32
3.678e-31
-2.655e-30
1.83e-29
-1.111e-28
9.758e-28
-4.036e-27
2.407e-26
-7.73e-26
1.515e-25
6.14e-25
-1.323e-23
1.384e-22
-1.987e-22
4.552e-20
4.591e-19
4.51e-18
3.011e-17
1.707e-16
8.851e-16
4.237e-15
1.872e-14
7.625e-14
2.86e-13
9.874e-13
3.135e-12
9.157e-12
2.46e-11
6.079e-11
1.382e-10
2.893e-10
5.581e-10
9.935e-10
1.635e-09
2.497e-09
3.555e-09
4.743e-09
5.957e-09
7.065e-09
7.991e-09
8.59e-09
8.843e-09
8.727e-09
8.395e-09
7.857e-09
7.177e-09
6.424e-09
5.658e-09
4.921e-09
4.241e-09
3.634e-09
3.105e-09
2.652e-09
2.27e-09
1.95e-09
1.685e-09
1.467e-09
1.287e-09
1.14e-09
1.019e-09
9.21e-10
8.409e-10
7.76e-10
7.236e-10
6.818e-10
6.49e-10
6.238e-10
6.051e-10
5.924e-10
5.846e-10
5.819e-10
5.837e-10
5.89e-10
5.982e-10
6.111e-10
6.277e-10
6.479e-10
6.717e-10
6.992e-10
7.304e-10
7.654e-10
8.044e-10
8.475e-10
8.949e-10
9.467e-10
1.003e-09
1.064e-09
1.131e-09
1.202e-09
1.279e-09
1.362e-09
1.451e-09
1.545e-09
1.646e-09
1.753e-09
1.867e-09
1.985e-09
2.163e-09
-3.993e-55
3.964e-54
-2.844e-53
1.769e-52
-9.621e-52
4.641e-51
-2.01e-50
7.876e-50
-2.798e-49
8.886e-49
-2.389e-48
4.3e-48
1.289e-47
-1.746e-46
1.612e-45
-1.376e-44
1.123e-43
-9.037e-43
7.001e-42
-5.215e-41
3.756e-40
-2.659e-39
1.871e-38
-1.337e-37
9.727e-37
-6.957e-36
4.743e-35
-2.995e-34
1.654e-33
-5.468e-33
-1.739e-32
5.942e-31
-7.914e-30
8.253e-29
-7.539e-28
6.282e-27
-4.845e-26
3.513e-25
-2.375e-24
1.508e-23
-9.246e-23
5.532e-22
-1.986e-21
9.586e-20
1.28e-18
1.016e-17
6.869e-17
4.262e-16
2.445e-15
1.295e-14
6.321e-14
2.834e-13
1.166e-12
4.396e-12
1.518e-11
4.794e-11
1.386e-10
3.666e-10
8.867e-10
1.962e-09
3.976e-09
7.381e-09
1.257e-08
1.97e-08
2.851e-08
3.838e-08
4.829e-08
5.712e-08
6.364e-08
6.802e-08
6.761e-08
6.541e-08
6.116e-08
5.539e-08
4.88e-08
4.201e-08
3.55e-08
2.956e-08
2.436e-08
1.993e-08
1.624e-08
1.323e-08
1.079e-08
8.837e-09
7.283e-09
6.049e-09
5.07e-09
4.294e-09
3.677e-09
3.186e-09
2.793e-09
2.48e-09
2.228e-09
2.027e-09
1.866e-09
1.737e-09
1.636e-09
1.556e-09
1.496e-09
1.452e-09
1.422e-09
1.404e-09
1.398e-09
1.402e-09
1.415e-09
1.437e-09
1.467e-09
1.505e-09
1.552e-09
1.607e-09
1.67e-09
1.741e-09
1.821e-09
1.909e-09
2.006e-09
2.112e-09
2.228e-09
2.353e-09
2.489e-09
2.635e-09
2.791e-09
2.959e-09
3.138e-09
3.328e-09
3.53e-09
3.745e-09
3.965e-09
4.302e-09
3.475e-54
-3.447e-53
2.549e-52
-1.68e-51
9.939e-51
-5.336e-50
2.631e-49
-1.204e-48
5.147e-48
-2.066e-47
7.795e-47
-2.781e-46
9.912e-46
-4.109e-45
2.539e-44
-2.105e-43
1.768e-42
-1.455e-41
1.092e-40
-7.447e-40
4.602e-39
-2.606e-38
1.364e-37
-7.936e-37
6.196e-36
-5.855e-35
5.895e-34
-5.841e-33
5.54e-32
-4.999e-31
4.296e-30
-3.522e-29
2.761e-28
-2.071e-27
1.489e-26
-1.025e-25
6.769e-25
-4.255e-24
2.609e-23
-1.511e-22
8.648e-22
-3.41e-21
1.355e-19
1.981e-18
1.724e-17
1.294e-16
8.933e-16
5.701e-15
3.356e-14
1.816e-13
9.007e-13
4.086e-12
1.692e-11
6.389e-11
2.197e-10
6.877e-10
1.96e-09
5.078e-09
1.197e-08
2.564e-08
5.003e-08
8.892e-08
1.443e-07
2.141e-07
2.926e-07
3.711e-07
4.398e-07
4.888e-07
5.13e-07
5.048e-07
4.793e-07
4.376e-07
3.855e-07
3.293e-07
2.741e-07
2.234e-07
1.79e-07
1.416e-07
1.111e-07
8.67e-08
6.754e-08
5.267e-08
4.124e-08
3.248e-08
2.579e-08
2.068e-08
1.677e-08
1.376e-08
1.144e-08
9.64e-09
8.234e-09
7.13e-09
6.26e-09
5.57e-09
5.023e-09
4.587e-09
4.241e-09
3.968e-09
3.753e-09
3.588e-09
3.464e-09
3.376e-09
3.319e-09
3.283e-09
3.285e-09
3.301e-09
3.337e-09
3.393e-09
3.468e-09
3.561e-09
3.672e-09
3.801e-09
3.947e-09
4.112e-09
4.294e-09
4.495e-09
4.714e-09
4.953e-09
5.211e-09
5.49e-09
5.789e-09
6.11e-09
6.452e-09
6.815e-09
7.201e-09
7.61e-09
8.027e-09
8.671e-09
-2.649e-53
2.617e-52
-1.979e-51
1.368e-50
-8.684e-50
5.106e-49
-2.812e-48
1.465e-47
-7.291e-47
3.481e-46
-1.584e-45
6.659e-45
-2.304e-44
4.171e-44
3.915e-43
-6.193e-42
5.806e-41
-4.713e-40
3.426e-39
-2.26e-38
1.336e-37
-6.708e-37
2.226e-36
2.66e-36
-1.286e-34
1.645e-33
-1.63e-32
1.439e-31
-1.184e-30
9.257e-30
-6.943e-29
5.02e-28
-3.507e-27
2.37e-26
-1.549e-25
9.785e-25
-5.961e-24
3.54e-23
-1.93e-22
1.085e-21
-4.456e-21
1.574e-19
2.522e-18
2.412e-17
2.007e-16
1.541e-15
1.095e-14
7.175e-14
4.317e-13
2.378e-12
1.194e-11
5.459e-11
2.265e-10
8.52e-10
2.903e-09
8.953e-09
2.499e-08
6.304e-08
1.437e-07
2.962e-07
5.529e-07
9.353e-07
1.437e-06
2.012e-06
2.587e-06
3.088e-06
3.45e-06
3.589e-06
3.508e-06
3.29e-06
2.954e-06
2.549e-06
2.127e-06
1.723e-06
1.364e-06
1.059e-06
8.095e-07
6.124e-07
4.601e-07
3.446e-07
2.581e-07
1.939e-07
1.465e-07
1.116e-07
8.582e-08
6.677e-08
5.262e-08
4.204e-08
3.407e-08
2.803e-08
2.341e-08
1.985e-08
1.708e-08
1.492e-08
1.322e-08
1.187e-08
1.081e-08
9.962e-09
9.294e-09
8.771e-09
8.365e-09
8.058e-09
7.835e-09
7.682e-09
7.59e-09
7.564e-09
7.588e-09
7.652e-09
7.76e-09
7.91e-09
8.1e-09
8.329e-09
8.596e-09
8.9e-09
9.242e-09
9.622e-09
1.004e-08
1.05e-08
1.099e-08
1.153e-08
1.21e-08
1.272e-08
1.338e-08
1.408e-08
1.482e-08
1.561e-08
1.64e-08
1.764e-08
1.686e-52
-1.651e-51
1.268e-50
-9.109e-50
6.121e-49
-3.875e-48
2.332e-47
-1.351e-46
7.664e-46
-4.356e-45
2.54e-44
-1.567e-43
1.03e-42
-6.664e-42
4.526e-41
-3.195e-40
2.244e-39
-1.559e-38
1.067e-37
-7.183e-37
4.765e-36
-3.124e-35
2.033e-34
-1.321e-33
8.636e-33
-5.65e-32
3.701e-31
-2.422e-30
1.579e-29
-1.023e-28
6.569e-28
-4.165e-27
2.599e-26
-1.593e-25
9.554e-25
-5.592e-24
3.2e-23
-1.732e-22
1.064e-21
-4.531e-21
1.478e-19
2.6e-18
2.73e-17
2.516e-16
2.146e-15
1.697e-14
1.238e-13
8.291e-13
5.079e-12
2.833e-11
1.434e-10
6.564e-10
2.711e-09
1.009e-08
3.377e-08
1.018e-07
2.756e-07
6.702e-07
1.464e-06
2.875e-06
5.094e-06
8.147e-06
1.18e-05
1.554e-05
1.878e-05
2.121e-05
2.217e-05
2.163e-05
2.018e-05
1.796e-05
1.533e-05
1.26e-05
1.003e-05
7.778e-06
5.901e-06
4.399e-06
3.236e-06
2.359e-06
1.71e-06
1.238e-06
8.976e-07
6.539e-07
4.798e-07
3.554e-07
2.663e-07
2.021e-07
1.556e-07
1.216e-07
9.652e-08
7.786e-08
6.383e-08
5.319e-08
4.503e-08
3.872e-08
3.381e-08
2.996e-08
2.692e-08
2.452e-08
2.261e-08
2.111e-08
1.992e-08
1.901e-08
1.831e-08
1.78e-08
1.745e-08
1.724e-08
1.715e-08
1.719e-08
1.732e-08
1.754e-08
1.785e-08
1.825e-08
1.873e-08
1.929e-08
1.993e-08
2.064e-08
2.144e-08
2.231e-08
2.327e-08
2.43e-08
2.541e-08
2.66e-08
2.788e-08
2.923e-08
3.066e-08
3.218e-08
3.372e-08
3.612e-08
-8.292e-52
8.06e-51
-6.257e-50
4.642e-49
-3.276e-48
2.193e-47
-1.387e-46
8.216e-46
-4.502e-45
2.216e-44
-9.298e-44
7.759e-44
1.974e-42
-1.974e-41
2e-40
-1.706e-39
1.307e-38
-9.314e-38
6.272e-37
-4.007e-36
2.421e-35
-1.364e-34
6.894e-34
-3.038e-33
9.848e-33
-1.876e-33
-3.664e-31
4.63e-30
-4.29e-29
3.479e-28
-2.603e-27
1.84e-26
-1.242e-25
8.057e-25
-5.039e-24
3.047e-23
-1.769e-22
1.04e-21
-3.793e-21
1.088e-19
2.137e-18
2.466e-17
2.512e-16
2.375e-15
2.085e-14
1.691e-13
1.26e-12
8.591e-12
5.327e-11
2.991e-10
1.514e-09
6.887e-09
2.805e-08
1.022e-07
3.323e-07
9.653e-07
2.502e-06
5.785e-06
1.194e-05
2.207e-05
3.677e-05
5.528e-05
7.527e-05
9.307e-05
0.0001066
0.0001139
0.0001116
0.0001045
9.324e-05
7.956e-05
6.522e-05
5.165e-05
3.971e-05
2.979e-05
2.19e-05
1.584e-05
1.132e-05
8.024e-06
5.663e-06
3.994e-06
2.825e-06
2.009e-06
1.441e-06
1.045e-06
7.671e-07
5.711e-07
4.317e-07
3.316e-07
2.59e-07
2.058e-07
1.663e-07
1.367e-07
1.142e-07
9.707e-08
8.379e-08
7.345e-08
6.533e-08
5.892e-08
5.385e-08
4.983e-08
4.665e-08
4.416e-08
4.222e-08
4.075e-08
3.968e-08
3.894e-08
3.85e-08
3.833e-08
3.843e-08
3.871e-08
3.918e-08
3.985e-08
4.07e-08
4.172e-08
4.29e-08
4.425e-08
4.577e-08
4.744e-08
4.927e-08
5.127e-08
5.342e-08
5.573e-08
5.82e-08
6.082e-08
6.36e-08
6.655e-08
6.952e-08
7.418e-08
3.01e-51
-2.57e-50
1.927e-49
-1.523e-48
1.235e-47
-1.004e-46
8.042e-46
-6.283e-45
4.771e-44
-3.524e-43
2.537e-42
-1.786e-41
1.235e-40
-8.394e-40
5.636e-39
-3.744e-38
2.464e-37
-1.609e-36
1.044e-35
-6.727e-35
4.309e-34
-2.744e-33
1.735e-32
-1.09e-31
6.789e-31
-4.194e-30
2.566e-29
-1.554e-28
9.308e-28
-5.507e-27
3.215e-26
-1.85e-25
1.048e-24
-5.835e-24
3.192e-23
-1.704e-22
9.172e-22
-4.133e-21
4.491e-20
1.338e-18
1.758e-17
1.98e-16
2.067e-15
2.007e-14
1.805e-13
1.494e-12
1.132e-11
7.802e-11
4.863e-10
2.727e-09
1.368e-08
6.117e-08
2.427e-07
8.528e-07
2.65e-06
7.289e-06
1.775e-05
3.838e-05
7.358e-05
0.000126
0.0001957
0.0002755
0.0003522
0.0004099
0.0004543
0.0004511
0.0004297
0.0003888
0.0003362
0.0002792
0.0002233
0.0001729
0.0001302
9.584e-05
6.916e-05
4.912e-05
3.447e-05
2.399e-05
1.663e-05
1.153e-05
8.016e-06
5.609e-06
3.96e-06
2.827e-06
2.046e-06
1.502e-06
1.121e-06
8.506e-07
6.568e-07
5.161e-07
4.128e-07
3.36e-07
2.783e-07
2.344e-07
2.006e-07
1.745e-07
1.54e-07
1.379e-07
1.252e-07
1.151e-07
1.071e-07
1.007e-07
9.577e-08
9.193e-08
8.903e-08
8.692e-08
8.553e-08
8.465e-08
8.449e-08
8.475e-08
8.542e-08
8.65e-08
8.797e-08
8.981e-08
9.201e-08
9.455e-08
9.742e-08
1.006e-07
1.041e-07
1.08e-07
1.122e-07
1.166e-07
1.214e-07
1.265e-07
1.319e-07
1.377e-07
1.434e-07
1.525e-07
2.296e-50
-2.225e-49
1.753e-48
-1.336e-47
9.806e-47
-6.952e-46
4.777e-45
-3.195e-44
2.091e-43
-1.345e-42
8.543e-42
-5.384e-41
3.378e-40
-2.116e-39
1.327e-38
-8.331e-38
5.247e-37
-3.317e-36
2.105e-35
-1.342e-34
8.605e-34
-5.547e-33
3.597e-32
-2.315e-31
1.48e-30
-9.399e-30
5.922e-29
-3.699e-28
2.29e-27
-1.403e-26
8.506e-26
-5.095e-25
3.013e-24
-1.757e-23
1.011e-22
-5.64e-22
3.391e-21
-1.429e-20
4.412e-19
9.507e-18
1.225e-16
1.408e-15
1.506e-14
1.495e-13
1.37e-12
1.151e-11
8.805e-11
6.091e-10
3.785e-09
2.099e-08
1.032e-07
4.479e-07
1.705e-06
5.679e-06
1.652e-05
4.205e-05
9.428e-05
0.0001876
0.0003281
0.0005129
0.0007398
0.0009741
0.001166
0.0013
0.001356
0.001324
0.001232
0.001091
0.0009302
0.0007663
0.0006092
0.0004692
0.0003519
0.000258
0.0001853
0.0001308
9.119e-05
6.299e-05
4.331e-05
2.975e-05
2.05e-05
1.421e-05
9.942e-06
7.036e-06
5.048e-06
3.677e-06
2.722e-06
2.05e-06
1.572e-06
1.227e-06
9.752e-07
7.89e-07
6.497e-07
5.442e-07
4.635e-07
4.01e-07
3.523e-07
3.14e-07
2.837e-07
2.596e-07
2.405e-07
2.253e-07
2.133e-07
2.039e-07
1.967e-07
1.913e-07
1.875e-07
1.851e-07
1.836e-07
1.838e-07
1.846e-07
1.863e-07
1.888e-07
1.921e-07
1.961e-07
2.009e-07
2.063e-07
2.125e-07
2.192e-07
2.267e-07
2.347e-07
2.434e-07
2.527e-07
2.626e-07
2.731e-07
2.842e-07
2.954e-07
3.13e-07
-5.227e-50
5.061e-49
-3.992e-48
3.053e-47
-2.255e-46
1.609e-45
-1.111e-44
7.439e-44
-4.844e-43
3.078e-42
-1.915e-41
1.173e-40
-7.1e-40
4.274e-39
-2.573e-38
1.558e-37
-9.545e-37
5.938e-36
-3.763e-35
2.43e-34
-1.598e-33
1.067e-32
-7.19e-32
4.784e-31
-3.146e-30
2.046e-29
-1.316e-28
8.373e-28
-5.271e-27
3.283e-26
-2.023e-25
1.233e-24
-7.426e-24
4.426e-23
-2.591e-22
1.574e-21
-5.807e-21
1.852e-19
4.317e-18
6.001e-17
7.514e-16
8.799e-15
9.602e-14
9.7e-13
9.007e-12
7.631e-11
5.852e-10
4.031e-09
2.474e-08
1.342e-07
6.392e-07
2.653e-06
9.531e-06
2.951e-05
7.86e-05
0.0001809
0.0003673
0.0006648
0.001047
0.001483
0.001989
0.00245
0.002763
0.002955
0.002946
0.00285
0.002618
0.0023
0.001978
0.001653
0.001331
0.001037
0.0007871
0.0005833
0.0004227
0.0003005
0.0002103
0.0001456
0.0001001
6.875e-05
4.73e-05
3.272e-05
2.283e-05
1.612e-05
1.153e-05
8.374e-06
6.183e-06
4.644e-06
3.551e-06
2.765e-06
2.192e-06
1.769e-06
1.453e-06
1.215e-06
1.032e-06
8.908e-07
7.807e-07
6.942e-07
6.258e-07
5.713e-07
5.279e-07
4.934e-07
4.659e-07
4.443e-07
4.274e-07
4.146e-07
4.053e-07
3.989e-07
3.95e-07
3.937e-07
3.946e-07
3.972e-07
4.015e-07
4.074e-07
4.148e-07
4.238e-07
4.341e-07
4.459e-07
4.589e-07
4.732e-07
4.889e-07
5.057e-07
5.238e-07
5.43e-07
5.634e-07
5.85e-07
6.065e-07
6.408e-07
1.404e-49
-1.28e-48
9.793e-48
-7.515e-47
5.728e-46
-4.322e-45
3.216e-44
-2.354e-43
1.693e-42
-1.195e-41
8.286e-41
-5.644e-40
3.782e-39
-2.497e-38
1.627e-37
-1.047e-36
6.673e-36
-4.213e-35
2.638e-34
-1.64e-33
1.013e-32
-6.221e-32
3.795e-31
-2.298e-30
1.383e-29
-8.269e-29
4.915e-28
-2.904e-27
1.706e-26
-9.968e-26
5.792e-25
-3.347e-24
1.925e-23
-1.098e-22
6.414e-22
-2.838e-21
4.635e-20
1.504e-18
2.317e-17
3.155e-16
4.024e-15
4.799e-14
5.318e-13
5.438e-12
5.088e-11
4.319e-10
3.297e-09
2.243e-08
1.347e-07
7.072e-07
3.219e-06
1.259e-05
4.201e-05
0.0001188
0.000284
0.0005801
0.001057
0.001731
0.002467
0.003175
0.00393
0.004703
0.005029
0.005008
0.0049
0.004686
0.004279
0.003853
0.003425
0.002938
0.002405
0.001911
0.001484
0.001125
0.0008309
0.0006002
0.0004256
0.0002978
0.0002067
0.0001429
9.883e-05
6.868e-05
4.81e-05
3.406e-05
2.443e-05
1.778e-05
1.315e-05
9.895e-06
7.578e-06
5.908e-06
4.689e-06
3.789e-06
3.115e-06
2.605e-06
2.214e-06
1.912e-06
1.676e-06
1.49e-06
1.343e-06
1.226e-06
1.132e-06
1.057e-06
9.97e-07
9.496e-07
9.125e-07
8.839e-07
8.627e-07
8.477e-07
8.385e-07
8.329e-07
8.339e-07
8.378e-07
8.451e-07
8.558e-07
8.697e-07
8.865e-07
9.062e-07
9.287e-07
9.538e-07
9.815e-07
1.012e-06
1.044e-06
1.079e-06
1.117e-06
1.156e-06
1.198e-06
1.24e-06
1.307e-06
3.396e-49
-3.313e-48
2.65e-47
-2.071e-46
1.572e-45
-1.16e-44
8.316e-44
-5.808e-43
3.958e-42
-2.638e-41
1.725e-40
-1.11e-39
7.053e-39
-4.439e-38
2.776e-37
-1.73e-36
1.078e-35
-6.728e-35
4.213e-34
-2.651e-33
1.677e-32
-1.067e-31
6.805e-31
-4.318e-30
2.719e-29
-1.701e-28
1.057e-27
-6.537e-27
4.021e-26
-2.461e-25
1.501e-24
-9.115e-24
5.521e-23
-3.316e-22
2.089e-21
-7.662e-21
2.675e-19
6.873e-18
1.05e-16
1.452e-15
1.881e-14
2.275e-13
2.549e-12
2.625e-11
2.462e-10
2.083e-09
1.572e-08
1.048e-07
6.1e-07
3.067e-06
1.318e-05
4.794e-05
0.0001464
0.0003727
0.0007906
0.001421
0.002313
0.003423
0.004702
0.005492
0.006161
0.008525
0.009276
0.009078
0.009174
0.009196
0.008414
0.005933
0.005188
0.004485
0.003753
0.003058
0.002446
0.001903
0.001439
0.001061
0.0007659
0.0005447
0.0003835
0.0002686
0.000188
0.000132
9.329e-05
6.66e-05
4.813e-05
3.528e-05
2.626e-05
1.988e-05
1.53e-05
1.199e-05
9.563e-06
7.76e-06
6.405e-06
5.375e-06
4.583e-06
3.969e-06
3.487e-06
3.107e-06
2.804e-06
2.563e-06
2.369e-06
2.214e-06
2.09e-06
1.991e-06
1.913e-06
1.852e-06
1.807e-06
1.774e-06
1.754e-06
1.74e-06
1.741e-06
1.747e-06
1.759e-06
1.779e-06
1.805e-06
1.837e-06
1.875e-06
1.918e-06
1.967e-06
2.02e-06
2.079e-06
2.142e-06
2.21e-06
2.283e-06
2.359e-06
2.441e-06
2.521e-06
2.65e-06
-6.602e-49
6.022e-48
-4.607e-47
3.532e-46
-2.688e-45
2.024e-44
-1.505e-43
1.102e-42
-7.935e-42
5.618e-41
-3.909e-40
2.673e-39
-1.798e-38
1.19e-37
-7.761e-37
4.99e-36
-3.168e-35
1.987e-34
-1.233e-33
7.575e-33
-4.613e-32
2.787e-31
-1.668e-30
9.919e-30
-5.869e-29
3.458e-28
-2.031e-27
1.19e-26
-6.958e-26
4.064e-25
-2.373e-24
1.386e-23
-8.085e-23
4.845e-22
-2.178e-21
4.905e-20
1.677e-18
2.803e-17
4.176e-16
5.844e-15
7.668e-14
9.37e-13
1.058e-11
1.092e-10
1.022e-09
8.571e-09
6.362e-08
4.128e-07
2.31e-06
1.1e-05
4.413e-05
0.0001475
0.0004076
0.0009283
0.001748
0.002792
0.00404
0.005508
0.00842
0.009355
0.009307
0.009985
0.01011
0.01003
0.01005
0.01015
0.01004
0.009232
0.009255
0.008414
0.005684
0.004564
0.003719
0.002944
0.002263
0.001695
0.001246
0.0009023
0.0006467
0.0004608
0.0003277
0.0002336
0.0001674
0.0001211
8.854e-05
6.563e-05
4.937e-05
3.773e-05
2.932e-05
2.317e-05
1.862e-05
1.522e-05
1.265e-05
1.068e-05
9.157e-06
7.97e-06
7.034e-06
6.292e-06
5.7e-06
5.225e-06
4.843e-06
4.536e-06
4.289e-06
4.092e-06
3.937e-06
3.816e-06
3.724e-06
3.658e-06
3.616e-06
3.585e-06
3.586e-06
3.597e-06
3.621e-06
3.658e-06
3.708e-06
3.77e-06
3.843e-06
3.927e-06
4.021e-06
4.125e-06
4.239e-06
4.362e-06
4.494e-06
4.634e-06
4.783e-06
4.94e-06
5.096e-06
5.346e-06
-1.684e-48
1.583e-47
-1.239e-46
9.644e-46
-7.403e-45
5.591e-44
-4.147e-43
3.019e-42
-2.156e-41
1.51e-40
-1.039e-39
7.02e-39
-4.667e-38
3.055e-37
-1.973e-36
1.258e-35
-7.932e-35
4.953e-34
-3.067e-33
1.885e-32
-1.151e-31
6.995e-31
-4.234e-30
2.553e-29
-1.533e-28
9.185e-28
-5.493e-27
3.283e-26
-1.963e-25
1.176e-24
-7.065e-24
4.263e-23
-2.578e-22
1.621e-21
-7.405e-21
1.681e-19
5.734e-18
9.658e-17
1.456e-15
2.061e-14
2.73e-13
3.36e-12
3.807e-11
3.931e-10
3.657e-09
3.028e-08
2.199e-07
1.381e-06
7.375e-06
3.3e-05
0.0001222
0.0003712
0.0009219
0.001877
0.0032
0.004822
0.006062
0.00888
0.01004
0.009979
0.01
0.009969
0.009969
0.009969
0.009969
0.009969
0.009969
0.009992
0.01
0.0105
0.008739
0.00627
0.0052
0.004221
0.00329
0.002497
0.001863
0.001373
0.001003
0.0007285
0.000528
0.0003833
0.0002797
0.0002056
0.0001528
0.000115
8.77e-05
6.792e-05
5.343e-05
4.272e-05
3.471e-05
2.866e-05
2.404e-05
2.047e-05
1.769e-05
1.551e-05
1.378e-05
1.24e-05
1.129e-05
1.04e-05
9.676e-06
9.095e-06
8.627e-06
8.253e-06
7.956e-06
7.726e-06
7.552e-06
7.426e-06
7.347e-06
7.291e-06
7.293e-06
7.316e-06
7.364e-06
7.438e-06
7.536e-06
7.658e-06
7.801e-06
7.965e-06
8.149e-06
8.351e-06
8.573e-06
8.811e-06
9.067e-06
9.339e-06
9.626e-06
9.93e-06
1.023e-05
1.071e-05
-2.193e-48
2.134e-47
-1.717e-46
1.36e-45
-1.054e-44
7.982e-44
-5.905e-43
4.269e-42
-3.019e-41
2.092e-40
-1.422e-39
9.5e-39
-6.253e-38
4.064e-37
-2.612e-36
1.665e-35
-1.054e-34
6.639e-34
-4.169e-33
2.615e-32
-1.64e-31
1.03e-30
-6.459e-30
4.033e-29
-2.51e-28
1.56e-27
-9.692e-27
6.027e-26
-3.757e-25
2.351e-24
-1.479e-23
9.37e-23
-5.954e-22
4.038e-21
-1.56e-20
6.239e-19
1.767e-17
2.942e-16
4.469e-15
6.381e-14
8.513e-13
1.053e-11
1.194e-10
1.23e-09
1.135e-08
9.246e-08
6.55e-07
3.963e-06
2.01e-05
8.384e-05
0.0002838
0.000777
0.001726
0.003147
0.005137
0.008503
0.009383
0.01061
0.009969
0.009969
0.009969
0.009969
0.009969
0.009969
0.009969
0.009969
0.009969
0.009969
0.009969
0.009969
0.01045
0.009328
0.008621
0.005908
0.004498
0.003428
0.002592
0.001944
0.001448
0.001073
0.0007941
0.0005884
0.000438
0.0003284
0.0002487
0.0001905
0.0001478
0.0001164
9.297e-05
7.541e-05
6.21e-05
5.192e-05
4.406e-05
3.793e-05
3.311e-05
2.929e-05
2.623e-05
2.378e-05
2.181e-05
2.021e-05
1.891e-05
1.786e-05
1.701e-05
1.634e-05
1.58e-05
1.539e-05
1.508e-05
1.485e-05
1.472e-05
1.463e-05
1.465e-05
1.47e-05
1.481e-05
1.496e-05