/*--------------------------------*- C++ -*----------------------------------*\
  =========                 |
  \\      /  F ield         | OpenFOAM: The Open Source CFD Toolbox
   \\    /   O peration     | Website:  https://openfoam.org
    \\  /    A nd           | Version:  7
     \\/     M anipulation  |
\*---------------------------------------------------------------------------*/
FoamFile
{
    version     2.0;
    format      ascii;
    class       volScalarField;
    location    "1559.99947342229871";
    object      p;
}
// * * * * * * * * * * * * * * * * * * * * * * * * * * * * * * * * * * * * * //

dimensions      [0 2 -2 0 0 0 0];

internalField   nonuniform List<scalar> 
4096
(
0.000595
0.0004241
0.0003399
0.0002977
0.0002743
0.0002604
0.0002515
0.0002454
0.0002411
0.0002378
0.0002352
0.0002332
0.0002316
0.0002302
0.000229
0.000228
0.0002271
0.0002263
0.0002256
0.000225
0.0002244
0.0002238
0.0002232
0.0002227
0.0002222
0.0002217
0.0002213
0.0002208
0.0002203
0.0002198
0.0002193
0.0002188
0.0002183
0.0002178
0.0002172
0.0002166
0.0002159
0.0002152
0.0002145
0.0002136
0.0002127
0.0002116
0.0002104
0.0002091
0.0002076
0.0002059
0.000204
0.0002019
0.0001995
0.0001968
0.0001937
0.0001904
0.0001866
0.0001825
0.000178
0.0001732
0.0001679
0.0001623
0.0001563
0.00015
0.0001435
0.0001367
0.0001297
0.0001227
0.0001156
0.0001086
0.0001017
9.493e-05
8.837e-05
8.206e-05
7.605e-05
7.034e-05
6.498e-05
5.996e-05
5.529e-05
5.098e-05
4.701e-05
4.339e-05
4.009e-05
3.71e-05
3.44e-05
3.197e-05
2.98e-05
2.785e-05
2.611e-05
2.456e-05
2.317e-05
2.193e-05
2.082e-05
1.982e-05
1.892e-05
1.81e-05
1.735e-05
1.665e-05
1.601e-05
1.541e-05
1.484e-05
1.43e-05
1.378e-05
1.327e-05
1.278e-05
1.231e-05
1.183e-05
1.137e-05
1.09e-05
1.044e-05
9.982e-06
9.522e-06
9.061e-06
8.599e-06
8.134e-06
7.668e-06
7.199e-06
6.728e-06
6.253e-06
5.776e-06
5.295e-06
4.812e-06
4.325e-06
3.835e-06
3.342e-06
2.847e-06
2.351e-06
1.856e-06
1.364e-06
8.838e-07
4.279e-07
7.667e-08
0.0004506
0.0003868
0.000337
0.000305
0.000284
0.0002698
0.0002597
0.0002524
0.0002469
0.0002427
0.0002393
0.0002367
0.0002345
0.0002327
0.0002311
0.0002298
0.0002286
0.0002276
0.0002267
0.0002258
0.0002251
0.0002243
0.0002237
0.000223
0.0002224
0.0002218
0.0002212
0.0002206
0.00022
0.0002194
0.0002188
0.0002182
0.0002176
0.0002169
0.0002162
0.0002155
0.0002147
0.0002139
0.000213
0.000212
0.0002109
0.0002097
0.0002084
0.000207
0.0002053
0.0002035
0.0002015
0.0001993
0.0001968
0.000194
0.000191
0.0001876
0.0001839
0.0001798
0.0001754
0.0001707
0.0001656
0.0001602
0.0001544
0.0001484
0.0001422
0.0001357
0.0001291
0.0001224
0.0001157
0.000109
0.0001025
9.602e-05
8.976e-05
8.372e-05
7.795e-05
7.246e-05
6.727e-05
6.239e-05
5.783e-05
5.359e-05
4.968e-05
4.607e-05
4.276e-05
3.974e-05
3.7e-05
3.45e-05
3.225e-05
3.021e-05
2.837e-05
2.671e-05
2.521e-05
2.386e-05
2.263e-05
2.151e-05
2.05e-05
1.956e-05
1.87e-05
1.791e-05
1.717e-05
1.647e-05
1.581e-05
1.519e-05
1.459e-05
1.402e-05
1.346e-05
1.292e-05
1.239e-05
1.187e-05
1.135e-05
1.085e-05
1.035e-05
9.85e-06
9.355e-06
8.862e-06
8.37e-06
7.879e-06
7.387e-06
6.896e-06
6.403e-06
5.91e-06
5.416e-06
4.92e-06
4.423e-06
3.925e-06
3.426e-06
2.926e-06
2.427e-06
1.93e-06
1.437e-06
9.532e-07
4.855e-07
1.005e-07
0.0003671
0.0003454
0.00032
0.0002992
0.0002837
0.000272
0.000263
0.0002559
0.0002504
0.0002459
0.0002423
0.0002393
0.0002368
0.0002347
0.0002329
0.0002313
0.00023
0.0002287
0.0002276
0.0002266
0.0002257
0.0002249
0.000224
0.0002233
0.0002225
0.0002218
0.0002211
0.0002204
0.0002197
0.000219
0.0002183
0.0002176
0.0002169
0.0002161
0.0002153
0.0002144
0.0002135
0.0002126
0.0002116
0.0002105
0.0002093
0.000208
0.0002065
0.000205
0.0002032
0.0002013
0.0001992
0.0001969
0.0001944
0.0001915
0.0001885
0.0001851
0.0001814
0.0001774
0.0001731
0.0001685
0.0001636
0.0001583
0.0001528
0.000147
0.000141
0.0001349
0.0001286
0.0001222
0.0001158
0.0001094
0.0001031
9.694e-05
9.094e-05
8.515e-05
7.96e-05
7.43e-05
6.927e-05
6.453e-05
6.008e-05
5.593e-05
5.206e-05
4.848e-05
4.518e-05
4.215e-05
3.937e-05
3.683e-05
3.451e-05
3.24e-05
3.047e-05
2.872e-05
2.713e-05
2.567e-05
2.434e-05
2.312e-05
2.201e-05
2.097e-05
2.002e-05
1.913e-05
1.829e-05
1.751e-05
1.677e-05
1.607e-05
1.539e-05
1.475e-05
1.413e-05
1.352e-05
1.294e-05
1.237e-05
1.181e-05
1.126e-05
1.072e-05
1.018e-05
9.653e-06
9.13e-06
8.61e-06
8.094e-06
7.58e-06
7.068e-06
6.558e-06
6.049e-06
5.541e-06
5.033e-06
4.525e-06
4.018e-06
3.511e-06
3.005e-06
2.499e-06
1.996e-06
1.496e-06
1.002e-06
5.158e-07
1.043e-07
0.0003223
0.0003153
0.000302
0.0002888
0.0002779
0.0002691
0.000262
0.0002561
0.0002512
0.0002471
0.0002436
0.0002407
0.0002381
0.000236
0.000234
0.0002324
0.0002309
0.0002295
0.0002283
0.0002272
0.0002262
0.0002252
0.0002243
0.0002235
0.0002226
0.0002218
0.000221
0.0002202
0.0002194
0.0002187
0.0002179
0.000217
0.0002162
0.0002153
0.0002145
0.0002135
0.0002125
0.0002115
0.0002103
0.0002091
0.0002078
0.0002064
0.0002049
0.0002033
0.0002014
0.0001995
0.0001973
0.0001949
0.0001924
0.0001895
0.0001865
0.0001831
0.0001795
0.0001755
0.0001713
0.0001668
0.000162
0.0001569
0.0001515
0.000146
0.0001402
0.0001342
0.0001281
0.000122
0.0001158
0.0001096
0.0001036
9.763e-05
9.184e-05
8.625e-05
8.087e-05
7.573e-05
7.085e-05
6.622e-05
6.187e-05
5.779e-05
5.398e-05
5.044e-05
4.716e-05
4.412e-05
4.133e-05
3.876e-05
3.64e-05
3.423e-05
3.225e-05
3.043e-05
2.876e-05
2.723e-05
2.582e-05
2.453e-05
2.332e-05
2.221e-05
2.117e-05
2.02e-05
1.929e-05
1.844e-05
1.763e-05
1.686e-05
1.612e-05
1.541e-05
1.473e-05
1.408e-05
1.344e-05
1.283e-05
1.222e-05
1.164e-05
1.106e-05
1.049e-05
9.932e-06
9.38e-06
8.836e-06
8.296e-06
7.762e-06
7.232e-06
6.705e-06
6.181e-06
5.659e-06
5.139e-06
4.621e-06
4.104e-06
3.589e-06
3.075e-06
2.562e-06
2.05e-06
1.541e-06
1.034e-06
5.296e-07
1.012e-07
0.0002954
0.0002944
0.0002875
0.0002789
0.0002711
0.0002645
0.000259
0.0002543
0.0002503
0.0002468
0.0002437
0.000241
0.0002386
0.0002365
0.0002346
0.0002329
0.0002314
0.00023
0.0002288
0.0002276
0.0002265
0.0002255
0.0002245
0.0002236
0.0002227
0.0002218
0.0002209
0.00022
0.0002192
0.0002183
0.0002175
0.0002166
0.0002157
0.0002147
0.0002137
0.0002127
0.0002116
0.0002105
0.0002093
0.000208
0.0002066
0.0002052
0.0002036
0.0002018
0.0002
0.000198
0.0001957
0.0001934
0.0001908
0.0001879
0.0001849
0.0001815
0.0001779
0.0001741
0.0001699
0.0001655
0.0001608
0.0001558
0.0001506
0.0001451
0.0001395
0.0001337
0.0001277
0.0001218
0.0001158
0.0001098
0.0001039
9.811e-05
9.249e-05
8.705e-05
8.182e-05
7.682e-05
7.205e-05
6.753e-05
6.326e-05
5.925e-05
5.549e-05
5.199e-05
4.873e-05
4.57e-05
4.29e-05
4.032e-05
3.794e-05
3.574e-05
3.372e-05
3.185e-05
3.013e-05
2.854e-05
2.708e-05
2.572e-05
2.445e-05
2.327e-05
2.217e-05
2.114e-05
2.016e-05
1.925e-05
1.838e-05
1.755e-05
1.676e-05
1.6e-05
1.527e-05
1.457e-05
1.389e-05
1.324e-05
1.26e-05
1.197e-05
1.136e-05
1.077e-05
1.018e-05
9.607e-06
9.04e-06
8.48e-06
7.927e-06
7.38e-06
6.838e-06
6.3e-06
5.767e-06
5.236e-06
4.708e-06
4.182e-06
3.658e-06
3.136e-06
2.615e-06
2.095e-06
1.575e-06
1.057e-06
5.38e-07
9.764e-08
0.0002781
0.0002796
0.0002762
0.0002706
0.0002649
0.0002598
0.0002555
0.0002517
0.0002484
0.0002455
0.0002429
0.0002405
0.0002384
0.0002365
0.0002347
0.0002331
0.0002316
0.0002302
0.000229
0.0002278
0.0002267
0.0002256
0.0002246
0.0002236
0.0002226
0.0002217
0.0002208
0.0002199
0.0002189
0.000218
0.0002171
0.0002161
0.0002152
0.0002142
0.0002131
0.000212
0.0002109
0.0002097
0.0002084
0.0002071
0.0002057
0.0002041
0.0002025
0.0002007
0.0001988
0.0001968
0.0001945
0.0001921
0.0001895
0.0001867
0.0001836
0.0001803
0.0001768
0.000173
0.0001689
0.0001645
0.0001599
0.000155
0.0001499
0.0001445
0.000139
0.0001333
0.0001275
0.0001216
0.0001157
0.0001098
0.0001041
9.843e-05
9.294e-05
8.762e-05
8.25e-05
7.76e-05
7.293e-05
6.849e-05
6.429e-05
6.034e-05
5.663e-05
5.316e-05
4.993e-05
4.692e-05
4.413e-05
4.154e-05
3.915e-05
3.694e-05
3.489e-05
3.299e-05
3.124e-05
2.961e-05
2.81e-05
2.669e-05
2.538e-05
2.415e-05
2.3e-05
2.192e-05
2.09e-05
1.993e-05
1.901e-05
1.814e-05
1.73e-05
1.65e-05
1.574e-05
1.5e-05
1.428e-05
1.359e-05
1.292e-05
1.227e-05
1.163e-05
1.101e-05
1.04e-05
9.804e-06
9.217e-06
8.64e-06
8.071e-06
7.51e-06
6.954e-06
6.405e-06
5.861e-06
5.32e-06
4.783e-06
4.25e-06
3.718e-06
3.188e-06
2.66e-06
2.132e-06
1.604e-06
1.075e-06
5.447e-07
9.504e-08
0.0002662
0.0002686
0.0002673
0.0002637
0.0002595
0.0002555
0.000252
0.000249
0.0002463
0.0002438
0.0002416
0.0002396
0.0002377
0.000236
0.0002344
0.0002329
0.0002315
0.0002302
0.0002289
0.0002278
0.0002266
0.0002256
0.0002245
0.0002235
0.0002226
0.0002216
0.0002206
0.0002197
0.0002187
0.0002178
0.0002168
0.0002158
0.0002148
0.0002137
0.0002126
0.0002115
0.0002103
0.0002091
0.0002078
0.0002064
0.0002049
0.0002033
0.0002016
0.0001999
0.0001979
0.0001958
0.0001936
0.0001912
0.0001886
0.0001858
0.0001827
0.0001795
0.0001759
0.0001722
0.0001681
0.0001638
0.0001593
0.0001544
0.0001494
0.0001441
0.0001386
0.000133
0.0001272
0.0001214
0.0001156
0.0001098
0.0001042
9.86e-05
9.319e-05
8.797e-05
8.294e-05
7.812e-05
7.352e-05
6.914e-05
6.501e-05
6.11e-05
5.744e-05
5.4e-05
5.08e-05
4.781e-05
4.503e-05
4.245e-05
4.006e-05
3.784e-05
3.578e-05
3.387e-05
3.209e-05
3.044e-05
2.89e-05
2.746e-05
2.612e-05
2.485e-05
2.367e-05
2.255e-05
2.149e-05
2.048e-05
1.953e-05
1.862e-05
1.775e-05
1.691e-05
1.611e-05
1.534e-05
1.46e-05
1.388e-05
1.319e-05
1.251e-05
1.185e-05
1.121e-05
1.058e-05
9.966e-06
9.364e-06
8.772e-06
8.19e-06
7.617e-06
7.051e-06
6.492e-06
5.938e-06
5.39e-06
4.846e-06
4.305e-06
3.767e-06
3.231e-06
2.696e-06
2.162e-06
1.627e-06
1.091e-06
5.512e-07
9.395e-08
0.0002576
0.0002603
0.0002602
0.0002579
0.0002549
0.0002518
0.0002489
0.0002463
0.0002441
0.000242
0.0002401
0.0002384
0.0002368
0.0002352
0.0002338
0.0002324
0.0002311
0.0002299
0.0002287
0.0002276
0.0002265
0.0002255
0.0002244
0.0002234
0.0002224
0.0002215
0.0002205
0.0002195
0.0002185
0.0002175
0.0002165
0.0002155
0.0002145
0.0002134
0.0002123
0.0002111
0.0002099
0.0002086
0.0002073
0.0002058
0.0002043
0.0002027
0.0002011
0.0001992
0.0001973
0.0001952
0.000193
0.0001906
0.000188
0.0001852
0.0001822
0.0001789
0.0001754
0.0001717
0.0001677
0.0001634
0.0001589
0.0001541
0.0001491
0.0001438
0.0001384
0.0001328
0.000127
0.0001213
0.0001155
0.0001098
0.0001041
9.863e-05
9.328e-05
8.812e-05
8.315e-05
7.839e-05
7.384e-05
6.952e-05
6.542e-05
6.156e-05
5.793e-05
5.452e-05
5.134e-05
4.838e-05
4.562e-05
4.305e-05
4.067e-05
3.845e-05
3.64e-05
3.448e-05
3.27e-05
3.104e-05
2.948e-05
2.803e-05
2.666e-05
2.538e-05
2.416e-05
2.302e-05
2.193e-05
2.09e-05
1.992e-05
1.898e-05
1.809e-05
1.723e-05
1.64e-05
1.561e-05
1.485e-05
1.411e-05
1.339e-05
1.269e-05
1.202e-05
1.136e-05
1.072e-05
1.009e-05
9.477e-06
8.874e-06
8.282e-06
7.699e-06
7.125e-06
6.558e-06
5.998e-06
5.444e-06
4.894e-06
4.348e-06
3.805e-06
3.265e-06
2.726e-06
2.187e-06
1.647e-06
1.105e-06
5.58e-07
9.462e-08
0.0002511
0.0002538
0.0002543
0.0002531
0.0002509
0.0002485
0.0002461
0.0002439
0.000242
0.0002402
0.0002386
0.0002371
0.0002357
0.0002343
0.000233
0.0002318
0.0002306
0.0002295
0.0002284
0.0002273
0.0002263
0.0002253
0.0002243
0.0002233
0.0002223
0.0002213
0.0002203
0.0002194
0.0002184
0.0002174
0.0002163
0.0002153
0.0002142
0.0002131
0.000212
0.0002108
0.0002096
0.0002083
0.0002069
0.0002055
0.000204
0.0002024
0.0002007
0.0001989
0.0001969
0.0001949
0.0001926
0.0001902
0.0001877
0.0001849
0.0001819
0.0001787
0.0001752
0.0001715
0.0001675
0.0001633
0.0001588
0.000154
0.000149
0.0001437
0.0001383
0.0001326
0.0001269
0.0001211
0.0001153
0.0001096
0.000104
9.852e-05
9.321e-05
8.808e-05
8.315e-05
7.842e-05
7.391e-05
6.962e-05
6.556e-05
6.172e-05
5.812e-05
5.474e-05
5.158e-05
4.864e-05
4.59e-05
4.336e-05
4.1e-05
3.88e-05
3.675e-05
3.485e-05
3.307e-05
3.141e-05
2.985e-05
2.839e-05
2.702e-05
2.572e-05
2.449e-05
2.333e-05
2.223e-05
2.118e-05
2.019e-05
1.923e-05
1.832e-05
1.744e-05
1.66e-05
1.579e-05
1.501e-05
1.426e-05
1.353e-05
1.282e-05
1.213e-05
1.147e-05
1.081e-05
1.018e-05
9.553e-06
8.943e-06
8.344e-06
7.755e-06
7.175e-06
6.603e-06
6.038e-06
5.48e-06
4.927e-06
4.378e-06
3.832e-06
3.289e-06
2.747e-06
2.205e-06
1.662e-06
1.117e-06
5.656e-07
9.722e-08
0.000246
0.0002485
0.0002495
0.0002489
0.0002475
0.0002456
0.0002437
0.0002418
0.0002401
0.0002386
0.0002371
0.0002358
0.0002346
0.0002334
0.0002322
0.0002311
0.0002301
0.000229
0.000228
0.000227
0.000226
0.000225
0.000224
0.0002231
0.0002221
0.0002212
0.0002202
0.0002192
0.0002182
0.0002172
0.0002162
0.0002152
0.0002141
0.000213
0.0002119
0.0002107
0.0002094
0.0002081
0.0002068
0.0002053
0.0002038
0.0002022
0.0002006
0.0001988
0.0001968
0.0001948
0.0001926
0.0001902
0.0001876
0.0001849
0.0001819
0.0001787
0.0001753
0.0001716
0.0001676
0.0001634
0.0001589
0.0001541
0.000149
0.0001438
0.0001383
0.0001326
0.0001268
0.000121
0.0001152
0.0001094
0.0001038
9.829e-05
9.298e-05
8.787e-05
8.295e-05
7.824e-05
7.374e-05
6.946e-05
6.541e-05
6.159e-05
5.801e-05
5.465e-05
5.152e-05
4.861e-05
4.59e-05
4.338e-05
4.105e-05
3.887e-05
3.685e-05
3.497e-05
3.321e-05
3.156e-05
3.001e-05
2.856e-05
2.718e-05
2.589e-05
2.466e-05
2.35e-05
2.239e-05
2.134e-05
2.033e-05
1.937e-05
1.845e-05
1.756e-05
1.671e-05
1.589e-05
1.511e-05
1.434e-05
1.361e-05
1.289e-05
1.22e-05
1.152e-05
1.086e-05
1.022e-05
9.592e-06
8.977e-06
8.374e-06
7.782e-06
7.199e-06
6.625e-06
6.059e-06
5.498e-06
4.944e-06
4.394e-06
3.847e-06
3.303e-06
2.76e-06
2.218e-06
1.674e-06
1.127e-06
5.742e-07
1.019e-07
0.000242
0.0002443
0.0002455
0.0002454
0.0002444
0.000243
0.0002415
0.0002399
0.0002384
0.0002371
0.0002358
0.0002346
0.0002335
0.0002324
0.0002314
0.0002304
0.0002294
0.0002285
0.0002275
0.0002266
0.0002257
0.0002247
0.0002238
0.0002229
0.000222
0.000221
0.0002201
0.0002191
0.0002182
0.0002172
0.0002162
0.0002151
0.0002141
0.000213
0.0002118
0.0002106
0.0002094
0.0002081
0.0002068
0.0002054
0.0002039
0.0002023
0.0002006
0.0001989
0.000197
0.0001949
0.0001928
0.0001904
0.0001879
0.0001852
0.0001822
0.0001791
0.0001756
0.000172
0.000168
0.0001637
0.0001592
0.0001544
0.0001493
0.000144
0.0001384
0.0001326
0.0001268
0.0001208
0.0001149
0.0001091
0.0001034
9.792e-05
9.26e-05
8.747e-05
8.254e-05
7.782e-05
7.331e-05
6.903e-05
6.498e-05
6.117e-05
5.759e-05
5.426e-05
5.115e-05
4.827e-05
4.56e-05
4.312e-05
4.082e-05
3.868e-05
3.67e-05
3.484e-05
3.311e-05
3.149e-05
2.996e-05
2.853e-05
2.717e-05
2.588e-05
2.467e-05
2.351e-05
2.24e-05
2.135e-05
2.035e-05
1.939e-05
1.847e-05
1.758e-05
1.673e-05
1.591e-05
1.512e-05
1.435e-05
1.361e-05
1.29e-05
1.22e-05
1.152e-05
1.086e-05
1.022e-05
9.592e-06
8.977e-06
8.373e-06
7.781e-06
7.198e-06
6.624e-06
6.058e-06
5.499e-06
4.945e-06
4.395e-06
3.85e-06
3.307e-06
2.766e-06
2.225e-06
1.682e-06
1.136e-06
5.84e-07
1.087e-07
0.0002386
0.0002408
0.0002421
0.0002423
0.0002417
0.0002407
0.0002395
0.0002382
0.0002369
0.0002357
0.0002346
0.0002335
0.0002325
0.0002316
0.0002306
0.0002297
0.0002288
0.0002279
0.0002271
0.0002262
0.0002253
0.0002244
0.0002236
0.0002227
0.0002218
0.0002209
0.00022
0.0002191
0.0002181
0.0002172
0.0002162
0.0002152
0.0002141
0.000213
0.0002119
0.0002108
0.0002096
0.0002083
0.000207
0.0002056
0.0002041
0.0002026
0.000201
0.0001992
0.0001974
0.0001954
0.0001933
0.000191
0.0001885
0.0001858
0.0001829
0.0001797
0.0001763
0.0001726
0.0001687
0.0001644
0.0001598
0.0001549
0.0001498
0.0001443
0.0001387
0.0001328
0.0001268
0.0001207
0.0001147
0.0001087
0.000103
9.741e-05
9.204e-05
8.687e-05
8.19e-05
7.715e-05
7.261e-05
6.831e-05
6.424e-05
6.043e-05
5.686e-05
5.355e-05
5.047e-05
4.763e-05
4.5e-05
4.257e-05
4.032e-05
3.823e-05
3.629e-05
3.449e-05
3.279e-05
3.121e-05
2.972e-05
2.831e-05
2.697e-05
2.571e-05
2.451e-05
2.337e-05
2.228e-05
2.124e-05
2.025e-05
1.929e-05
1.838e-05
1.75e-05
1.666e-05
1.584e-05
1.505e-05
1.429e-05
1.356e-05
1.284e-05
1.215e-05
1.148e-05
1.082e-05
1.018e-05
9.554e-06
8.942e-06
8.341e-06
7.751e-06
7.171e-06
6.6e-06
6.037e-06
5.48e-06
4.93e-06
4.384e-06
3.841e-06
3.302e-06
2.764e-06
2.226e-06
1.686e-06
1.144e-06
5.949e-07
1.177e-07
0.0002359
0.0002379
0.0002392
0.0002396
0.0002394
0.0002387
0.0002377
0.0002367
0.0002356
0.0002345
0.0002335
0.0002325
0.0002316
0.0002307
0.0002299
0.0002291
0.0002282
0.0002274
0.0002266
0.0002258
0.000225
0.0002242
0.0002234
0.0002225
0.0002217
0.0002208
0.0002199
0.000219
0.0002181
0.0002172
0.0002162
0.0002153
0.0002143
0.0002132
0.0002121
0.000211
0.0002098
0.0002086
0.0002073
0.000206
0.0002046
0.0002031
0.0002015
0.0001998
0.000198
0.0001961
0.000194
0.0001918
0.0001894
0.0001867
0.0001839
0.0001807
0.0001774
0.0001737
0.0001697
0.0001653
0.0001607
0.0001557
0.0001505
0.0001449
0.0001391
0.000133
0.0001268
0.0001206
0.0001144
0.0001083
0.0001024
9.674e-05
9.129e-05
8.605e-05
8.102e-05
7.62e-05
7.161e-05
6.727e-05
6.317e-05
5.935e-05
5.579e-05
5.25e-05
4.946e-05
4.666e-05
4.409e-05
4.173e-05
3.954e-05
3.752e-05
3.564e-05
3.389e-05
3.226e-05
3.072e-05
2.927e-05
2.79e-05
2.661e-05
2.538e-05
2.421e-05
2.309e-05
2.203e-05
2.101e-05
2.003e-05
1.909e-05
1.819e-05
1.733e-05
1.65e-05
1.569e-05
1.492e-05
1.417e-05
1.344e-05
1.273e-05
1.205e-05
1.138e-05
1.073e-05
1.01e-05
9.479e-06
8.872e-06
8.278e-06
7.694e-06
7.12e-06
6.554e-06
5.996e-06
5.445e-06
4.899e-06
4.358e-06
3.821e-06
3.287e-06
2.754e-06
2.221e-06
1.687e-06
1.15e-06
6.071e-07
1.289e-07
0.0002336
0.0002354
0.0002367
0.0002373
0.0002373
0.0002368
0.0002361
0.0002353
0.0002343
0.0002334
0.0002325
0.0002316
0.0002308
0.00023
0.0002292
0.0002285
0.0002277
0.000227
0.0002262
0.0002255
0.0002247
0.0002239
0.0002232
0.0002224
0.0002216
0.0002208
0.0002199
0.0002191
0.0002182
0.0002173
0.0002164
0.0002155
0.0002145
0.0002135
0.0002124
0.0002113
0.0002102
0.000209
0.0002078
0.0002065
0.0002052
0.0002037
0.0002022
0.0002006
0.0001989
0.000197
0.000195
0.0001929
0.0001906
0.000188
0.0001852
0.0001821
0.0001788
0.0001751
0.0001711
0.0001667
0.000162
0.0001569
0.0001515
0.0001457
0.0001397
0.0001334
0.000127
0.0001205
0.000114
0.0001077
0.0001017
9.589e-05
9.032e-05
8.497e-05
7.983e-05
7.492e-05
7.026e-05
6.586e-05
6.173e-05
5.789e-05
5.435e-05
5.109e-05
4.81e-05
4.537e-05
4.287e-05
4.059e-05
3.849e-05
3.655e-05
3.475e-05
3.307e-05
3.15e-05
3.003e-05
2.864e-05
2.733e-05
2.608e-05
2.489e-05
2.376e-05
2.268e-05
2.164e-05
2.065e-05
1.97e-05
1.879e-05
1.791e-05
1.707e-05
1.625e-05
1.547e-05
1.471e-05
1.397e-05
1.326e-05
1.257e-05
1.189e-05
1.124e-05
1.06e-05
9.978e-06
9.368e-06
8.771e-06
8.185e-06
7.61e-06
7.044e-06
6.486e-06
5.936e-06
5.392e-06
4.853e-06
4.32e-06
3.79e-06
3.263e-06
2.737e-06
2.212e-06
1.685e-06
1.156e-06
6.205e-07
1.421e-07
0.0002316
0.0002333
0.0002346
0.0002353
0.0002355
0.0002352
0.0002347
0.000234
0.0002333
0.0002325
0.0002317
0.0002309
0.0002301
0.0002294
0.0002287
0.0002279
0.0002272
0.0002266
0.0002259
0.0002252
0.0002245
0.0002237
0.000223
0.0002223
0.0002215
0.0002208
0.00022
0.0002192
0.0002183
0.0002175
0.0002166
0.0002157
0.0002148
0.0002138
0.0002129
0.0002118
0.0002107
0.0002096
0.0002085
0.0002072
0.000206
0.0002046
0.0002032
0.0002016
0.0002
0.0001983
0.0001964
0.0001943
0.0001921
0.0001896
0.0001869
0.0001839
0.0001806
0.0001769
0.0001729
0.0001685
0.0001637
0.0001584
0.0001528
0.0001469
0.0001406
0.000134
0.0001272
0.0001204
0.0001136
0.000107
0.0001008
9.478e-05
8.905e-05
8.354e-05
7.827e-05
7.324e-05
6.849e-05
6.402e-05
5.985e-05
5.601e-05
5.249e-05
4.928e-05
4.637e-05
4.373e-05
4.133e-05
3.915e-05
3.715e-05
3.531e-05
3.361e-05
3.203e-05
3.055e-05
2.915e-05
2.783e-05
2.658e-05
2.539e-05
2.425e-05
2.317e-05
2.213e-05
2.114e-05
2.019e-05
1.927e-05
1.839e-05
1.754e-05
1.672e-05
1.593e-05
1.517e-05
1.443e-05
1.372e-05
1.302e-05
1.235e-05
1.169e-05
1.105e-05
1.043e-05
9.82e-06
9.224e-06
8.639e-06
8.065e-06
7.501e-06
6.945e-06
6.398e-06
5.857e-06
5.323e-06
4.794e-06
4.27e-06
3.749e-06
3.23e-06
2.714e-06
2.197e-06
1.68e-06
1.16e-06
6.35e-07
1.573e-07
0.0002299
0.0002316
0.0002328
0.0002335
0.0002338
0.0002338
0.0002334
0.0002329
0.0002323
0.0002316
0.0002309
0.0002302
0.0002295
0.0002288
0.0002281
0.0002275
0.0002268
0.0002262
0.0002256
0.0002249
0.0002243
0.0002236
0.0002229
0.0002222
0.0002215
0.0002208
0.0002201
0.0002193
0.0002185
0.0002177
0.0002169
0.0002161
0.0002152
0.0002143
0.0002134
0.0002124
0.0002114
0.0002103
0.0002092
0.0002081
0.0002069
0.0002056
0.0002043
0.0002029
0.0002014
0.0001997
0.000198
0.0001961
0.000194
0.0001917
0.0001891
0.0001862
0.000183
0.0001794
0.0001753
0.0001709
0.0001659
0.0001605
0.0001547
0.0001485
0.0001419
0.0001349
0.0001277
0.0001203
0.000113
0.0001061
9.956e-05
9.333e-05
8.737e-05
8.167e-05
7.622e-05
7.106e-05
6.62e-05
6.167e-05
5.748e-05
5.366e-05
5.019e-05
4.706e-05
4.425e-05
4.173e-05
3.946e-05
3.741e-05
3.554e-05
3.383e-05
3.225e-05
3.077e-05
2.939e-05
2.809e-05
2.685e-05
2.567e-05
2.455e-05
2.348e-05
2.245e-05
2.147e-05
2.053e-05
1.962e-05
1.874e-05
1.79e-05
1.709e-05
1.63e-05
1.554e-05
1.481e-05
1.41e-05
1.341e-05
1.274e-05
1.208e-05
1.145e-05
1.083e-05
1.022e-05
9.63e-06
9.049e-06
8.48e-06
7.92e-06
7.369e-06
6.827e-06
6.291e-06
5.763e-06
5.24e-06
4.722e-06
4.208e-06
3.698e-06
3.19e-06
2.684e-06
2.178e-06
1.672e-06
1.163e-06
6.506e-07
1.742e-07
0.0002285
0.00023
0.0002313
0.000232
0.0002324
0.0002325
0.0002323
0.0002319
0.0002314
0.0002308
0.0002302
0.0002296
0.0002289
0.0002283
0.0002277
0.0002271
0.0002265
0.0002259
0.0002253
0.0002247
0.0002241
0.0002235
0.0002229
0.0002222
0.0002216
0.0002209
0.0002202
0.0002195
0.0002188
0.000218
0.0002173
0.0002165
0.0002157
0.0002148
0.000214
0.0002131
0.0002121
0.0002112
0.0002102
0.0002091
0.000208
0.0002068
0.0002056
0.0002043
0.000203
0.0002015
0.0001999
0.0001981
0.0001962
0.0001941
0.0001917
0.000189
0.0001859
0.0001824
0.0001784
0.0001739
0.0001689
0.0001634
0.0001573
0.0001508
0.0001437
0.0001362
0.0001283
0.0001203
0.0001124
0.0001049
9.794e-05
9.136e-05
8.511e-05
7.915e-05
7.352e-05
6.822e-05
6.328e-05
5.871e-05
5.454e-05
5.077e-05
4.739e-05
4.439e-05
4.172e-05
3.936e-05
3.726e-05
3.538e-05
3.367e-05
3.211e-05
3.066e-05
2.932e-05
2.805e-05
2.685e-05
2.571e-05
2.463e-05
2.358e-05
2.258e-05
2.162e-05
2.07e-05
1.981e-05
1.895e-05
1.813e-05
1.733e-05
1.656e-05
1.581e-05
1.509e-05
1.439e-05
1.371e-05
1.305e-05
1.24e-05
1.178e-05
1.116e-05
1.057e-05
9.983e-06
9.41e-06
8.848e-06
8.296e-06
7.753e-06
7.218e-06
6.69e-06
6.169e-06
5.654e-06
5.144e-06
4.639e-06
4.137e-06
3.639e-06
3.143e-06
2.649e-06
2.155e-06
1.662e-06
1.166e-06
6.67e-07
1.927e-07
0.0002273
0.0002287
0.0002299
0.0002307
0.0002312
0.0002313
0.0002312
0.000231
0.0002306
0.0002301
0.0002296
0.000229
0.0002285
0.0002279
0.0002274
0.0002268
0.0002262
0.0002257
0.0002251
0.0002246
0.000224
0.0002234
0.0002228
0.0002222
0.0002216
0.000221
0.0002204
0.0002197
0.0002191
0.0002184
0.0002177
0.000217
0.0002162
0.0002155
0.0002147
0.0002138
0.000213
0.0002121
0.0002112
0.0002102
0.0002092
0.0002082
0.0002071
0.000206
0.0002047
0.0002034
0.000202
0.0002005
0.0001988
0.0001969
0.0001947
0.0001923
0.0001894
0.0001861
0.0001823
0.0001779
0.0001729
0.0001673
0.000161
0.0001541
0.0001465
0.0001383
0.0001295
0.0001204
0.0001115
0.0001032
9.56e-05
8.856e-05
8.195e-05
7.574e-05
6.995e-05
6.456e-05
5.959e-05
5.505e-05
5.096e-05
4.73e-05
4.407e-05
4.125e-05
3.878e-05
3.663e-05
3.474e-05
3.306e-05
3.154e-05
3.016e-05
2.888e-05
2.768e-05
2.655e-05
2.547e-05
2.444e-05
2.345e-05
2.25e-05
2.158e-05
2.069e-05
1.984e-05
1.901e-05
1.821e-05
1.744e-05
1.669e-05
1.596e-05
1.526e-05
1.458e-05
1.392e-05
1.327e-05
1.264e-05
1.203e-05
1.143e-05
1.085e-05
1.028e-05
9.716e-06
9.165e-06
8.624e-06
8.091e-06
7.567e-06
7.049e-06
6.538e-06
6.033e-06
5.533e-06
5.037e-06
4.546e-06
4.058e-06
3.573e-06
3.09e-06
2.609e-06
2.129e-06
1.649e-06
1.168e-06
6.841e-07
2.124e-07
0.0002263
0.0002276
0.0002287
0.0002296
0.0002301
0.0002303
0.0002303
0.0002302
0.0002299
0.0002295
0.0002291
0.0002286
0.0002281
0.0002276
0.000227
0.0002265
0.000226
0.0002255
0.000225
0.0002245
0.0002239
0.0002234
0.0002229
0.0002223
0.0002218
0.0002212
0.0002206
0.00022
0.0002194
0.0002188
0.0002182
0.0002175
0.0002168
0.0002161
0.0002154
0.0002147
0.0002139
0.0002131
0.0002123
0.0002115
0.0002106
0.0002097
0.0002087
0.0002077
0.0002067
0.0002056
0.0002044
0.0002031
0.0002017
0.0002001
0.0001982
0.0001961
0.0001936
0.0001906
0.000187
0.0001829
0.0001781
0.0001725
0.0001662
0.000159
0.0001509
0.0001417
0.0001316
0.0001208
0.0001101
0.0001004
9.192e-05
8.433e-05
7.742e-05
7.104e-05
6.523e-05
5.989e-05
5.502e-05
5.061e-05
4.668e-05
4.322e-05
4.022e-05
3.764e-05
3.544e-05
3.355e-05
3.192e-05
3.048e-05
2.919e-05
2.802e-05
2.692e-05
2.589e-05
2.49e-05
2.396e-05
2.304e-05
2.216e-05
2.131e-05
2.048e-05
1.967e-05
1.889e-05
1.813e-05
1.74e-05
1.669e-05
1.599e-05
1.532e-05
1.466e-05
1.403e-05
1.34e-05
1.28e-05
1.221e-05
1.163e-05
1.106e-05
1.051e-05
9.962e-06
9.427e-06
8.9e-06
8.382e-06
7.871e-06
7.366e-06
6.867e-06
6.374e-06
5.886e-06
5.402e-06
4.922e-06
4.446e-06
3.972e-06
3.502e-06
3.033e-06
2.566e-06
2.1e-06
1.635e-06
1.169e-06
7.017e-07
2.331e-07
0.0002254
0.0002266
0.0002277
0.0002286
0.0002291
0.0002294
0.0002295
0.0002295
0.0002293
0.000229
0.0002286
0.0002282
0.0002277
0.0002273
0.0002268
0.0002263
0.0002258
0.0002254
0.0002249
0.0002244
0.0002239
0.0002234
0.0002229
0.0002224
0.0002219
0.0002214
0.0002209
0.0002203
0.0002198
0.0002192
0.0002187
0.0002181
0.0002175
0.0002169
0.0002162
0.0002156
0.0002149
0.0002142
0.0002135
0.0002128
0.000212
0.0002113
0.0002105
0.0002097
0.0002088
0.0002079
0.000207
0.000206
0.0002048
0.0002036
0.0002021
0.0002004
0.0001983
0.0001958
0.0001927
0.000189
0.0001847
0.0001796
0.0001736
0.0001665
0.0001582
0.000148
0.0001358
0.0001215
0.0001072
9.53e-05
8.575e-05
7.771e-05
7.078e-05
6.459e-05
5.909e-05
5.407e-05
4.948e-05
4.535e-05
4.171e-05
3.854e-05
3.585e-05
3.36e-05
3.173e-05
3.017e-05
2.884e-05
2.769e-05
2.666e-05
2.571e-05
2.482e-05
2.397e-05
2.314e-05
2.234e-05
2.155e-05
2.079e-05
2.004e-05
1.93e-05
1.859e-05
1.789e-05
1.72e-05
1.653e-05
1.588e-05
1.525e-05
1.463e-05
1.403e-05
1.344e-05
1.286e-05
1.23e-05
1.174e-05
1.12e-05
1.067e-05
1.014e-05
9.629e-06
9.121e-06
8.621e-06
8.126e-06
7.638e-06
7.154e-06
6.676e-06
6.201e-06
5.731e-06
5.264e-06
4.801e-06
4.34e-06
3.882e-06
3.426e-06
2.972e-06
2.52e-06
2.069e-06
1.619e-06
1.169e-06
7.195e-07
2.544e-07
0.0002246
0.0002258
0.0002269
0.0002277
0.0002283
0.0002287
0.0002288
0.0002288
0.0002287
0.0002285
0.0002282
0.0002278
0.0002274
0.000227
0.0002266
0.0002262
0.0002257
0.0002253
0.0002248
0.0002244
0.0002239
0.0002235
0.000223
0.0002226
0.0002221
0.0002217
0.0002212
0.0002207
0.0002202
0.0002197
0.0002192
0.0002187
0.0002182
0.0002176
0.0002171
0.0002165
0.0002159
0.0002154
0.0002148
0.0002141
0.0002135
0.0002129
0.0002123
0.0002116
0.000211
0.0002103
0.0002097
0.0002089
0.0002082
0.0002073
0.0002063
0.0002051
0.0002035
0.0002016
0.0001992
0.0001962
0.0001927
0.0001885
0.0001837
0.000178
0.0001709
0.0001597
0.0001441
0.0001225
0.000101
8.588e-05
7.528e-05
6.726e-05
6.13e-05
5.599e-05
5.136e-05
4.707e-05
4.302e-05
3.935e-05
3.612e-05
3.335e-05
3.105e-05
2.919e-05
2.771e-05
2.653e-05
2.556e-05
2.473e-05
2.398e-05
2.328e-05
2.261e-05
2.195e-05
2.13e-05
2.065e-05
2e-05
1.935e-05
1.871e-05
1.808e-05
1.745e-05
1.683e-05
1.623e-05
1.563e-05
1.505e-05
1.448e-05
1.392e-05
1.337e-05
1.283e-05
1.23e-05
1.178e-05
1.126e-05
1.076e-05
1.026e-05
9.77e-06
9.285e-06
8.806e-06
8.332e-06
7.862e-06
7.397e-06
6.936e-06
6.478e-06
6.023e-06
5.571e-06
5.122e-06
4.675e-06
4.231e-06
3.788e-06
3.348e-06
2.909e-06
2.472e-06
2.037e-06
1.603e-06
1.17e-06
7.374e-07
2.76e-07
0.0002239
0.0002251
0.0002261
0.000227
0.0002276
0.000228
0.0002282
0.0002283
0.0002282
0.0002281
0.0002278
0.0002275
0.0002272
0.0002268
0.0002264
0.000226
0.0002256
0.0002252
0.0002248
0.0002244
0.000224
0.0002236
0.0002232
0.0002228
0.0002223
0.0002219
0.0002215
0.0002211
0.0002206
0.0002202
0.0002198
0.0002193
0.0002189
0.0002184
0.0002179
0.0002175
0.000217
0.0002165
0.000216
0.0002155
0.0002151
0.0002146
0.0002141
0.0002137
0.0002132
0.0002128
0.0002124
0.000212
0.0002116
0.0002111
0.0002106
0.0002099
0.000209
0.0002077
0.0002061
0.000204
0.0002016
0.0001989
0.0001962
0.0001922
0.0001889
0.0001843
0.0001684
0.0001246
8.451e-05
6.389e-05
5.762e-05
5.472e-05
5.102e-05
4.551e-05
4.224e-05
3.911e-05
3.585e-05
3.281e-05
3.008e-05
2.777e-05
2.592e-05
2.452e-05
2.349e-05
2.274e-05
2.215e-05
2.167e-05
2.122e-05
2.079e-05
2.035e-05
1.989e-05
1.941e-05
1.891e-05
1.84e-05
1.788e-05
1.735e-05
1.682e-05
1.629e-05
1.576e-05
1.523e-05
1.471e-05
1.42e-05
1.369e-05
1.319e-05
1.269e-05
1.221e-05
1.172e-05
1.125e-05
1.078e-05
1.031e-05
9.848e-06
9.39e-06
8.937e-06
8.487e-06
8.04e-06
7.596e-06
7.154e-06
6.715e-06
6.278e-06
5.843e-06
5.41e-06
4.978e-06
4.548e-06
4.12e-06
3.694e-06
3.269e-06
2.845e-06
2.424e-06
2.004e-06
1.586e-06
1.169e-06
7.55e-07
2.975e-07
0.0002234
0.0002245
0.0002255
0.0002263
0.000227
0.0002274
0.0002277
0.0002278
0.0002278
0.0002277
0.0002275
0.0002273
0.000227
0.0002267
0.0002263
0.000226
0.0002256
0.0002252
0.0002248
0.0002245
0.0002241
0.0002237
0.0002233
0.0002229
0.0002226
0.0002222
0.0002218
0.0002214
0.0002211
0.0002207
0.0002203
0.0002199
0.0002196
0.0002192
0.0002188
0.0002184
0.000218
0.0002177
0.0002173
0.0002169
0.0002166
0.0002162
0.0002159
0.0002156
0.0002154
0.0002152
0.0002151
0.000215
0.0002149
0.0002149
0.0002149
0.0002147
0.0002144
0.0002138
0.0002129
0.0002116
0.0002102
0.0002088
0.0002071
0.0002067
0.0001927
0.0001429
0.0001397
0.0001162
9.68e-05
9.146e-05
9.398e-05
6.298e-05
3.943e-05
3.458e-05
3.415e-05
3.084e-05
2.841e-05
2.606e-05
2.386e-05
2.201e-05
2.063e-05
1.972e-05
1.918e-05
1.888e-05
1.871e-05
1.859e-05
1.846e-05
1.829e-05
1.808e-05
1.782e-05
1.751e-05
1.717e-05
1.679e-05
1.64e-05
1.598e-05
1.556e-05
1.512e-05
1.468e-05
1.424e-05
1.379e-05
1.335e-05
1.29e-05
1.246e-05
1.202e-05
1.159e-05
1.115e-05
1.072e-05
1.029e-05
9.864e-06
9.438e-06
9.014e-06
8.591e-06
8.17e-06
7.75e-06
7.331e-06
6.914e-06
6.496e-06
6.08e-06
5.665e-06
5.25e-06
4.836e-06
4.423e-06
4.011e-06
3.6e-06
3.19e-06
2.782e-06
2.375e-06
1.971e-06
1.568e-06
1.169e-06
7.721e-07
3.186e-07
0.0002229
0.000224
0.000225
0.0002258
0.0002264
0.0002269
0.0002272
0.0002274
0.0002274
0.0002274
0.0002272
0.000227
0.0002268
0.0002265
0.0002262
0.0002259
0.0002256
0.0002252
0.0002249
0.0002245
0.0002242