/*--------------------------------*- C++ -*----------------------------------*\
  =========                 |
  \\      /  F ield         | OpenFOAM: The Open Source CFD Toolbox
   \\    /   O peration     | Website:  https://openfoam.org
    \\  /    A nd           | Version:  7
     \\/     M anipulation  |
\*---------------------------------------------------------------------------*/
FoamFile
{
    version     2.0;
    format      ascii;
    class       surfaceScalarField;
    location    "1559.99947342229871";
    object      phi;
}
// * * * * * * * * * * * * * * * * * * * * * * * * * * * * * * * * * * * * * //

dimensions      [0 3 -1 0 0 0 0];

internalField   nonuniform List<scalar> 
8032
(
6.857e-10
2.518e-10
4.804e-10
2.053e-10
3.48e-10
1.324e-10
2.643e-10
8.372e-11
2.101e-10
5.416e-11
1.738e-10
3.637e-11
1.482e-10
2.551e-11
1.296e-10
1.866e-11
1.154e-10
1.414e-11
1.044e-10
1.104e-11
9.56e-11
8.806e-12
8.846e-11
7.145e-12
8.259e-11
5.869e-12
7.772e-11
4.865e-12
7.367e-11
4.056e-12
7.028e-11
3.392e-12
6.744e-11
2.837e-12
6.507e-11
2.368e-12
6.311e-11
1.964e-12
6.15e-11
1.611e-12
6.02e-11
1.299e-12
5.918e-11
1.02e-12
5.841e-11
7.654e-13
5.788e-11
5.307e-13
5.757e-11
3.11e-13
5.747e-11
1.023e-13
5.757e-11
-9.879e-14
5.786e-11
-2.952e-13
5.835e-11
-4.894e-13
5.904e-11
-6.839e-13
5.992e-11
-8.804e-13
6.1e-11
-1.081e-12
6.228e-11
-1.287e-12
6.378e-11
-1.499e-12
6.55e-11
-1.72e-12
6.745e-11
-1.949e-12
6.964e-11
-2.187e-12
7.207e-11
-2.434e-12
7.476e-11
-2.69e-12
7.772e-11
-2.954e-12
8.094e-11
-3.225e-12
8.444e-11
-3.5e-12
8.822e-11
-3.779e-12
9.227e-11
-4.056e-12
9.66e-11
-4.329e-12
1.012e-10
-4.592e-12
1.06e-10
-4.84e-12
1.111e-10
-5.066e-12
1.164e-10
-5.264e-12
1.218e-10
-5.424e-12
1.273e-10
-5.539e-12
1.329e-10
-5.6e-12
1.385e-10
-5.599e-12
1.441e-10
-5.527e-12
1.494e-10
-5.378e-12
1.546e-10
-5.147e-12
1.594e-10
-4.829e-12
1.638e-10
-4.424e-12
1.678e-10
-3.934e-12
1.711e-10
-3.365e-12
1.739e-10
-2.726e-12
1.759e-10
-2.03e-12
1.772e-10
-1.293e-12
1.777e-10
-5.321e-13
1.775e-10
2.328e-13
1.765e-10
9.834e-13
1.748e-10
1.703e-12
1.724e-10
2.376e-12
1.694e-10
2.991e-12
1.659e-10
3.54e-12
1.619e-10
4.017e-12
1.575e-10
4.419e-12
1.527e-10
4.746e-12
1.477e-10
5e-12
1.425e-10
5.183e-12
1.372e-10
5.298e-12
1.319e-10
5.352e-12
1.265e-10
5.349e-12
1.212e-10
5.296e-12
1.16e-10
5.198e-12
1.11e-10
5.063e-12
1.061e-10
4.897e-12
1.014e-10
4.705e-12
9.687e-11
4.494e-12
9.26e-11
4.268e-12
8.857e-11
4.034e-12
8.477e-11
3.794e-12
8.122e-11
3.553e-12
7.791e-11
3.314e-12
7.483e-11
3.08e-12
7.197e-11
2.853e-12
6.934e-11
2.634e-12
6.692e-11
2.424e-12
6.469e-11
2.225e-12
6.265e-11
2.037e-12
6.079e-11
1.861e-12
5.91e-11
1.695e-12
5.756e-11
1.542e-12
5.616e-11
1.399e-12
5.489e-11
1.267e-12
5.374e-11
1.146e-12
5.271e-11
1.034e-12
5.178e-11
9.314e-13
5.094e-11
8.378e-13
5.019e-11
7.523e-13
4.951e-11
6.746e-13
4.891e-11
6.039e-13
4.837e-11
5.398e-13
4.789e-11
4.818e-13
4.746e-11
4.295e-13
4.708e-11
3.823e-13
4.674e-11
3.399e-13
4.643e-11
3.02e-13
4.617e-11
2.681e-13
4.593e-11
2.382e-13
4.572e-11
2.119e-13
4.553e-11
1.891e-13
4.536e-11
1.697e-13
4.52e-11
1.538e-13
4.506e-11
1.415e-13
4.493e-11
1.331e-13
4.48e-11
1.292e-13
4.467e-11
1.31e-13
4.453e-11
1.406e-13
4.437e-11
1.621e-13
4.416e-11
2.023e-13
4.39e-11
2.687e-13
3.493e-13
9.523e-10
2.37e-10
8.501e-10
3.075e-10
7.275e-10
2.55e-10
6.183e-10
1.929e-10
5.294e-10
1.431e-10
4.592e-10
1.065e-10
4.042e-10
8.057e-11
3.606e-10
6.218e-11
3.258e-10
4.895e-11
2.977e-10
3.921e-11
2.746e-10
3.188e-11
2.555e-10
2.622e-11
2.396e-10
2.176e-11
2.263e-10
1.818e-11
2.151e-10
1.525e-11
2.057e-10
1.282e-11
1.977e-10
1.077e-11
1.911e-10
9.017e-12
1.856e-10
7.501e-12
1.81e-10
6.17e-12
1.773e-10
4.989e-12
1.744e-10
3.925e-12
1.722e-10
2.954e-12
1.707e-10
2.056e-12
1.698e-10
1.215e-12
1.695e-10
4.144e-13
1.697e-10
-3.568e-13
1.706e-10
-1.11e-12
1.719e-10
-1.854e-12
1.738e-10
-2.597e-12
1.763e-10
-3.348e-12
1.793e-10
-4.111e-12
1.829e-10
-4.894e-12
1.871e-10
-5.699e-12
1.919e-10
-6.532e-12
1.974e-10
-7.394e-12
2.035e-10
-8.288e-12
2.103e-10
-9.212e-12
2.177e-10
-1.017e-11
2.259e-10
-1.115e-11
2.349e-10
-1.215e-11
2.445e-10
-1.317e-11
2.549e-10
-1.419e-11
2.661e-10
-1.521e-11
2.78e-10
-1.62e-11
2.905e-10
-1.715e-11
3.037e-10
-1.804e-11
3.175e-10
-1.885e-11
3.318e-10
-1.955e-11
3.465e-10
-2.01e-11
3.614e-10
-2.049e-11
3.765e-10
-2.068e-11
3.915e-10
-2.064e-11
4.064e-10
-2.034e-11
4.207e-10
-1.976e-11
4.345e-10
-1.888e-11
4.473e-10
-1.77e-11
4.591e-10
-1.62e-11
4.696e-10
-1.439e-11
4.785e-10
-1.231e-11
4.858e-10
-9.977e-12
4.912e-10
-7.443e-12
4.947e-10
-4.761e-12
4.961e-10
-1.997e-12
4.956e-10
7.857e-13
4.93e-10
3.52e-12
4.886e-10
6.145e-12
4.824e-10
8.61e-12
4.745e-10
1.087e-11
4.651e-10
1.29e-11
4.545e-10
1.467e-11
4.427e-10
1.617e-11
4.3e-10
1.741e-11
4.167e-10
1.837e-11
4.028e-10
1.908e-11
3.885e-10
1.955e-11
3.741e-10
1.978e-11
3.596e-10
1.981e-11
3.453e-10
1.965e-11
3.311e-10
1.933e-11
3.173e-10
1.886e-11
3.04e-10
1.828e-11
2.911e-10
1.76e-11
2.787e-10
1.684e-11
2.67e-10
1.602e-11
2.558e-10
1.517e-11
2.453e-10
1.43e-11
2.355e-10
1.342e-11
2.262e-10
1.254e-11
2.176e-10
1.168e-11
2.097e-10
1.084e-11
2.023e-10
1.002e-11
1.954e-10
9.242e-12
1.892e-10
8.499e-12
1.834e-10
7.796e-12
1.781e-10
7.133e-12
1.733e-10
6.512e-12
1.689e-10
5.932e-12
1.649e-10
5.393e-12
1.613e-10
4.894e-12
1.58e-10
4.433e-12
1.551e-10
4.008e-12
1.524e-10
3.618e-12
1.499e-10
3.26e-12
1.478e-10
2.934e-12
1.458e-10
2.636e-12
1.44e-10
2.364e-12
1.425e-10
2.118e-12
1.41e-10
1.895e-12
1.398e-10
1.693e-12
1.387e-10
1.51e-12
1.377e-10
1.346e-12
1.368e-10
1.199e-12
1.36e-10
1.068e-12
1.352e-10
9.513e-13
1.346e-10
8.488e-13
1.34e-10
7.596e-13
1.335e-10
6.835e-13
1.331e-10
6.204e-13
1.326e-10
5.706e-13
1.322e-10
5.35e-13
1.318e-10
5.15e-13
1.315e-10
5.129e-13
1.311e-10
5.322e-13
1.306e-10
5.784e-13
1.302e-10
6.574e-13
1.297e-10
7.681e-13
8.725e-13
9.779e-10
1.966e-10
9.637e-10
3.217e-10
9.013e-10
3.175e-10
8.212e-10
2.73e-10
7.409e-10
2.233e-10
6.679e-10
1.795e-10
6.046e-10
1.439e-10
5.506e-10
1.161e-10
5.051e-10
9.445e-11
4.668e-10
7.755e-11
4.345e-10
6.423e-11
4.071e-10
5.358e-11
3.839e-10
4.497e-11
3.642e-10
3.789e-11
3.474e-10
3.201e-11
3.332e-10
2.706e-11
3.211e-10
2.283e-11
3.11e-10
1.919e-11
3.024e-10
1.601e-11
2.954e-10
1.321e-11
2.897e-10
1.07e-11
2.852e-10
8.435e-12
2.818e-10
6.358e-12
2.794e-10
4.431e-12
2.78e-10
2.62e-12
2.775e-10
8.956e-13
2.779e-10
-7.684e-13
2.792e-10
-2.394e-12
2.814e-10
-4.001e-12
2.844e-10
-5.605e-12
2.882e-10
-7.224e-12
2.93e-10
-8.869e-12
2.987e-10
-1.055e-11
3.052e-10
-1.228e-11
3.128e-10
-1.407e-11
3.213e-10
-1.591e-11
3.308e-10
-1.782e-11
3.414e-10
-1.979e-11
3.531e-10
-2.182e-11
3.658e-10
-2.39e-11
3.797e-10
-2.603e-11
3.947e-10
-2.818e-11
4.108e-10
-3.033e-11
4.281e-10
-3.246e-11
4.464e-10
-3.454e-11
4.658e-10
-3.653e-11
4.862e-10
-3.839e-11
5.074e-10
-4.006e-11
5.293e-10
-4.15e-11
5.519e-10
-4.263e-11
5.748e-10
-4.341e-11
5.979e-10
-4.377e-11
6.209e-10
-4.364e-11
6.435e-10
-4.297e-11
6.655e-10
-4.172e-11
6.864e-10
-3.984e-11
7.06e-10
-3.731e-11
7.24e-10
-3.414e-11
7.399e-10
-3.033e-11
7.535e-10
-2.594e-11
7.646e-10
-2.104e-11
7.729e-10
-1.571e-11
7.782e-10
-1.008e-11
7.805e-10
-4.279e-12
7.797e-10
1.563e-12
7.759e-10
7.309e-12
7.692e-10
1.283e-11
7.598e-10
1.803e-11
7.479e-10
2.28e-11
7.337e-10
2.709e-11
7.175e-10
3.085e-11
6.996e-10
3.405e-11
6.803e-10
3.669e-11
6.599e-10
3.878e-11
6.387e-10
4.032e-11
6.169e-10
4.135e-11
5.948e-10
4.19e-11
5.726e-10
4.2e-11
5.505e-10
4.172e-11
5.288e-10
4.108e-11
5.075e-10
4.014e-11
4.868e-10
3.894e-11
4.669e-10
3.753e-11
4.478e-10
3.596e-11
4.295e-10
3.427e-11
4.122e-10
3.249e-11
3.959e-10
3.066e-11
3.805e-10
2.88e-11
3.661e-10
2.695e-11
3.526e-10
2.513e-11
3.401e-10
2.335e-11
3.285e-10
2.162e-11
3.178e-10
1.996e-11
3.079e-10
1.838e-11
2.988e-10
1.688e-11
2.905e-10
1.547e-11
2.829e-10
1.414e-11
2.759e-10
1.289e-11
2.696e-10
1.174e-11
2.638e-10
1.067e-11
2.586e-10
9.673e-12
2.538e-10
8.757e-12
2.495e-10
7.915e-12
2.456e-10
7.143e-12
2.421e-10
6.436e-12
2.39e-10
5.791e-12
2.361e-10
5.202e-12
2.336e-10
4.667e-12
2.313e-10
4.181e-12
2.292e-10
3.742e-12
2.274e-10
3.344e-12
2.258e-10
2.986e-12
2.243e-10
2.664e-12
2.23e-10
2.377e-12
2.218e-10
2.121e-12
2.208e-10
1.895e-12
2.198e-10
1.699e-12
2.19e-10
1.53e-12
2.182e-10
1.388e-12
2.175e-10
1.275e-12
2.169e-10
1.19e-12
2.162e-10
1.136e-12
2.156e-10
1.114e-12
2.151e-10
1.128e-12
2.144e-10
1.182e-12
2.138e-10
1.275e-12
2.132e-10
1.394e-12
1.491e-12
9.752e-10
1.589e-10
9.93e-10
3.039e-10
9.728e-10
3.377e-10
9.268e-10
3.19e-10
8.69e-10
2.812e-10
8.084e-10
2.401e-10
7.503e-10
2.021e-10
6.97e-10
1.693e-10
6.495e-10
1.419e-10
6.078e-10
1.193e-10
5.713e-10
1.007e-10
5.397e-10
8.524e-11
5.123e-10
7.238e-11
4.886e-10
6.158e-11
4.682e-10
5.242e-11
4.506e-10
4.459e-11
4.356e-10
3.783e-11
4.229e-10
3.193e-11
4.122e-10
2.674e-11
4.033e-10
2.211e-11
3.96e-10
1.795e-11
3.903e-10
1.417e-11
3.86e-10
1.069e-11
3.83e-10
7.44e-12
3.812e-10
4.38e-12
3.806e-10
1.457e-12
3.812e-10
-1.368e-12
3.83e-10
-4.131e-12
3.858e-10
-6.864e-12
3.898e-10
-9.595e-12
3.949e-10
-1.235e-11
4.012e-10
-1.515e-11
4.087e-10
-1.8e-11
4.173e-10
-2.094e-11
4.272e-10
-2.397e-11
4.384e-10
-2.709e-11
4.509e-10
-3.031e-11
4.647e-10
-3.364e-11
4.8e-10
-3.706e-11
4.966e-10
-4.056e-11
5.147e-10
-4.412e-11
5.343e-10
-4.772e-11
5.553e-10
-5.132e-11
5.777e-10
-5.488e-11
6.015e-10
-5.835e-11
6.266e-10
-6.165e-11
6.53e-10
-6.473e-11
6.804e-10
-6.749e-11
7.087e-10
-6.985e-11
7.378e-10
-7.171e-11
7.674e-10
-7.296e-11
7.971e-10
-7.351e-11
8.267e-10
-7.325e-11
8.558e-10
-7.209e-11
8.84e-10
-6.995e-11
9.11e-10
-6.677e-11
9.362e-10
-6.252e-11
9.592e-10
-5.719e-11
9.797e-10
-5.081e-11
9.972e-10
-4.347e-11
1.011e-09
-3.527e-11
1.022e-09
-2.637e-11
1.029e-09
-1.696e-11
1.032e-09
-7.265e-12
1.031e-09
2.498e-12
1.026e-09
1.21e-11
1.018e-09
2.134e-11
1.006e-09
3.004e-11
9.905e-10
3.804e-11
9.723e-10
4.524e-11
9.516e-10
5.157e-11
9.287e-10
5.697e-11
9.04e-10
6.144e-11
8.778e-10
6.498e-11
8.505e-10
6.763e-11
8.224e-10
6.941e-11
7.939e-10
7.039e-11
7.653e-10
7.064e-11
7.368e-10
7.022e-11
7.086e-10
6.921e-11
6.811e-10
6.769e-11
6.543e-10
6.573e-11
6.284e-10
6.342e-11
6.035e-10
6.083e-11
5.798e-10
5.802e-11
5.572e-10
5.506e-11
5.359e-10
5.201e-11
5.157e-10
4.892e-11
4.969e-10
4.582e-11
4.792e-10
4.277e-11
4.628e-10
3.977e-11
4.475e-10
3.687e-11
4.334e-10
3.408e-11
4.204e-10
3.142e-11
4.084e-10
2.888e-11
3.974e-10
2.649e-11
3.873e-10
2.424e-11
3.78e-10
2.214e-11
3.696e-10
2.017e-11
3.619e-10
1.835e-11
3.549e-10
1.666e-11
3.486e-10
1.51e-11
3.428e-10
1.367e-11
3.376e-10
1.235e-11
3.329e-10
1.114e-11
3.287e-10
1.003e-11
3.248e-10
9.024e-12
3.214e-10
8.106e-12
3.183e-10
7.271e-12
3.155e-10
6.515e-12
3.131e-10
5.83e-12
3.108e-10
5.213e-12
3.088e-10
4.658e-12
3.071e-10
4.161e-12
3.055e-10
3.718e-12
3.04e-10
3.326e-12
3.027e-10
2.983e-12
3.016e-10
2.687e-12
3.005e-10
2.436e-12
2.996e-10
2.232e-12
2.987e-10
2.073e-12
2.979e-10
1.961e-12
2.971e-10
1.898e-12
2.963e-10
1.885e-12
2.956e-10
1.922e-12
2.949e-10
2.002e-12
2.941e-10
2.107e-12
2.188e-12
9.668e-10
1.296e-10
9.944e-10
2.762e-10
9.979e-10
3.343e-10
9.78e-10
3.388e-10
9.425e-10
3.167e-10
8.986e-10
2.84e-10
8.517e-10
2.489e-10
8.055e-10
2.156e-10
7.617e-10
1.857e-10
7.215e-10
1.596e-10
6.851e-10
1.371e-10
6.526e-10
1.178e-10
6.238e-10
1.012e-10
5.984e-10
8.694e-11
5.762e-10
7.462e-11
5.569e-10
6.39e-11
5.402e-10
5.451e-11
5.259e-10
4.622e-11
5.138e-10
3.884e-11
5.037e-10
3.222e-11
4.955e-10
2.621e-11
4.889e-10
2.07e-11
4.84e-10
1.561e-11
4.806e-10
1.084e-11
4.787e-10
6.322e-12
4.781e-10
1.994e-12
4.79e-10
-2.2e-12
4.811e-10
-6.31e-12
4.847e-10
-1.038e-11
4.895e-10
-1.445e-11
4.957e-10
-1.856e-11
5.033e-10
-2.273e-11
5.123e-10
-2.699e-11
5.227e-10
-3.136e-11
5.346e-10
-3.586e-11
5.48e-10
-4.05e-11
5.63e-10
-4.529e-11
5.796e-10
-5.021e-11
5.978e-10
-5.527e-11
6.177e-10
-6.045e-11
6.393e-10
-6.571e-11
6.626e-10
-7.102e-11
6.876e-10
-7.633e-11
7.142e-10
-8.156e-11
7.425e-10
-8.665e-11
7.724e-10
-9.149e-11
8.036e-10
-9.599e-11
8.362e-10
-1e-10
8.698e-10
-1.035e-10
9.042e-10
-1.061e-10
9.392e-10
-1.08e-10
9.744e-10
-1.087e-10
1.009e-09
-1.083e-10
1.044e-09
-1.065e-10
1.077e-09
-1.034e-10
1.109e-09
-9.864e-11
1.139e-09
-9.235e-11
1.166e-09
-8.448e-11
1.191e-09
-7.507e-11
1.211e-09
-6.423e-11
1.228e-09
-5.214e-11
1.241e-09
-3.902e-11
1.249e-09
-2.515e-11
1.253e-09
-1.084e-11
1.252e-09
3.556e-12
1.246e-09
1.772e-11
1.236e-09
3.135e-11
1.222e-09
4.419e-11
1.204e-09
5.6e-11
1.182e-09
6.665e-11
1.158e-09
7.601e-11
1.131e-09
8.402e-11
1.102e-09
9.066e-11
1.071e-09
9.594e-11
1.038e-09
9.991e-11
1.005e-09
1.026e-10
9.715e-10
1.041e-10
9.376e-10
1.046e-10
9.038e-10
1.04e-10
8.704e-10
1.026e-10
8.377e-10
1.004e-10
8.058e-10
9.758e-11
7.75e-10
9.423e-11
7.454e-10
9.045e-11
7.171e-10
8.634e-11
6.901e-10
8.201e-11
6.646e-10
7.753e-11
6.406e-10
7.299e-11
6.179e-10
6.843e-11
5.968e-10
6.392e-11
5.771e-10
5.95e-11
5.587e-10
5.522e-11
5.417e-10
5.108e-11
5.26e-10
4.713e-11
5.115e-10
4.337e-11
4.982e-10
3.982e-11
4.86e-10
3.647e-11
4.748e-10
3.334e-11
4.645e-10
3.041e-11
4.552e-10
2.769e-11
4.467e-10
2.516e-11
4.389e-10
2.283e-11
4.319e-10
2.068e-11
4.256e-10
1.87e-11
4.198e-10
1.689e-11
4.146e-10
1.523e-11
4.099e-10
1.371e-11
4.057e-10
1.233e-11
4.019e-10
1.107e-11
3.985e-10
9.933e-12
3.954e-10
8.9e-12
3.927e-10
7.967e-12
3.902e-10
7.126e-12
3.88e-10
6.372e-12
3.86e-10
5.699e-12
3.842e-10
5.103e-12
3.826e-10
4.578e-12
3.812e-10
4.123e-12
3.799e-10
3.734e-12
3.787e-10
3.411e-12
3.776e-10
3.153e-12
3.766e-10
2.96e-12
3.757e-10
2.832e-12
3.748e-10
2.768e-12
3.74e-10
2.764e-12
3.732e-10
2.811e-12
3.724e-10
2.887e-12
2.947e-12
9.592e-10
1.079e-10
9.875e-10
2.479e-10
1.003e-09
3.191e-10
1e-09
3.414e-10
9.825e-10
3.344e-10
9.544e-10
3.121e-10
9.203e-10
2.83e-10
8.836e-10
2.523e-10
8.467e-10
2.226e-10
8.111e-10
1.952e-10
7.776e-10
1.705e-10
7.468e-10
1.485e-10
7.189e-10
1.292e-10
6.937e-10
1.121e-10
6.714e-10
9.697e-11
6.517e-10
8.361e-11
6.344e-10
7.173e-11
6.196e-10
6.111e-11
6.069e-10
5.154e-11
5.962e-10
4.287e-11
5.875e-10
3.494e-11
5.806e-10
2.762e-11
5.754e-10
2.08e-11
5.718e-10
1.438e-11
5.699e-10
8.271e-12
5.695e-10
2.398e-12
5.706e-10
-3.312e-12
5.732e-10
-8.92e-12
5.773e-10
-1.448e-11
5.829e-10
-2.005e-11
5.9e-10
-2.568e-11
5.987e-10
-3.139e-11
6.089e-10
-3.722e-11
6.208e-10
-4.321e-11
6.343e-10
-4.937e-11
6.495e-10
-5.571e-11
6.665e-10
-6.225e-11
6.852e-10
-6.898e-11
7.058e-10
-7.588e-11
7.283e-10
-8.293e-11
7.527e-10
-9.01e-11
7.79e-10
-9.732e-11
8.072e-10
-1.045e-10
8.373e-10
-1.116e-10
8.691e-10
-1.185e-10
9.027e-10
-1.251e-10
9.379e-10
-1.312e-10
9.745e-10
-1.366e-10
1.012e-09
-1.413e-10
1.051e-09
-1.449e-10
1.09e-09
-1.473e-10
1.13e-09
-1.483e-10
1.17e-09
-1.477e-10
1.208e-09
-1.453e-10
1.246e-09
-1.41e-10
1.282e-09
-1.346e-10
1.316e-09
-1.26e-10
1.346e-09
-1.153e-10
1.374e-09
-1.025e-10
1.397e-09
-8.77e-11
1.416e-09
-7.122e-11
1.431e-09
-5.333e-11
1.44e-09
-3.442e-11
1.444e-09
-1.491e-11
1.443e-09
4.725e-12
1.436e-09
2.404e-11
1.425e-09
4.262e-11
1.409e-09
6.011e-11
1.389e-09
7.621e-11
1.365e-09
9.072e-11
1.337e-09
1.035e-10
1.307e-09
1.144e-10
1.274e-09
1.235e-10
1.239e-09
1.308e-10
1.203e-09
1.362e-10
1.166e-09
1.399e-10
1.128e-09
1.421e-10
1.09e-09
1.427e-10
1.052e-09
1.421e-10
1.014e-09
1.402e-10
9.771e-10
1.373e-10
9.412e-10
1.335e-10
9.064e-10
1.29e-10
8.73e-10
1.239e-10
8.41e-10
1.183e-10
8.105e-10
1.125e-10
7.816e-10
1.064e-10
7.544e-10
1.002e-10
7.288e-10
9.405e-11
7.048e-10
8.792e-11
6.824e-10
8.191e-11
6.615e-10
7.606e-11
6.422e-10
7.043e-11
6.243e-10
6.503e-11
6.078e-10
5.99e-11
5.925e-10
5.503e-11
5.786e-10
5.045e-11
5.658e-10
4.615e-11
5.54e-10
4.214e-11
5.433e-10
3.84e-11
5.336e-10
3.493e-11
5.247e-10
3.172e-11
5.166e-10
2.876e-11
5.093e-10
2.603e-11
5.026e-10
2.353e-11
4.966e-10
2.123e-11
4.912e-10
1.914e-11
4.863e-10
1.723e-11
4.819e-10
1.549e-11
4.779e-10
1.39e-11
4.744e-10
1.247e-11
4.712e-10
1.117e-11
4.683e-10
1e-11
4.657e-10
8.952e-12
4.634e-10
8.013e-12
4.613e-10
7.178e-12
4.594e-10
6.441e-12
4.578e-10
5.798e-12
4.563e-10
5.245e-12
4.549e-10
4.778e-12
4.536e-10
4.397e-12
4.525e-10
4.1e-12
4.515e-10
3.885e-12
4.505e-10
3.748e-12
4.496e-10
3.684e-12
4.487e-10
3.681e-12
4.479e-10
3.717e-12
3.754e-12
9.536e-10
9.184e-11
9.795e-10
2.22e-10
9.996e-10
2.99e-10
1.007e-09
3.335e-10
1.003e-09
3.391e-10
9.877e-10
3.271e-10
9.654e-10
3.053e-10
9.387e-10
2.79e-10
9.097e-10
2.515e-10
8.803e-10
2.246e-10
8.515e-10
1.993e-10
8.241e-10
1.759e-10
7.986e-10
1.547e-10
7.752e-10
1.355e-10
7.54e-10
1.182e-10
7.35e-10
1.026e-10
7.182e-10
8.851e-11
7.036e-10
7.575e-11
6.91e-10
6.412e-11
6.804e-10
5.348e-11
6.717e-10
4.365e-11
6.648e-10
3.451e-11
6.597e-10
2.594e-11
6.562e-10
1.782e-11
6.544e-10
1.006e-11
6.543e-10
2.567e-12
6.557e-10
-4.743e-12
6.587e-10
-1.194e-11
6.633e-10
-1.91e-11
6.696e-10
-2.628e-11
6.774e-10
-3.353e-11
6.869e-10
-4.09e-11
6.981e-10
-4.843e-11
7.111e-10
-5.616e-11
7.258e-10
-6.411e-11
7.424e-10
-7.23e-11
7.609e-10
-8.073e-11
7.813e-10
-8.94e-11
8.037e-10
-9.829e-11
8.281e-10
-1.074e-10
8.546e-10
-1.166e-10
8.832e-10
-1.259e-10
9.138e-10
-1.351e-10
9.464e-10
-1.443e-10
9.81e-10
-1.531e-10
1.017e-09
-1.615e-10
1.056e-09
-1.694e-10
1.095e-09
-1.764e-10
1.136e-09
-1.823e-10
1.179e-09
-1.87e-10
1.221e-09
-1.901e-10
1.264e-09
-1.914e-10
1.307e-09
-1.906e-10
1.35e-09
-1.876e-10
1.391e-09
-1.82e-10
1.43e-09
-1.738e-10
1.467e-09
-1.628e-10
1.5e-09
-1.49e-10
1.53e-09
-1.324e-10
1.556e-09
-1.134e-10
1.577e-09
-9.213e-11
1.592e-09
-6.902e-11
1.603e-09
-4.458e-11
1.607e-09
-1.936e-11
1.606e-09
6.015e-12
1.599e-09
3.097e-11
1.587e-09
5.495e-11
1.569e-09
7.751e-11
1.547e-09
9.828e-11
1.521e-09
1.17e-10
1.491e-09
1.334e-10
1.458e-09
1.475e-10
1.422e-09
1.592e-10
1.384e-09
1.686e-10
1.345e-09
1.757e-10
1.304e-09
1.805e-10
1.263e-09
1.833e-10
1.221e-09
1.842e-10
1.18e-09
1.834e-10
1.139e-09
1.811e-10
1.099e-09
1.774e-10
1.06e-09
1.725e-10
1.022e-09
1.668e-10
9.86e-10
1.603e-10
9.512e-10
1.532e-10
9.18e-10
1.456e-10
8.866e-10
1.379e-10
8.569e-10
1.299e-10
8.289e-10
1.22e-10
8.028e-10
1.141e-10
7.783e-10
1.064e-10
7.555e-10
9.883e-11
7.344e-10
9.157e-11
7.148e-10
8.461e-11
6.967e-10
7.798e-11
6.801e-10
7.17e-11
6.647e-10
6.578e-11
6.507e-10
6.022e-11
6.378e-10
5.502e-11
6.26e-10
5.018e-11
6.153e-10
4.568e-11
6.055e-10
4.151e-11
5.966e-10
3.767e-11
5.885e-10
3.412e-11
5.811e-10
3.087e-11
5.745e-10
2.788e-11
5.685e-10
2.515e-11
5.63e-10
2.266e-11
5.581e-10
2.038e-11
5.537e-10
1.832e-11
5.497e-10
1.644e-11
5.462e-10
1.474e-11
5.43e-10
1.321e-11
5.401e-10
1.183e-11
5.375e-10
1.06e-11
5.352e-10
9.497e-12
5.331e-10
8.522e-12
5.312e-10
7.667e-12
5.295e-10
6.927e-12
5.28e-10
6.296e-12
5.267e-10
5.771e-12
5.254e-10
5.35e-12
5.243e-10
5.027e-12
5.232e-10
4.8e-12
5.222e-10
4.659e-12
5.213e-10
4.593e-12
5.205e-10
4.581e-12
4.592e-12
9.498e-10
7.957e-11
9.724e-10
1.993e-10
9.939e-10
2.776e-10
1.008e-09
3.198e-10
1.012e-09
3.351e-10
1.007e-09
3.321e-10
9.943e-10
3.176e-10
9.767e-10
2.966e-10
9.557e-10
2.725e-10
9.33e-10
2.473e-10
9.097e-10
2.226e-10
8.867e-10
1.989e-10
8.647e-10
1.767e-10
8.44e-10
1.562e-10
8.249e-10
1.373e-10
8.075e-10
1.2e-10
7.919e-10
1.041e-10
7.782e-10
8.946e-11
7.664e-10
7.599e-11
7.563e-10
6.353e-11
7.48e-10
5.192e-11
7.415e-10
4.104e-11
7.367e-10
3.076e-11
7.335e-10
2.096e-11
7.321e-10
1.155e-11
7.322e-10
2.418e-12
7.34e-10
-6.522e-12
7.374e-10
-1.535e-11
7.425e-10
-2.416e-11
7.492e-10
-3.3e-11
7.576e-10
-4.194e-11
7.677e-10
-5.103e-11
7.796e-10
-6.034e-11
7.933e-10
-6.988e-11
8.089e-10
-7.97e-11
8.264e-10
-8.982e-11
8.459e-10
-1.002e-10
8.675e-10
-1.109e-10
8.911e-10
-1.219e-10
9.169e-10
-1.331e-10
9.448e-10
-1.445e-10
9.749e-10
-1.559e-10
1.007e-09
-1.674e-10
1.041e-09
-1.786e-10
1.078e-09
-1.896e-10
1.116e-09
-2e-10
1.157e-09
-2.097e-10
1.199e-09
-2.183e-10
1.242e-09
-2.257e-10
1.286e-09
-2.315e-10
1.332e-09
-2.354e-10
1.377e-09
-2.371e-10
1.423e-09
-2.362e-10
1.468e-09
-2.325e-10
1.511e-09
-2.257e-10
1.553e-09
-2.155e-10
1.592e-09
-2.02e-10
1.628e-09
-1.849e-10
1.661e-09
-1.645e-10
1.688e-09
-1.409e-10
1.71e-09
-1.145e-10
1.727e-09
-8.583e-11
1.738e-09
-5.544e-11
1.743e-09
-2.409e-11
1.741e-09
7.454e-12
1.734e-09
3.844e-11
1.721e-09
6.82e-11
1.702e-09
9.615e-11
1.679e-09
1.218e-10
1.651e-09
1.45e-10
1.619e-09
1.653e-10
1.584e-09
1.827e-10
1.546e-09
1.972e-10
1.505e-09
2.087e-10
1.464e-09
2.175e-10
1.421e-09
2.235e-10
1.377e-09
2.27e-10
1.333e-09
2.281e-10
1.289e-09
2.271e-10
1.246e-09
2.243e-10
1.204e-09
2.197e-10
1.163e-09
2.138e-10
1.123e-09
2.067e-10
1.084e-09
1.987e-10
1.047e-09
1.9e-10
1.012e-09
1.807e-10
9.791e-10
1.711e-10
9.477e-10
1.613e-10
9.182e-10
1.515e-10
8.905e-10
1.418e-10
8.646e-10
1.322e-10
8.405e-10
1.229e-10
8.181e-10
1.14e-10
7.974e-10
1.054e-10
7.782e-10
9.716e-11
7.605e-10
8.939e-11
7.442e-10
8.205e-11
7.293e-10
7.517e-11
7.156e-10
6.872e-11
7.03e-10
6.271e-11
6.916e-10
5.713e-11
6.811e-10
5.195e-11
6.716e-10
4.717e-11
6.63e-10
4.277e-11
6.551e-10
3.871e-11
6.48e-10
3.5e-11
6.416e-10
3.159e-11
6.358e-10
2.848e-11
6.305e-10
2.564e-11
6.258e-10
2.306e-11
6.215e-10
2.072e-11
6.176e-10
1.859e-11
6.142e-10
1.667e-11
6.111e-10
1.494e-11
6.083e-10
1.339e-11
6.058e-10
1.2e-11
6.035e-10
1.077e-11
6.015e-10
9.681e-12
5.997e-10
8.736e-12
5.981e-10
7.923e-12
5.966e-10
7.238e-12
5.953e-10
6.676e-12
5.941e-10
6.231e-12
5.93e-10
5.898e-12
5.92e-10
5.668e-12
5.91e-10
5.529e-12
5.902e-10
5.463e-12
5.446e-12
9.472e-10
6.991e-11
9.668e-10
1.796e-10
9.879e-10
2.565e-10
1.005e-09
3.031e-10
1.014e-09
3.254e-10
1.017e-09
3.298e-10
1.012e-09
3.22e-10
1.002e-09
3.064e-10
9.888e-10
2.861e-10
9.726e-10
2.635e-10
9.55e-10
2.402e-10
9.368e-10
2.171e-10
9.188e-10
1.948e-10
9.014e-10
1.736e-10
8.85e-10
1.537e-10
8.698e-10
1.351e-10
8.561e-10
1.178e-10
8.438e-10
1.017e-10
8.331e-10
8.668e-11
8.24e-10
7.262e-11
8.165e-10
5.941e-11
8.107e-10
4.691e-11
8.064e-10
3.503e-11
8.037e-10
2.363e-11
8.027e-10
1.262e-11
8.032e-10
1.891e-12
8.053e-10
-8.656e-12
8.091e-10
-1.911e-11
8.145e-10
-2.955e-11
8.215e-10
-4.006e-11
8.303e-10
-5.071e-11
8.408e-10
-6.155e-11
8.531e-10
-7.265e-11
8.673e-10
-8.404e-11
8.834e-10
-9.577e-11
9.014e-10
-1.078e-10
9.214e-10
-1.203e-10
9.436e-10
-1.331e-10
9.679e-10
-1.462e-10
9.943e-10
-1.596e-10
1.023e-09
-1.732e-10
1.054e-09
-1.869e-10
1.087e-09
-2.005e-10
1.122e-09
-2.14e-10
1.16e-09
-2.271e-10
1.199e-09
-2.396e-10
1.241e-09
-2.512e-10
1.284e-09
-2.616e-10
1.329e-09
-2.705e-10
1.375e-09
-2.775e-10
1.422e-09
-2.823e-10
1.469e-09
-2.844e-10
1.517e-09
-2.835e-10
1.563e-09
-2.792e-10
1.609e-09
-2.712e-10
1.653e-09
-2.592e-10
1.694e-09
-2.431e-10
1.732e-09
-2.227e-10
1.765e-09
-1.982e-10
1.794e-09
-1.699e-10
1.818e-09
-1.381e-10
1.835e-09
-1.035e-10
1.847e-09
-6.683e-11
1.852e-09
-2.898e-11
1.85e-09
9.081e-12
1.842e-09
4.643e-11
1.828e-09
8.223e-11
1.808e-09
1.158e-10
1.784e-09
1.466e-10
1.754e-09
1.743e-10
1.721e-09
1.986e-10
1.684e-09
2.194e-10
1.645e-09
2.366e-10
1.603e-09
2.504e-10
1.56e-09
2.608e-10
1.515e-09
2.68e-10
1.47e-09
2.722e-10
1.425e-09
2.736e-10
1.379e-09
2.724e-10
1.335e-09
2.689e-10
1.291e-09
2.635e-10
1.248e-09
2.564e-10
1.207e-09
2.48e-10
1.167e-09
2.384e-10
1.13e-09
2.279e-10
1.093e-09
2.168e-10
1.059e-09
2.054e-10
1.027e-09
1.937e-10
9.963e-10
1.82e-10
9.677e-10
1.703e-10
9.411e-10
1.589e-10
9.162e-10
1.478e-10
8.931e-10
1.371e-10
8.717e-10
1.268e-10
8.519e-10
1.17e-10
8.336e-10
1.077e-10
8.168e-10
9.887e-11
8.014e-10
9.062e-11
7.872e-10
8.289e-11
7.742e-10
7.569e-11
7.624e-10
6.899e-11
7.515e-10
6.278e-11
7.417e-10
5.704e-11
7.327e-10
5.174e-11
7.245e-10
4.687e-11
7.171e-10
4.239e-11
7.104e-10
3.83e-11
7.044e-10
3.455e-11
6.989e-10
3.113e-11
6.939e-10
2.801e-11
6.895e-10
2.518e-11
6.855e-10
2.261e-11
6.818e-10
2.029e-11
6.786e-10
1.819e-11
6.757e-10
1.63e-11
6.731e-10
1.462e-11
6.707e-10
1.312e-11
6.686e-10
1.179e-11
6.667e-10
1.063e-11
6.65e-10
9.618e-12
6.635e-10
8.761e-12
6.621e-10
8.046e-12
6.609e-10
7.468e-12
6.598e-10
7.019e-12
6.587e-10
6.69e-12
6.578e-10
6.471e-12
6.569e-10
6.347e-12
6.3e-12
9.453e-10
6.207e-11
9.624e-10
1.625e-10
9.824e-10
2.366e-10
1e-09
2.851e-10
1.014e-09
3.122e-10
1.021e-09
3.224e-10
1.023e-09
3.203e-10
1.019e-09
3.096e-10
1.012e-09
2.933e-10
1.002e-09
2.737e-10
9.898e-10
2.524e-10
9.765e-10
2.304e-10
9.626e-10
2.086e-10
9.488e-10
1.874e-10
9.355e-10
1.67e-10
9.229e-10
1.477e-10
9.114e-10
1.294e-10
9.009e-10
1.121e-10
8.917e-10
9.586e-11
8.839e-10
8.046e-11
8.775e-10
6.585e-11
8.724e-10
5.193e-11
8.689e-10
3.858e-11
8.668e-10
2.571e-11
8.662e-10
1.32e-11
8.672e-10
9.549e-13
8.696e-10
-1.113e-11
8.737e-10
-2.315e-11
8.793e-10
-3.518e-11
8.866e-10
-4.733e-11
8.955e-10
-5.964e-11
9.062e-10
-7.221e-11
9.186e-10
-8.508e-11
9.329e-10
-9.831e-11
9.491e-10
-1.119e-10
9.672e-10
-1.26e-10
9.873e-10
-1.404e-10
1.01e-09
-1.553e-10
1.034e-09
-1.705e-10
1.06e-09
-1.861e-10
1.089e-09
-2.02e-10
1.12e-09
-2.179e-10
1.154e-09
-2.338e-10
1.189e-09
-2.496e-10
1.227e-09
-2.649e-10
1.267e-09
-2.795e-10
1.309e-09
-2.931e-10
1.352e-09
-3.053e-10
1.398e-09
-3.159e-10
1.445e-09
-3.242e-10
1.492e-09
-3.3e-10
1.54e-09
-3.327e-10
1.589e-09
-3.318e-10
1.637e-09
-3.27e-10
1.683e-09
-3.179e-10
1.728e-09
-3.041e-10
1.771e-09
-2.854e-10
1.81e-09
-2.617e-10
1.844e-09
-2.331e-10
1.874e-09
-1.999e-10
1.899e-09
-1.626e-10
1.917e-09
-1.218e-10
1.929e-09
-7.856e-11
1.934e-09
-3.392e-11
1.932e-09
1.095e-11
1.924e-09
5.49e-11
1.909e-09
9.693e-11
1.888e-09
1.362e-10
1.863e-09
1.722e-10
1.833e-09
2.045e-10
1.798e-09
2.327e-10
1.761e-09
2.569e-10
1.72e-09
2.77e-10
1.678e-09
2.93e-10
1.634e-09
3.05e-10
1.588e-09
3.134e-10
1.542e-09
3.182e-10
1.496e-09
3.197e-10
1.45e-09
3.183e-10
1.405e-09
3.142e-10
1.361e-09
3.079e-10
1.318e-09
2.996e-10
1.276e-09
2.897e-10
1.236e-09
2.784e-10
1.198e-09
2.662e-10
1.161e-09
2.533e-10
1.127e-09
2.399e-10
1.094e-09
2.263e-10
1.063e-09
2.126e-10
1.034e-09
1.991e-10
1.008e-09
1.858e-10
9.826e-10
1.728e-10
9.593e-10
1.603e-10
9.378e-10
1.483e-10
9.178e-10
1.369e-10
8.994e-10
1.261e-10
8.825e-10
1.158e-10
8.669e-10
1.062e-10
8.526e-10
9.719e-11
8.395e-10
8.879e-11
8.275e-10
8.097e-11
8.166e-10
7.372e-11
8.066e-10
6.701e-11
7.975e-10
6.082e-11
7.893e-10
5.512e-11
7.818e-10
4.989e-11
7.75e-10
4.509e-11
7.688e-10
4.07e-11
7.633e-10
3.67e-11
7.582e-10
3.304e-11
7.537e-10
2.972e-11
7.496e-10
2.67e-11
7.459e-10
2.397e-11
7.426e-10
2.15e-11
7.396e-10
1.928e-11
7.37e-10
1.729e-11
7.346e-10
1.551e-11
7.324e-10
1.393e-11
7.305e-10
1.255e-11
7.288e-10
1.134e-11
7.272e-10
1.03e-11
7.259e-10
9.427e-12
7.246e-10
8.707e-12
7.235e-10
8.136e-12
7.225e-10
7.703e-12
7.216e-10
7.4e-12
7.207e-10
7.216e-12
7.139e-12
9.44e-10
5.555e-11
9.59e-10
1.475e-10
9.776e-10
2.18e-10
9.959e-10
2.669e-10
1.011e-09
2.969e-10
1.022e-09
3.114e-10
1.028e-09
3.14e-10
1.03e-09
3.077e-10
1.028e-09
2.952e-10
1.024e-09
2.786e-10
1.016e-09
2.596e-10
1.008e-09
2.392e-10
9.978e-10
2.183e-10
9.877e-10
1.975e-10
9.776e-10
1.772e-10
9.678e-10
1.575e-10
9.586e-10
1.386e-10
9.501e-10
1.206e-10
9.427e-10
1.033e-10
9.363e-10
8.684e-11
9.311e-10
7.108e-11
9.271e-10
5.593e-11
9.244e-10
4.131e-11
9.229e-10
2.712e-11
9.229e-10
1.325e-11
9.242e-10
-3.924e-13
9.27e-10
-1.391e-11
9.313e-10
-2.739e-11
9.37e-10
-4.094e-11
9.443e-10
-5.463e-11
9.532e-10
-6.855e-11
9.638e-10
-8.278e-11
9.761e-10
-9.736e-11
9.901e-10
-1.124e-10
1.006e-09
-1.278e-10
1.024e-09
-1.438e-10
1.044e-09
-1.602e-10
1.065e-09
-1.771e-10
1.089e-09
-1.945e-10
1.115e-09
-2.122e-10
1.144e-09
-2.302e-10
1.174e-09
-2.484e-10
1.207e-09
-2.666e-10
1.242e-09
-2.846e-10
1.279e-09
-3.021e-10
1.319e-09
-3.189e-10
1.36e-09
-3.345e-10
1.403e-09
-3.487e-10
1.448e-09
-3.609e-10
1.495e-09
-3.707e-10
1.542e-09
-3.775e-10
1.591e-09
-3.809e-10
1.639e-09
-3.803e-10
1.687e-09
-3.751e-10
1.734e-09
-3.65e-10
1.78e-09
-3.495e-10
1.823e-09
-3.283e-10
1.862e-09
-3.014e-10
1.898e-09
-2.687e-10
1.929e-09
-2.306e-10
1.954e-09
-1.876e-10
1.972e-09
-1.405e-10
1.984e-09
-9.043e-11
1.989e-09
-3.875e-11
1.987e-09
1.313e-11
1.978e-09
6.383e-11
1.963e-09
1.122e-10
1.942e-09
1.572e-10
1.915e-09
1.983e-10
1.885e-09
2.351e-10
1.85e-09
2.673e-10
1.813e-09
2.947e-10
1.772e-09
3.175e-10
1.729e-09
3.356e-10
1.685e-09
3.493e-10
1.64e-09
3.586e-10
1.594e-09
3.64e-10
1.548e-09
3.657e-10
1.502e-09
3.64e-10
1.457e-09
3.593e-10
1.413e-09
3.519e-10
1.371e-09
3.424e-10
1.329e-09
3.31e-10
1.29e-09
3.181e-10
1.252e-09
3.041e-10
1.216e-09
2.893e-10
1.181e-09
2.74e-10
1.149e-09
2.585e-10
1.119e-09
2.429e-10
1.091e-09
2.274e-10
1.064e-09
2.122e-10
1.04e-09
1.975e-10
1.017e-09
1.832e-10
9.955e-10
1.696e-10
9.759e-10
1.565e-10
9.578e-10
1.442e-10
9.411e-10
1.325e-10
9.258e-10
1.215e-10
9.117e-10
1.113e-10
8.988e-10
1.017e-10
8.87e-10
9.277e-11
8.762e-10
8.45e-11
8.664e-10
7.684e-11
8.574e-10
6.978e-11
8.493e-10
6.328e-11
8.419e-10
5.73e-11
8.351e-10
5.181e-11
8.291e-10
4.68e-11
8.235e-10
4.221e-11
8.186e-10
3.803e-11
8.141e-10
3.422e-11
8.1e-10
3.076e-11
8.063e-10
2.762e-11
8.031e-10
2.479e-11
8.001e-10
2.223e-11
7.974e-10
1.994e-11
7.951e-10
1.789e-11
7.929e-10
1.606e-11
7.91e-10
1.445e-11
7.893e-10
1.304e-11
7.878e-10
1.182e-11
7.865e-10
1.078e-11
7.852e-10
9.922e-12
7.842e-10
9.225e-12
7.832e-10
8.686e-12
7.823e-10
8.298e-12
7.814e-10
8.053e-12
7.945e-12
9.431e-10
4.999e-11
9.563e-10
1.343e-10
9.736e-10
2.007e-10
9.916e-10
2.489e-10
1.008e-09
2.805e-10
1.021e-09
2.981e-10
1.031e-09
3.043e-10
1.037e-09
3.017e-10
1.039e-09
2.927e-10
1.039e-09
2.791e-10
1.036e-09
2.624e-10
1.032e-09
2.438e-10
1.026e-09
2.242e-10
1.019e-09
2.041e-10
1.012e-09
1.842e-10
1.005e-09
1.645e-10
9.985e-10
1.454e-10
9.922e-10
1.268e-10
9.866e-10
1.089e-10
9.817e-10
9.167e-11
9.778e-10
7.499e-11
9.749e-10
5.885e-11
9.731e-10
4.315e-11
9.724e-10
2.782e-11
9.729e-10
1.276e-11
9.746e-10
-2.123e-12
9.776e-10
-1.693e-11
9.82e-10
-3.175e-11
9.877e-10
-4.668e-11
9.949e-10
-6.182e-11
1.004e-09
-7.723e-11
1.014e-09
-9.3e-11
1.026e-09
-1.092e-10
1.039e-09
-1.259e-10
1.054e-09
-1.431e-10
1.071e-09
-1.608e-10
1.09e-09
-1.791e-10
1.111e-09
-1.98e-10
1.134e-09
-2.174e-10
1.159e-09
-2.372e-10
1.186e-09
-2.574e-10
1.216e-09
-2.777e-10
1.247e-09
-2.981e-10
1.281e-09
-3.183e-10
1.317e-09
-3.381e-10
1.355e-09
-3.57e-10
1.395e-09
-3.747e-10
1.437e-09
-3.908e-10
1.481e-09
-4.047e-10
1.526e-09
-4.16e-10
1.573e-09
-4.241e-10
1.62e-09
-4.282e-10
1.668e-09
-4.279e-10
1.716e-09
-4.226e-10
1.762e-09
-4.116e-10
1.807e-09