/*--------------------------------*- C++ -*----------------------------------*\
  =========                 |
  \\      /  F ield         | OpenFOAM: The Open Source CFD Toolbox
   \\    /   O peration     | Website:  https://openfoam.org
    \\  /    A nd           | Version:  7
     \\/     M anipulation  |
\*---------------------------------------------------------------------------*/
FoamFile
{
    version     2.0;
    format      ascii;
    class       volVectorField;
    location    "1559.99947342229871";
    object      U;
}
// * * * * * * * * * * * * * * * * * * * * * * * * * * * * * * * * * * * * * //

dimensions      [0 1 -1 0 0 0 0];

internalField   nonuniform List<vector> 
4096
(
(0.001039 0.0001611 0)
(0.0007463 0.0001314 0)
(0.0005302 8.474e-05 0)
(0.0003919 5.358e-05 0)
(0.0003036 3.466e-05 0)
(0.0002457 2.328e-05 0)
(0.0002061 1.633e-05 0)
(0.0001778 1.194e-05 0)
(0.0001568 9.053e-06 0)
(0.0001407 7.064e-06 0)
(0.000128 5.636e-06 0)
(0.0001178 4.573e-06 0)
(0.0001095 3.756e-06 0)
(0.0001026 3.113e-06 0)
(9.689e-05 2.596e-06 0)
(9.212e-05 2.171e-06 0)
(8.814e-05 1.816e-06 0)
(8.481e-05 1.515e-06 0)
(8.203e-05 1.257e-06 0)
(7.975e-05 1.031e-06 0)
(7.788e-05 8.315e-07 0)
(7.64e-05 6.526e-07 0)
(7.526e-05 4.898e-07 0)
(7.443e-05 3.396e-07 0)
(7.389e-05 1.99e-07 0)
(7.362e-05 6.546e-08 0)
(7.362e-05 -6.323e-08 0)
(7.387e-05 -1.889e-07 0)
(7.438e-05 -3.132e-07 0)
(7.513e-05 -4.377e-07 0)
(7.613e-05 -5.635e-07 0)
(7.738e-05 -6.918e-07 0)
(7.89e-05 -8.236e-07 0)
(8.068e-05 -9.596e-07 0)
(8.274e-05 -1.101e-06 0)
(8.509e-05 -1.247e-06 0)
(8.774e-05 -1.399e-06 0)
(9.069e-05 -1.558e-06 0)
(9.397e-05 -1.721e-06 0)
(9.758e-05 -1.89e-06 0)
(0.0001015 -2.064e-06 0)
(0.0001058 -2.24e-06 0)
(0.0001105 -2.418e-06 0)
(0.0001155 -2.596e-06 0)
(0.0001209 -2.771e-06 0)
(0.0001266 -2.939e-06 0)
(0.0001326 -3.098e-06 0)
(0.000139 -3.242e-06 0)
(0.0001456 -3.369e-06 0)
(0.0001524 -3.471e-06 0)
(0.0001594 -3.545e-06 0)
(0.0001666 -3.584e-06 0)
(0.0001737 -3.583e-06 0)
(0.0001809 -3.537e-06 0)
(0.0001878 -3.442e-06 0)
(0.0001946 -3.294e-06 0)
(0.000201 -3.09e-06 0)
(0.0002069 -2.831e-06 0)
(0.0002122 -2.518e-06 0)
(0.0002169 -2.154e-06 0)
(0.0002208 -1.745e-06 0)
(0.0002238 -1.299e-06 0)
(0.000226 -8.273e-07 0)
(0.0002271 -3.406e-07 0)
(0.0002273 1.49e-07 0)
(0.0002265 6.294e-07 0)
(0.0002248 1.09e-06 0)
(0.0002222 1.52e-06 0)
(0.0002188 1.914e-06 0)
(0.0002146 2.265e-06 0)
(0.0002098 2.571e-06 0)
(0.0002044 2.828e-06 0)
(0.0001985 3.038e-06 0)
(0.0001923 3.2e-06 0)
(0.0001857 3.317e-06 0)
(0.000179 3.391e-06 0)
(0.0001722 3.425e-06 0)
(0.0001654 3.423e-06 0)
(0.0001586 3.389e-06 0)
(0.0001518 3.327e-06 0)
(0.0001453 3.241e-06 0)
(0.0001389 3.134e-06 0)
(0.0001328 3.011e-06 0)
(0.0001269 2.876e-06 0)
(0.0001213 2.732e-06 0)
(0.0001159 2.581e-06 0)
(0.0001109 2.428e-06 0)
(0.0001062 2.274e-06 0)
(0.0001018 2.121e-06 0)
(9.775e-05 1.971e-06 0)
(9.395e-05 1.826e-06 0)
(9.044e-05 1.685e-06 0)
(8.72e-05 1.551e-06 0)
(8.423e-05 1.424e-06 0)
(8.15e-05 1.304e-06 0)
(7.901e-05 1.191e-06 0)
(7.673e-05 1.085e-06 0)
(7.466e-05 9.867e-07 0)
(7.278e-05 8.954e-07 0)
(7.107e-05 8.109e-07 0)
(6.953e-05 7.331e-07 0)
(6.813e-05 6.616e-07 0)
(6.687e-05 5.961e-07 0)
(6.574e-05 5.362e-07 0)
(6.472e-05 4.815e-07 0)
(6.381e-05 4.317e-07 0)
(6.299e-05 3.865e-07 0)
(6.226e-05 3.455e-07 0)
(6.161e-05 3.084e-07 0)
(6.102e-05 2.749e-07 0)
(6.05e-05 2.447e-07 0)
(6.004e-05 2.175e-07 0)
(5.963e-05 1.933e-07 0)
(5.927e-05 1.716e-07 0)
(5.894e-05 1.524e-07 0)
(5.865e-05 1.356e-07 0)
(5.84e-05 1.21e-07 0)
(5.817e-05 1.086e-07 0)
(5.796e-05 9.845e-08 0)
(5.777e-05 9.056e-08 0)
(5.759e-05 8.517e-08 0)
(5.743e-05 8.269e-08 0)
(5.726e-05 8.383e-08 0)
(5.709e-05 8.998e-08 0)
(5.689e-05 1.038e-07 0)
(5.666e-05 1.295e-07 0)
(5.636e-05 1.72e-07 0)
(5.596e-05 2.235e-07 0)
(0.001209 0.0003128 0)
(0.001154 0.0003282 0)
(0.00101 0.000248 0)
(0.0008613 0.0001771 0)
(0.0007345 0.0001262 0)
(0.0006327 9.144e-05 0)
(0.0005526 6.789e-05 0)
(0.0004895 5.174e-05 0)
(0.0004394 4.038e-05 0)
(0.000399 3.216e-05 0)
(0.0003662 2.604e-05 0)
(0.0003393 2.135e-05 0)
(0.0003169 1.768e-05 0)
(0.0002982 1.475e-05 0)
(0.0002825 1.236e-05 0)
(0.0002693 1.038e-05 0)
(0.0002582 8.708e-06 0)
(0.0002489 7.286e-06 0)
(0.0002411 6.057e-06 0)
(0.0002346 4.98e-06 0)
(0.0002293 4.024e-06 0)
(0.0002251 3.164e-06 0)
(0.0002218 2.38e-06 0)
(0.0002195 1.656e-06 0)
(0.0002179 9.764e-07 0)
(0.0002171 3.307e-07 0)
(0.0002171 -2.916e-07 0)
(0.0002178 -8.991e-07 0)
(0.0002192 -1.5e-06 0)
(0.0002213 -2.1e-06 0)
(0.0002241 -2.706e-06 0)
(0.0002276 -3.323e-06 0)
(0.0002318 -3.956e-06 0)
(0.0002368 -4.607e-06 0)
(0.0002426 -5.281e-06 0)
(0.0002492 -5.98e-06 0)
(0.0002566 -6.704e-06 0)
(0.0002648 -7.454e-06 0)
(0.0002739 -8.228e-06 0)
(0.000284 -9.025e-06 0)
(0.0002949 -9.84e-06 0)
(0.0003068 -1.067e-05 0)
(0.0003197 -1.15e-05 0)
(0.0003335 -1.233e-05 0)
(0.0003482 -1.314e-05 0)
(0.0003638 -1.392e-05 0)
(0.0003803 -1.465e-05 0)
(0.0003976 -1.531e-05 0)
(0.0004156 -1.588e-05 0)
(0.0004341 -1.634e-05 0)
(0.0004531 -1.666e-05 0)
(0.0004723 -1.682e-05 0)
(0.0004916 -1.679e-05 0)
(0.0005107 -1.656e-05 0)
(0.0005293 -1.609e-05 0)
(0.0005473 -1.538e-05 0)
(0.0005644 -1.442e-05 0)
(0.0005801 -1.32e-05 0)
(0.0005944 -1.173e-05 0)
(0.0006068 -1.003e-05 0)
(0.0006171 -8.13e-06 0)
(0.0006253 -6.062e-06 0)
(0.0006309 -3.875e-06 0)
(0.0006341 -1.618e-06 0)
(0.0006347 6.518e-07 0)
(0.0006327 2.882e-06 0)
(0.0006282 5.023e-06 0)
(0.0006214 7.031e-06 0)
(0.0006124 8.872e-06 0)
(0.0006013 1.052e-05 0)
(0.0005885 1.196e-05 0)
(0.0005742 1.318e-05 0)
(0.0005586 1.418e-05 0)
(0.0005419 1.496e-05 0)
(0.0005244 1.553e-05 0)
(0.0005064 1.59e-05 0)
(0.0004881 1.609e-05 0)
(0.0004696 1.61e-05 0)
(0.0004511 1.597e-05 0)
(0.0004329 1.57e-05 0)
(0.000415 1.531e-05 0)
(0.0003976 1.483e-05 0)
(0.0003808 1.427e-05 0)
(0.0003647 1.365e-05 0)
(0.0003492 1.299e-05 0)
(0.0003346 1.229e-05 0)
(0.0003207 1.158e-05 0)
(0.0003077 1.086e-05 0)
(0.0002955 1.015e-05 0)
(0.0002841 9.445e-06 0)
(0.0002735 8.76e-06 0)
(0.0002636 8.099e-06 0)
(0.0002545 7.466e-06 0)
(0.0002462 6.863e-06 0)
(0.0002385 6.293e-06 0)
(0.0002314 5.756e-06 0)
(0.0002249 5.253e-06 0)
(0.000219 4.783e-06 0)
(0.0002137 4.347e-06 0)
(0.0002088 3.943e-06 0)
(0.0002044 3.57e-06 0)
(0.0002004 3.227e-06 0)
(0.0001967 2.912e-06 0)
(0.0001935 2.623e-06 0)
(0.0001905 2.359e-06 0)
(0.0001879 2.119e-06 0)
(0.0001855 1.9e-06 0)
(0.0001834 1.701e-06 0)
(0.0001814 1.521e-06 0)
(0.0001797 1.358e-06 0)
(0.0001782 1.211e-06 0)
(0.0001768 1.079e-06 0)
(0.0001756 9.608e-07 0)
(0.0001745 8.551e-07 0)
(0.0001736 7.613e-07 0)
(0.0001727 6.788e-07 0)
(0.0001719 6.072e-07 0)
(0.0001712 5.461e-07 0)
(0.0001706 4.955e-07 0)
(0.00017 4.558e-07 0)
(0.0001695 4.276e-07 0)
(0.000169 4.123e-07 0)
(0.0001685 4.121e-07 0)
(0.000168 4.306e-07 0)
(0.0001675 4.739e-07 0)
(0.0001669 5.502e-07 0)
(0.0001663 6.636e-07 0)
(0.0001657 7.819e-07 0)
(0.001226 0.0002775 0)
(0.001243 0.0004027 0)
(0.001194 0.0003664 0)
(0.001102 0.0002982 0)
(0.0009997 0.0002345 0)
(0.0009017 0.000183 0)
(0.0008144 0.0001437 0)
(0.0007393 0.0001141 0)
(0.0006757 9.177e-05 0)
(0.0006221 7.473e-05 0)
(0.0005768 6.151e-05 0)
(0.0005386 5.108e-05 0)
(0.0005062 4.271e-05 0)
(0.0004788 3.589e-05 0)
(0.0004554 3.025e-05 0)
(0.0004356 2.552e-05 0)
(0.0004188 2.151e-05 0)
(0.0004045 1.805e-05 0)
(0.0003926 1.505e-05 0)
(0.0003826 1.24e-05 0)
(0.0003745 1.004e-05 0)
(0.0003679 7.91e-06 0)
(0.0003629 5.96e-06 0)
(0.0003592 4.152e-06 0)
(0.0003567 2.454e-06 0)
(0.0003555 8.384e-07 0)
(0.0003555 -7.201e-07 0)
(0.0003566 -2.242e-06 0)
(0.0003588 -3.747e-06 0)
(0.0003621 -5.25e-06 0)
(0.0003665 -6.766e-06 0)
(0.000372 -8.307e-06 0)
(0.0003787 -9.885e-06 0)
(0.0003865 -1.151e-05 0)
(0.0003955 -1.318e-05 0)
(0.0004058 -1.492e-05 0)
(0.0004174 -1.671e-05 0)
(0.0004302 -1.856e-05 0)
(0.0004445 -2.047e-05 0)
(0.0004601 -2.243e-05 0)
(0.0004771 -2.443e-05 0)
(0.0004956 -2.646e-05 0)
(0.0005155 -2.849e-05 0)
(0.0005369 -3.051e-05 0)
(0.0005597 -3.248e-05 0)
(0.0005838 -3.436e-05 0)
(0.0006093 -3.612e-05 0)
(0.0006359 -3.77e-05 0)
(0.0006635 -3.907e-05 0)
(0.000692 -4.015e-05 0)
(0.0007211 -4.09e-05 0)
(0.0007505 -4.125e-05 0)
(0.00078 -4.114e-05 0)
(0.0008092 -4.052e-05 0)
(0.0008377 -3.935e-05 0)
(0.0008652 -3.758e-05 0)
(0.0008912 -3.521e-05 0)
(0.0009152 -3.221e-05 0)
(0.0009369 -2.862e-05 0)
(0.0009558 -2.448e-05 0)
(0.0009716 -1.985e-05 0)
(0.000984 -1.482e-05 0)
(0.0009927 -9.501e-06 0)
(0.0009975 -4.016e-06 0)
(0.0009985 1.503e-06 0)
(0.0009956 6.93e-06 0)
(0.0009889 1.215e-05 0)
(0.0009786 1.705e-05 0)
(0.0009649 2.155e-05 0)
(0.0009482 2.559e-05 0)
(0.0009288 2.913e-05 0)
(0.000907 3.215e-05 0)
(0.0008832 3.463e-05 0)
(0.0008578 3.658e-05 0)
(0.0008311 3.802e-05 0)
(0.0008036 3.897e-05 0)
(0.0007755 3.948e-05 0)
(0.0007471 3.956e-05 0)
(0.0007188 3.928e-05 0)
(0.0006908 3.866e-05 0)
(0.0006632 3.776e-05 0)
(0.0006364 3.662e-05 0)
(0.0006104 3.528e-05 0)
(0.0005854 3.379e-05 0)
(0.0005615 3.219e-05 0)
(0.0005387 3.05e-05 0)
(0.0005172 2.877e-05 0)
(0.0004969 2.702e-05 0)
(0.0004778 2.528e-05 0)
(0.00046 2.355e-05 0)
(0.0004434 2.188e-05 0)
(0.0004279 2.025e-05 0)
(0.0004136 1.869e-05 0)
(0.0004005 1.72e-05 0)
(0.0003883 1.579e-05 0)
(0.0003772 1.446e-05 0)
(0.000367 1.322e-05 0)
(0.0003576 1.205e-05 0)
(0.0003491 1.096e-05 0)
(0.0003414 9.958e-06 0)
(0.0003343 9.027e-06 0)
(0.0003279 8.17e-06 0)
(0.0003221 7.381e-06 0)
(0.0003169 6.658e-06 0)
(0.0003122 5.997e-06 0)
(0.0003079 5.393e-06 0)
(0.0003041 4.843e-06 0)
(0.0003006 4.343e-06 0)
(0.0002975 3.889e-06 0)
(0.0002947 3.478e-06 0)
(0.0002923 3.107e-06 0)
(0.00029 2.773e-06 0)
(0.0002881 2.473e-06 0)
(0.0002863 2.205e-06 0)
(0.0002847 1.966e-06 0)
(0.0002833 1.756e-06 0)
(0.000282 1.573e-06 0)
(0.0002809 1.416e-06 0)
(0.0002798 1.286e-06 0)
(0.0002789 1.181e-06 0)
(0.000278 1.104e-06 0)
(0.0002772 1.056e-06 0)
(0.0002764 1.041e-06 0)
(0.0002756 1.063e-06 0)
(0.0002749 1.127e-06 0)
(0.0002741 1.236e-06 0)
(0.0002733 1.384e-06 0)
(0.0002725 1.512e-06 0)
(0.001224 0.0002275 0)
(0.00126 0.0004003 0)
(0.001258 0.0004193 0)
(0.001216 0.0003789 0)
(0.001149 0.0003229 0)
(0.001074 0.0002685 0)
(0.0009975 0.0002215 0)
(0.0009263 0.0001827 0)
(0.0008618 0.0001513 0)
(0.0008047 0.000126 0)
(0.0007546 0.0001055 0)
(0.000711 8.885e-05 0)
(0.0006732 7.51e-05 0)
(0.0006405 6.366e-05 0)
(0.0006123 5.404e-05 0)
(0.000588 4.585e-05 0)
(0.0005672 3.882e-05 0)
(0.0005495 3.272e-05 0)
(0.0005344 2.736e-05 0)
(0.0005219 2.261e-05 0)
(0.0005115 1.834e-05 0)
(0.0005032 1.447e-05 0)
(0.0004968 1.091e-05 0)
(0.0004921 7.598e-06 0)
(0.0004891 4.48e-06 0)
(0.0004876 1.506e-06 0)
(0.0004876 -1.367e-06 0)
(0.0004891 -4.176e-06 0)
(0.000492 -6.953e-06 0)
(0.0004964 -9.728e-06 0)
(0.0005022 -1.253e-05 0)
(0.0005095 -1.537e-05 0)
(0.0005183 -1.828e-05 0)
(0.0005286 -2.126e-05 0)
(0.0005405 -2.434e-05 0)
(0.000554 -2.752e-05 0)
(0.0005692 -3.081e-05 0)
(0.000586 -3.419e-05 0)
(0.0006046 -3.768e-05 0)
(0.000625 -4.125e-05 0)
(0.0006473 -4.489e-05 0)
(0.0006714 -4.857e-05 0)
(0.0006973 -5.226e-05 0)
(0.0007251 -5.59e-05 0)
(0.0007547 -5.945e-05 0)
(0.000786 -6.284e-05 0)
(0.0008189 -6.6e-05 0)
(0.0008533 -6.884e-05 0)
(0.000889 -7.126e-05 0)
(0.0009258 -7.318e-05 0)
(0.0009633 -7.448e-05 0)
(0.001001 -7.505e-05 0)
(0.001039 -7.481e-05 0)
(0.001077 -7.364e-05 0)
(0.001114 -7.147e-05 0)
(0.001149 -6.823e-05 0)
(0.001182 -6.389e-05 0)
(0.001213 -5.845e-05 0)
(0.001241 -5.193e-05 0)
(0.001265 -4.442e-05 0)
(0.001286 -3.603e-05 0)
(0.001302 -2.693e-05 0)
(0.001313 -1.731e-05 0)
(0.001319 -7.388e-06 0)
(0.00132 2.6e-06 0)
(0.001317 1.242e-05 0)
(0.001308 2.187e-05 0)
(0.001295 3.076e-05 0)
(0.001278 3.894e-05 0)
(0.001256 4.629e-05 0)
(0.001231 5.275e-05 0)
(0.001203 5.826e-05 0)
(0.001173 6.281e-05 0)
(0.00114 6.641e-05 0)
(0.001106 6.909e-05 0)
(0.001071 7.089e-05 0)
(0.001034 7.187e-05 0)
(0.0009979 7.209e-05 0)
(0.0009613 7.164e-05 0)
(0.000925 7.058e-05 0)
(0.0008894 6.9e-05 0)
(0.0008546 6.699e-05 0)
(0.0008209 6.461e-05 0)
(0.0007884 6.194e-05 0)
(0.0007573 5.906e-05 0)
(0.0007277 5.603e-05 0)
(0.0006996 5.291e-05 0)
(0.000673 4.974e-05 0)
(0.0006481 4.658e-05 0)
(0.0006247 4.345e-05 0)
(0.0006029 4.04e-05 0)
(0.0005826 3.744e-05 0)
(0.0005638 3.459e-05 0)
(0.0005464 3.187e-05 0)
(0.0005304 2.929e-05 0)
(0.0005157 2.685e-05 0)
(0.0005022 2.456e-05 0)
(0.0004898 2.242e-05 0)
(0.0004785 2.042e-05 0)
(0.0004681 1.857e-05 0)
(0.0004587 1.685e-05 0)
(0.0004502 1.527e-05 0)
(0.0004425 1.381e-05 0)
(0.0004355 1.247e-05 0)
(0.0004291 1.125e-05 0)
(0.0004234 1.013e-05 0)
(0.0004182 9.105e-06 0)
(0.0004136 8.175e-06 0)
(0.0004094 7.33e-06 0)
(0.0004057 6.564e-06 0)
(0.0004023 5.872e-06 0)
(0.0003993 5.247e-06 0)
(0.0003966 4.686e-06 0)
(0.0003942 4.184e-06 0)
(0.000392 3.737e-06 0)
(0.0003901 3.342e-06 0)
(0.0003883 2.996e-06 0)
(0.0003868 2.699e-06 0)
(0.0003854 2.448e-06 0)
(0.0003841 2.244e-06 0)
(0.0003829 2.088e-06 0)
(0.0003818 1.982e-06 0)
(0.0003808 1.928e-06 0)
(0.0003798 1.929e-06 0)
(0.0003788 1.986e-06 0)
(0.0003779 2.097e-06 0)
(0.000377 2.241e-06 0)
(0.0003761 2.354e-06 0)
(0.001219 0.0001846 0)
(0.001255 0.0003712 0)
(0.001275 0.0004301 0)
(0.001265 0.000421 0)
(0.001229 0.0003827 0)
(0.001178 0.0003354 0)
(0.00112 0.0002886 0)
(0.001061 0.0002463 0)
(0.001003 0.0002097 0)
(0.0009493 0.0001785 0)
(0.0009002 0.0001521 0)
(0.0008561 0.0001299 0)
(0.0008169 0.0001111 0)
(0.0007822 9.505e-05 0)
(0.0007518 8.131e-05 0)
(0.0007252 6.943e-05 0)
(0.0007022 5.91e-05 0)
(0.0006823 5.002e-05 0)
(0.0006654 4.197e-05 0)
(0.0006512 3.477e-05 0)
(0.0006395 2.826e-05 0)
(0.00063 2.232e-05 0)
(0.0006227 1.683e-05 0)
(0.0006174 1.17e-05 0)
(0.0006139 6.849e-06 0)
(0.0006124 2.209e-06 0)
(0.0006125 -2.283e-06 0)
(0.0006145 -6.682e-06 0)
(0.0006181 -1.104e-05 0)
(0.0006235 -1.539e-05 0)
(0.0006306 -1.978e-05 0)
(0.0006394 -2.424e-05 0)
(0.00065 -2.879e-05 0)
(0.0006624 -3.347e-05 0)
(0.0006767 -3.829e-05 0)
(0.0006929 -4.326e-05 0)
(0.000711 -4.838e-05 0)
(0.0007312 -5.366e-05 0)
(0.0007535 -5.909e-05 0)
(0.0007779 -6.464e-05 0)
(0.0008044 -7.029e-05 0)
(0.0008332 -7.6e-05 0)
(0.0008641 -8.17e-05 0)
(0.0008972 -8.732e-05 0)
(0.0009323 -9.28e-05 0)
(0.0009695 -9.801e-05 0)
(0.001009 -0.0001029 0)
(0.001049 -0.0001072 0)
(0.001092 -0.0001109 0)
(0.001135 -0.0001138 0)
(0.00118 -0.0001158 0)
(0.001225 -0.0001166 0)
(0.00127 -0.0001162 0)
(0.001314 -0.0001143 0)
(0.001358 -0.0001109 0)
(0.001399 -0.0001059 0)
(0.001439 -9.912e-05 0)
(0.001475 -9.067e-05 0)
(0.001508 -8.056e-05 0)
(0.001537 -6.893e-05 0)
(0.001561 -5.594e-05 0)
(0.00158 -4.185e-05 0)
(0.001594 -2.695e-05 0)
(0.001601 -1.159e-05 0)
(0.001603 3.875e-06 0)
(0.001598 1.909e-05 0)
(0.001588 3.373e-05 0)
(0.001573 4.75e-05 0)
(0.001552 6.019e-05 0)
(0.001527 7.161e-05 0)
(0.001498 8.165e-05 0)
(0.001465 9.023e-05 0)
(0.001429 9.735e-05 0)
(0.00139 0.000103 0)
(0.00135 0.0001072 0)
(0.001308 0.0001101 0)
(0.001265 0.0001117 0)
(0.001222 0.0001121 0)
(0.001179 0.0001115 0)
(0.001136 0.00011 0)
(0.001093 0.0001076 0)
(0.001052 0.0001045 0)
(0.001012 0.0001009 0)
(0.0009731 9.681e-05 0)
(0.000936 9.239e-05 0)
(0.0009006 8.773e-05 0)
(0.0008671 8.291e-05 0)
(0.0008353 7.802e-05 0)
(0.0008054 7.312e-05 0)
(0.0007774 6.828e-05 0)
(0.0007513 6.354e-05 0)
(0.0007269 5.894e-05 0)
(0.0007043 5.451e-05 0)
(0.0006833 5.027e-05 0)
(0.000664 4.625e-05 0)
(0.0006462 4.244e-05 0)
(0.0006299 3.886e-05 0)
(0.0006149 3.55e-05 0)
(0.0006011 3.237e-05 0)
(0.0005886 2.946e-05 0)
(0.0005772 2.677e-05 0)
(0.0005668 2.428e-05 0)
(0.0005574 2.198e-05 0)
(0.0005488 1.987e-05 0)
(0.0005411 1.794e-05 0)
(0.000534 1.617e-05 0)
(0.0005277 1.455e-05 0)
(0.000522 1.308e-05 0)
(0.0005169 1.174e-05 0)
(0.0005123 1.053e-05 0)
(0.0005081 9.427e-06 0)
(0.0005044 8.435e-06 0)
(0.000501 7.542e-06 0)
(0.000498 6.741e-06 0)
(0.0004954 6.027e-06 0)
(0.0004929 5.394e-06 0)
(0.0004908 4.839e-06 0)
(0.0004888 4.358e-06 0)
(0.0004871 3.949e-06 0)
(0.0004855 3.611e-06 0)
(0.0004841 3.344e-06 0)
(0.0004827 3.149e-06 0)
(0.0004815 3.027e-06 0)
(0.0004803 2.978e-06 0)
(0.0004792 2.999e-06 0)
(0.0004782 3.081e-06 0)
(0.0004772 3.196e-06 0)
(0.0004762 3.286e-06 0)
(0.001214 0.000152 0)
(0.001246 0.0003354 0)
(0.001274 0.0004181 0)
(0.001282 0.0004353 0)
(0.001269 0.0004167 0)
(0.00124 0.0003815 0)
(0.0012 0.0003404 0)
(0.001155 0.0002994 0)
(0.001107 0.0002613 0)
(0.001061 0.000227 0)
(0.001017 0.0001968 0)
(0.0009756 0.0001704 0)
(0.000938 0.0001474 0)
(0.0009041 0.0001274 0)
(0.0008737 0.0001098 0)
(0.0008467 9.441e-05 0)
(0.0008231 8.08e-05 0)
(0.0008026 6.869e-05 0)
(0.0007849 5.785e-05 0)
(0.00077 4.805e-05 0)
(0.0007575 3.913e-05 0)
(0.0007475 3.093e-05 0)
(0.0007398 2.33e-05 0)
(0.0007342 1.614e-05 0)
(0.0007307 9.34e-06 0)
(0.0007292 2.811e-06 0)
(0.0007296 -3.527e-06 0)
(0.000732 -9.748e-06 0)
(0.0007363 -1.591e-05 0)
(0.0007425 -2.208e-05 0)
(0.0007507 -2.831e-05 0)
(0.0007608 -3.463e-05 0)
(0.0007729 -4.109e-05 0)
(0.000787 -4.772e-05 0)
(0.0008032 -5.454e-05 0)
(0.0008216 -6.158e-05 0)
(0.0008422 -6.882e-05 0)
(0.0008651 -7.628e-05 0)
(0.0008903 -8.394e-05 0)
(0.0009179 -9.177e-05 0)
(0.0009478 -9.972e-05 0)
(0.0009803 -0.0001077 0)
(0.001015 -0.0001157 0)
(0.001052 -0.0001236 0)
(0.001092 -0.0001313 0)
(0.001134 -0.0001386 0)
(0.001178 -0.0001454 0)
(0.001224 -0.0001515 0)
(0.001272 -0.0001566 0)
(0.001321 -0.0001607 0)
(0.001371 -0.0001634 0)
(0.001421 -0.0001645 0)
(0.001472 -0.0001638 0)
(0.001522 -0.0001612 0)
(0.001571 -0.0001564 0)
(0.001618 -0.0001493 0)
(0.001662 -0.0001397 0)
(0.001704 -0.0001278 0)
(0.001741 -0.0001136 0)
(0.001773 -9.724e-05 0)
(0.001801 -7.895e-05 0)
(0.001822 -5.91e-05 0)
(0.001837 -3.812e-05 0)
(0.001846 -1.648e-05 0)
(0.001847 5.299e-06 0)
(0.001843 2.673e-05 0)
(0.001831 4.734e-05 0)
(0.001814 6.675e-05 0)
(0.001791 8.462e-05 0)
(0.001763 0.0001007 0)
(0.00173 0.0001149 0)
(0.001693 0.000127 0)
(0.001652 0.0001371 0)
(0.001609 0.0001451 0)
(0.001563 0.0001511 0)
(0.001516 0.0001552 0)
(0.001468 0.0001576 0)
(0.001419 0.0001583 0)
(0.00137 0.0001575 0)
(0.001322 0.0001554 0)
(0.001274 0.0001521 0)
(0.001228 0.0001479 0)
(0.001182 0.0001429 0)
(0.001139 0.0001372 0)
(0.001097 0.000131 0)
(0.001057 0.0001245 0)
(0.001019 0.0001177 0)
(0.0009831 0.0001109 0)
(0.0009492 0.000104 0)
(0.0009175 9.718e-05 0)
(0.0008878 9.05e-05 0)
(0.0008601 8.402e-05 0)
(0.0008344 7.777e-05 0)
(0.0008105 7.179e-05 0)
(0.0007885 6.609e-05 0)
(0.0007682 6.07e-05 0)
(0.0007495 5.563e-05 0)
(0.0007324 5.087e-05 0)
(0.0007167 4.643e-05 0)
(0.0007023 4.229e-05 0)
(0.0006892 3.846e-05 0)
(0.0006773 3.491e-05 0)
(0.0006664 3.164e-05 0)
(0.0006566 2.863e-05 0)
(0.0006476 2.587e-05 0)
(0.0006395 2.334e-05 0)
(0.0006322 2.103e-05 0)
(0.0006256 1.892e-05 0)
(0.0006196 1.7e-05 0)
(0.0006143 1.526e-05 0)
(0.0006095 1.368e-05 0)
(0.0006051 1.225e-05 0)
(0.0006012 1.096e-05 0)
(0.0005977 9.808e-06 0)
(0.0005946 8.776e-06 0)
(0.0005918 7.859e-06 0)
(0.0005893 7.052e-06 0)
(0.000587 6.349e-06 0)
(0.000585 5.746e-06 0)
(0.0005831 5.241e-06 0)
(0.0005815 4.832e-06 0)
(0.0005799 4.518e-06 0)
(0.0005785 4.298e-06 0)
(0.0005772 4.17e-06 0)
(0.000576 4.127e-06 0)
(0.0005749 4.155e-06 0)
(0.0005738 4.227e-06 0)
(0.0005727 4.289e-06 0)
(0.00121 0.0001279 0)
(0.001237 0.0003007 0)
(0.001267 0.0003956 0)
(0.001284 0.0004319 0)
(0.001287 0.0004311 0)
(0.001274 0.000409 0)
(0.00125 0.0003765 0)
(0.001219 0.0003401 0)
(0.001183 0.0003034 0)
(0.001146 0.0002687 0)
(0.001108 0.0002367 0)
(0.001072 0.0002077 0)
(0.001039 0.0001817 0)
(0.001007 0.0001584 0)
(0.0009787 0.0001377 0)
(0.000953 0.0001192 0)
(0.0009301 0.0001026 0)
(0.00091 8.759e-05 0)
(0.0008926 7.403e-05 0)
(0.0008777 6.166e-05 0)
(0.0008653 5.03e-05 0)
(0.0008554 3.976e-05 0)
(0.0008477 2.991e-05 0)
(0.0008422 2.061e-05 0)
(0.0008388 1.173e-05 0)
(0.0008376 3.178e-06 0)
(0.0008384 -5.155e-06 0)
(0.0008412 -1.335e-05 0)
(0.0008461 -2.15e-05 0)
(0.0008531 -2.965e-05 0)
(0.0008621 -3.789e-05 0)
(0.0008732 -4.626e-05 0)
(0.0008864 -5.482e-05 0)
(0.0009019 -6.359e-05 0)
(0.0009196 -7.262e-05 0)
(0.0009397 -8.193e-05 0)
(0.0009621 -9.151e-05 0)
(0.000987 -0.0001014 0)
(0.001014 -0.0001115 0)
(0.001044 -0.0001218 0)
(0.001077 -0.0001323 0)
(0.001112 -0.0001428 0)
(0.00115 -0.0001534 0)
(0.001191 -0.0001638 0)
(0.001234 -0.0001739 0)
(0.001279 -0.0001835 0)
(0.001327 -0.0001924 0)
(0.001377 -0.0002003 0)
(0.001428 -0.0002071 0)
(0.001482 -0.0002124 0)
(0.001536 -0.000216 0)
(0.001591 -0.0002174 0)
(0.001646 -0.0002166 0)
(0.0017 -0.0002131 0)
(0.001754 -0.0002067 0)
(0.001805 -0.0001973 0)
(0.001854 -0.0001848 0)
(0.001899 -0.0001691 0)
(0.001939 -0.0001503 0)
(0.001975 -0.0001287 0)
(0.002005 -0.0001045 0)
(0.002028 -7.83e-05 0)
(0.002045 -5.055e-05 0)
(0.002054 -2.194e-05 0)
(0.002056 6.874e-06 0)
(0.002051 3.521e-05 0)
(0.002039 6.245e-05 0)
(0.00202 8.808e-05 0)
(0.001994 0.0001117 0)
(0.001963 0.0001329 0)
(0.001928 0.0001516 0)
(0.001887 0.0001677 0)
(0.001843 0.000181 0)
(0.001796 0.0001916 0)
(0.001747 0.0001996 0)
(0.001695 0.0002051 0)
(0.001643 0.0002083 0)
(0.00159 0.0002093 0)
(0.001537 0.0002083 0)
(0.001484 0.0002056 0)
(0.001433 0.0002014 0)
(0.001382 0.0001959 0)
(0.001333 0.0001893 0)
(0.001285 0.0001819 0)
(0.00124 0.0001738 0)
(0.001196 0.0001652 0)
(0.001155 0.0001563 0)
(0.001116 0.0001473 0)
(0.001079 0.0001383 0)
(0.001044 0.0001293 0)
(0.001012 0.0001205 0)
(0.0009817 0.0001119 0)
(0.0009536 0.0001037 0)
(0.0009275 9.577e-05 0)
(0.0009034 8.824e-05 0)
(0.0008811 8.111e-05 0)
(0.0008607 7.439e-05 0)
(0.0008419 6.808e-05 0)
(0.0008246 6.218e-05 0)
(0.0008088 5.669e-05 0)
(0.0007944 5.159e-05 0)
(0.0007813 4.687e-05 0)
(0.0007693 4.251e-05 0)
(0.0007584 3.85e-05 0)
(0.0007485 3.481e-05 0)
(0.0007396 3.143e-05 0)
(0.0007315 2.835e-05 0)
(0.0007242 2.553e-05 0)
(0.0007175 2.296e-05 0)
(0.0007116 2.062e-05 0)
(0.0007062 1.85e-05 0)
(0.0007014 1.659e-05 0)
(0.000697 1.486e-05 0)
(0.0006932 1.33e-05 0)
(0.0006897 1.191e-05 0)
(0.0006865 1.067e-05 0)
(0.0006837 9.576e-06 0)
(0.0006812 8.618e-06 0)
(0.0006789 7.79e-06 0)
(0.0006768 7.088e-06 0)
(0.000675 6.508e-06 0)
(0.0006733 6.048e-06 0)
(0.0006718 5.704e-06 0)
(0.0006704 5.47e-06 0)
(0.0006691 5.34e-06 0)
(0.0006679 5.295e-06 0)
(0.0006667 5.311e-06 0)
(0.0006657 5.341e-06 0)
(0.001208 0.0001097 0)
(0.00123 0.0002696 0)
(0.001258 0.000369 0)
(0.001281 0.0004181 0)
(0.001292 0.0004315 0)
(0.001292 0.0004219 0)
(0.001281 0.0003987 0)
(0.001261 0.0003684 0)
(0.001237 0.0003354 0)
(0.001209 0.0003021 0)
(0.001179 0.00027 0)
(0.00115 0.0002399 0)
(0.001121 0.0002121 0)
(0.001094 0.0001867 0)
(0.001068 0.0001635 0)
(0.001045 0.0001424 0)
(0.001024 0.0001232 0)
(0.001005 0.0001057 0)
(0.0009885 8.968e-05 0)
(0.0009745 7.488e-05 0)
(0.0009628 6.116e-05 0)
(0.0009533 4.835e-05 0)
(0.000946 3.629e-05 0)
(0.000941 2.482e-05 0)
(0.000938 1.383e-05 0)
(0.0009371 3.191e-06 0)
(0.0009384 -7.21e-06 0)
(0.0009417 -1.747e-05 0)
(0.0009471 -2.769e-05 0)
(0.0009546 -3.794e-05 0)
(0.0009643 -4.83e-05 0)
(0.0009762 -5.884e-05 0)
(0.0009903 -6.961e-05 0)
(0.001007 -8.067e-05 0)
(0.001025 -9.204e-05 0)
(0.001047 -0.0001038 0)
(0.00107 -0.0001158 0)
(0.001097 -0.0001282 0)
(0.001126 -0.0001409 0)
(0.001157 -0.0001539 0)
(0.001191 -0.0001671 0)
(0.001229 -0.0001804 0)
(0.001268 -0.0001936 0)
(0.001311 -0.0002067 0)
(0.001356 -0.0002193 0)
(0.001404 -0.0002314 0)
(0.001455 -0.0002426 0)
(0.001507 -0.0002526 0)
(0.001562 -0.0002611 0)
(0.001618 -0.0002678 0)
(0.001676 -0.0002723 0)
(0.001734 -0.0002742 0)
(0.001792 -0.0002732 0)
(0.00185 -0.0002688 0)
(0.001907 -0.0002609 0)
(0.001961 -0.0002492 0)
(0.002013 -0.0002334 0)
(0.002061 -0.0002137 0)
(0.002105 -0.0001901 0)
(0.002143 -0.0001628 0)
(0.002175 -0.0001323 0)
(0.0022 -9.911e-05 0)
(0.002218 -6.401e-05 0)
(0.002228 -2.781e-05 0)
(0.00223 8.62e-06 0)
(0.002224 4.442e-05 0)
(0.002211 7.882e-05 0)
(0.002191 0.0001111 0)
(0.002164 0.0001409 0)
(0.002131 0.0001676 0)
(0.002092 0.0001912 0)
(0.002049 0.0002113 0)
(0.002003 0.0002281 0)
(0.001953 0.0002415 0)
(0.0019 0.0002516 0)
(0.001846 0.0002586 0)
(0.001791 0.0002626 0)
(0.001735 0.0002639 0)
(0.001678 0.0002627 0)
(0.001623 0.0002594 0)
(0.001568 0.0002542 0)
(0.001514 0.0002473 0)
(0.001463 0.000239 0)
(0.001412 0.0002297 0)
(0.001364 0.0002196 0)
(0.001318 0.0002089 0)
(0.001275 0.0001977 0)
(0.001233 0.0001864 0)
(0.001194 0.000175 0)
(0.001158 0.0001638 0)
(0.001123 0.0001527 0)
(0.001091 0.0001419 0)
(0.001062 0.0001315 0)
(0.001034 0.0001216 0)
(0.001008 0.0001121 0)
(0.0009847 0.0001031 0)
(0.000963 9.461e-05 0)
(0.000943 8.665e-05 0)
(0.0009247 7.919e-05 0)
(0.0009079 7.225e-05 0)
(0.0008925 6.58e-05 0)
(0.0008785 5.982e-05 0)
(0.0008658 5.43e-05 0)
(0.0008541 4.921e-05 0)
(0.0008436 4.453e-05 0)
(0.000834 4.024e-05 0)
(0.0008253 3.632e-05 0)
(0.0008175 3.273e-05 0)
(0.0008104 2.946e-05 0)
(0.000804 2.648e-05 0)
(0.0007982 2.378e-05 0)
(0.000793 2.133e-05 0)
(0.0007884 1.912e-05 0)
(0.0007842 1.713e-05 0)
(0.0007804 1.535e-05 0)
(0.000777 1.376e-05 0)
(0.000774 1.234e-05 0)
(0.0007712 1.11e-05 0)
(0.0007688 1.002e-05 0)
(0.0007666 9.1e-06 0)
(0.0007646 8.326e-06 0)
(0.0007628 7.697e-06 0)
(0.0007612 7.206e-06 0)
(0.0007597 6.847e-06 0)
(0.0007584 6.609e-06 0)
(0.0007571 6.478e-06 0)
(0.000756 6.428e-06 0)
(0.0007549 6.424e-06 0)
(0.001206 9.566e-05 0)
(0.001225 0.0002425 0)
(0.001251 0.0003418 0)
(0.001275 0.0003986 0)
(0.001292 0.0004227 0)
(0.0013 0.0004236 0)
(0.001298 0.0004094 0)
(0.001289 0.0003859 0)
(0.001274 0.0003575 0)
(0.001255 0.0003269 0)
(0.001234 0.0002962 0)
(0.001211 0.0002662 0)
(0.001188 0.0002378 0)
(0.001165 0.0002111 0)
(0.001143 0.0001862 0)
(0.001123 0.0001633 0)
(0.001105 0.000142 0)
(0.001088 0.0001223 0)
(0.001073 0.0001041 0)
(0.001061 8.713e-05 0)
(0.00105 7.125e-05 0)
(0.001041 5.629e-05 0)
(0.001035 4.21e-05 0)
(0.00103 2.854e-05 0)
(0.001028 1.547e-05 0)
(0.001028 2.758e-06 0)
(0.001029 -9.714e-06 0)
(0.001033 -2.206e-05 0)
(0.001039 -3.437e-05 0)
(0.001047 -4.676e-05 0)
(0.001057 -5.929e-05 0)
(0.00107 -7.205e-05 0)
(0.001084 -8.511e-05 0)
(0.001101 -9.851e-05 0)
(0.00112 -0.0001123 0)
(0.001142 -0.0001265 0)
(0.001167 -0.0001411 0)
(0.001194 -0.0001562 0)
(0.001223 -0.0001716 0)
(0.001256 -0.0001873 0)
(0.001291 -0.0002033 0)
(0.001329 -0.0002194 0)
(0.00137 -0.0002354 0)
(0.001414 -0.0002513 0)
(0.001461 -0.0002667 0)
(0.00151 -0.0002813 0)
(0.001562 -0.0002949 0)
(0.001616 -0.0003071 0)
(0.001673 -0.0003176 0)
(0.001731 -0.0003258 0)
(0.00179 -0.0003313 0)
(0.00185 -0.0003337 0)
(0.001911 -0.0003326 0)
(0.001971 -0.0003275 0)
(0.00203 -0.000318 0)
(0.002087 -0.0003038 0)
(0.002142 -0.0002848 0)
(0.002192 -0.0002609 0)
(0.002238 -0.0002322 0)
(0.002278 -0.0001989 0)
(0.002312 -0.0001617 0)
(0.002338 -0.0001212 0)
(0.002357 -7.826e-05 0)
(0.002367 -3.397e-05 0)
(0.002369 1.058e-05 0)
(0.002363 5.432e-05 0)
(0.002349 9.628e-05 0)
(0.002327 0.0001356 0)
(0.002299 0.0001718 0)
(0.002264 0.0002043 0)
(0.002224 0.0002329 0)
(0.00218 0.0002573 0)
(0.002131 0.0002776 0)
(0.002079 0.0002939 0)
(0.002024 0.0003061 0)
(0.001968 0.0003146 0)
(0.001911 0.0003195 0)
(0.001853 0.0003211 0)
(0.001795 0.0003197 0)
(0.001737 0.0003157 0)
(0.001681 0.0003093 0)
(0.001625 0.000301 0)
(0.001572 0.000291 0)
(0.00152 0.0002797 0)
(0.00147 0.0002674 0)
(0.001423 0.0002544 0)
(0.001378 0.0002409 0)
(0.001335 0.0002272 0)
(0.001295 0.0002134 0)
(0.001257 0.0001998 0)
(0.001222 0.0001863 0)
(0.001189 0.0001733 0)
(0.001158 0.0001607 0)
(0.001129 0.0001486 0)
(0.001103 0.000137 0)
(0.001079 0.0001261 0)
(0.001056 0.0001158 0)
(0.001036 0.0001061 0)
(0.001017 9.703e-05 0)
(0.0009993 8.858e-05 0)
(0.0009834 8.072e-05 0)
(0.0009689 7.343e-05 0)
(0.0009557 6.669e-05 0)
(0.0009436 6.049e-05 0)
(0.0009326 5.477e-05 0)
(0.0009227 4.953e-05 0)
(0.0009137 4.473e-05 0)
(0.0009055 4.034e-05 0)
(0.0008981 3.633e-05 0)
(0.0008914 3.269e-05 0)
(0.0008854 2.937e-05 0)
(0.00088 2.637e-05 0)
(0.0008751 2.365e-05 0)
(0.0008707 2.12e-05 0)
(0.0008667 1.9e-05 0)
(0.0008632 1.703e-05 0)
(0.00086 1.528e-05 0)
(0.0008572 1.374e-05 0)
(0.0008546 1.239e-05 0)
(0.0008523 1.123e-05 0)
(0.0008502 1.024e-05 0)
(0.0008484 9.422e-06 0)
(0.0008467 8.768e-06 0)
(0.0008452 8.267e-06 0)
(0.0008438 7.909e-06 0)
(0.0008426 7.68e-06 0)
(0.0008414 7.559e-06 0)
(0.0008403 7.518e-06 0)
(0.001205 8.447e-05 0)
(0.001221 0.000219 0)
(0.001245 0.0003156 0)
(0.001269 0.0003765 0)
(0.001289 0.000408 0)
(0.001302 0.0004174 0)
(0.001308 0.0004111 0)
(0.001307 0.0003942 0)
(0.0013 0.0003708 0)
(0.001289 0.0003438 0)
(0.001275 0.0003152 0)
(0.001258 0.0002864 0)
(0.001241 0.0002582 0)
(0.001223 0.000231 0)
(0.001206 0.0002053 0)
(0.001189 0.000181 0)
(0.001174 0.0001582 0)
(0.00116 0.0001369 0)
(0.001147 0.0001168 0)
(0.001136 9.797e-05 0)
(0.001127 8.016e-05 0)
(0.00112 6.326e-05 0)
(0.001114 4.711e-05 0)
(0.001111 3.158e-05 0)
(0.001109 1.653e-05 0)
(0.001109 1.822e-06 0)
(0.001112 -1.266e-05 0)
(0.001116 -2.704e-05 0)
(0.001122 -4.143e-05 0)
(0.00113 -5.593e-05 0)
(0.001141 -7.062e-05 0)
(0.001153 -8.561e-05 0)
(0.001168 -0.0001009 0)
(0.001185 -0.0001167 0)
(0.001204 -0.0001329 0)
(0.001226 -0.0001496 0)
(0.001251 -0.0001669 0)
(0.001278 -0.0001846 0)
(0.001308 -0.0002027 0)
(0.00134 -0.0002212 0)
(0.001376 -0.0002401 0)
(0.001414 -0.000259 0)
(0.001455 -0.000278 0)
(0.001499 -0.0002967 0)
(0.001546 -0.0003148 0)
(0.001596 -0.0003322 0)
(0.001648 -0.0003483 0)
(0.001703 -0.0003628 0)
(0.00176 -0.0003753 0)
(0.001819 -0.0003851 0)
(0.00188 -0.0003918 0)
(0.001941 -0.0003949 0)
(0.002003 -0.0003938 0)
(0.002064 -0.000388 0)
(0.002125 -0.000377 0)
(0.002183 -0.0003605 0)
(0.002239 -0.0003382 0)
(0.002291 -0.00031 0)
(0.002339 -0.0002761 0)
(0.00238 -0.0002367 0)
(0.002415 -0.0001925 0)
(0.002442 -0.0001442 0)
(0.002462 -9.305e-05 0)
(0.002472 -4.026e-05 0)
(0.002474 1.282e-05 0)
(0.002468 6.485e-05 0)
(0.002453 0.0001147 0)
(0.00243 0.0001613 0)
(0.002401 0.000204 0)
(0.002365 0.0002424 0)
(0.002324 0.000276 0)
(0.002278 0.0003048 0)
(0.002228 0.0003287 0)
(0.002175 0.0003478 0)
(0.002119 0.0003622 0)
(0.002062 0.0003721 0)
(0.002004 0.0003778 0)
(0.001945 0.0003797 0)
(0.001886 0.000378 0)
(0.001828 0.0003732 0)
(0.00177 0.0003657 0)
(0.001714 0.0003559 0)
(0.00166 0.0003441 0)