/*--------------------------------*- C++ -*----------------------------------*\
  =========                 |
  \\      /  F ield         | OpenFOAM: The Open Source CFD Toolbox
   \\    /   O peration     | Website:  https://openfoam.org
    \\  /    A nd           | Version:  7
     \\/     M anipulation  |
\*---------------------------------------------------------------------------*/
FoamFile
{
    version     2.0;
    format      ascii;
    class       volScalarField;
    location    "1559.99947342229871";
    object      Y.K;
}
// * * * * * * * * * * * * * * * * * * * * * * * * * * * * * * * * * * * * * //

dimensions      [0 0 0 0 0 0 0];

internalField   nonuniform List<scalar> 
4096
(
8.557e-72
7.624e-70
-2.609e-70
3.598e-70
-1.191e-70
-2.588e-70
1.126e-70
5.581e-71
-3.948e-71
5.471e-70
-5.498e-69
9.096e-68
-1.295e-66
1.889e-65
-2.489e-64
3.154e-63
-3.746e-62
4.297e-61
-4.68e-60
4.961e-59
-4.978e-58
4.871e-57
-4.642e-56
4.238e-55
-3.645e-54
3.018e-53
-2.301e-52
1.658e-51
-1.142e-50
7.394e-50
-4.304e-49
2.073e-48
-4.877e-48
-5.298e-47
1.15e-45
-1.38e-44
1.394e-43
-1.233e-42
1.002e-41
-7.626e-41
5.305e-40
-3.485e-39
2.177e-38
-1.262e-37
6.808e-37
-3.414e-36
1.577e-35
-6.566e-35
2.318e-34
-6.209e-34
5.71e-35
1.546e-32
-1.368e-31
1.012e-30
-4.937e-30
2.673e-29
-8.777e-29
4.751e-28
-3.314e-28
5.41e-27
2.352e-26
5.224e-26
4.213e-25
1.931e-24
4.053e-24
2.884e-23
1.167e-22
8.898e-22
2.596e-21
8.578e-21
1.119e-19
1.61e-18
4.535e-18
9.437e-18
1.744e-17
3.025e-17
5.034e-17
8.122e-17
1.277e-16
1.964e-16
2.96e-16
4.379e-16
6.367e-16
9.108e-16
1.283e-15
1.782e-15
2.443e-15
3.306e-15
4.423e-15
5.852e-15
7.663e-15
9.938e-15
1.277e-14
1.628e-14
2.059e-14
2.584e-14
3.222e-14
3.991e-14
4.914e-14
6.016e-14
7.326e-14
8.878e-14
1.071e-13
1.286e-13
1.538e-13
1.832e-13
2.174e-13
2.571e-13
3.03e-13
3.561e-13
4.172e-13
4.874e-13
5.678e-13
6.598e-13
7.648e-13
8.844e-13
1.02e-12
1.175e-12
1.349e-12
1.547e-12
1.77e-12
2.02e-12
2.3e-12
2.612e-12
2.955e-12
3.319e-12
3.678e-12
3.962e-12
-2.539e-69
1.339e-68
-1.714e-68
2.607e-69
1.151e-68
-9.757e-69
8.096e-70
3.6e-69
-1.315e-69
3.197e-68
-3.228e-67
4.971e-66
-7.439e-65
1.046e-63
-1.385e-62
1.735e-61
-2.064e-60
2.343e-59
-2.552e-58
2.674e-57
-2.703e-56
2.638e-55
-2.482e-54
2.247e-53
-1.943e-52
1.601e-51
-1.221e-50
8.756e-50
-6.044e-49
3.934e-48
-2.316e-47
1.145e-46
-3.082e-46
-2.306e-45
5.49e-44
-6.744e-43
6.88e-42
-6.087e-41
4.946e-40
-3.757e-39
2.633e-38
-1.731e-37
1.067e-36
-6.157e-36
3.312e-35
-1.657e-34
7.651e-34
-3.199e-33
1.156e-32
-3.326e-32
2.686e-32
6.03e-31
-5.763e-30
4.415e-29
-2.064e-28
1.182e-27
-3.57e-27
2.216e-26
-3.218e-27
2.81e-25
1.163e-24
3.131e-24
2.151e-23
9.187e-23
2.146e-22
1.315e-21
5.09e-21
3.357e-20
9.688e-20
2.501e-19
1.496e-18
4.043e-18
8.375e-18
1.552e-17
2.697e-17
4.492e-17
7.244e-17
1.137e-16
1.745e-16
2.623e-16
3.87e-16
5.613e-16
8.01e-16
1.126e-15
1.562e-15
2.137e-15
2.89e-15
3.863e-15
5.109e-15
6.691e-15
8.681e-15
1.116e-14
1.424e-14
1.803e-14
2.266e-14
2.828e-14
3.508e-14
4.326e-14
5.305e-14
6.472e-14
7.856e-14
9.493e-14
1.142e-13
1.368e-13
1.633e-13
1.941e-13
2.3e-13
2.715e-13
3.196e-13
3.751e-13
4.389e-13
5.122e-13
5.962e-13
6.922e-13
8.016e-13
9.263e-13
1.068e-12
1.229e-12
1.41e-12
1.616e-12
1.848e-12
2.109e-12
2.401e-12
2.728e-12
3.09e-12
3.486e-12
3.903e-12
4.299e-12
5.696e-68
-3.966e-67
9.927e-67
-1.321e-66
9.088e-67
-1.512e-67
-2.292e-67
1.357e-67
-3.498e-69
1.85e-66
-1.732e-65
2.655e-64
-3.968e-63
5.56e-62
-7.326e-61
9.117e-60
-1.077e-58
1.214e-57
-1.312e-56
1.366e-55
-1.372e-54
1.331e-53
-1.246e-52
1.122e-51
-9.674e-51
7.947e-50
-6.06e-49
4.369e-48
-3.038e-47
1.999e-46
-1.203e-45
6.205e-45
-2.061e-44
-5.955e-44
2.234e-42
-2.928e-41
3.065e-40
-2.734e-39
2.232e-38
-1.704e-37
1.193e-36
-7.844e-36
4.833e-35
-2.79e-34
1.5e-33
-7.511e-33
3.486e-32
-1.475e-31
5.527e-31
-1.656e-30
2.873e-30
1.566e-29
-1.894e-28
1.703e-27
-7.33e-27
4.764e-26
-1.196e-25
9.828e-25
7.759e-25
1.518e-23
6.11e-23
1.788e-22
1.103e-21
4.271e-21
1.082e-20
5.749e-20
2.007e-19
1.012e-18
2.753e-18
5.784e-18
1.102e-17
1.976e-17
3.389e-17
5.599e-17
8.966e-17
1.396e-16
2.121e-16
3.152e-16
4.588e-16
6.555e-16
9.207e-16
1.273e-15
1.736e-15
2.336e-15
3.105e-15
4.084e-15
5.318e-15
6.862e-15
8.78e-15
1.115e-14
1.405e-14
1.76e-14
2.191e-14
2.711e-14
3.337e-14
4.088e-14
4.984e-14
6.049e-14
7.311e-14
8.802e-14
1.056e-13
1.262e-13
1.502e-13
1.784e-13
2.111e-13
2.49e-13
2.93e-13
3.437e-13
4.022e-13
4.695e-13
5.466e-13
6.349e-13
7.358e-13
8.508e-13
9.817e-13
1.13e-12
1.299e-12
1.49e-12
1.706e-12
1.949e-12
2.222e-12
2.53e-12
2.875e-12
3.26e-12
3.69e-12
4.167e-12
4.693e-12
5.285e-12
-9.37e-67
7.446e-66
-2.613e-65
5.593e-65
-7.729e-65
6.954e-65
-3.747e-65
8.096e-66
1.575e-66
1.045e-64
-8.823e-64
1.338e-62
-1.991e-61
2.769e-60
-3.616e-59
4.452e-58
-5.2e-57
5.796e-56
-6.198e-55
6.387e-54
-6.356e-53
6.117e-52
-5.687e-51
5.095e-50
-4.376e-49
3.588e-48
-2.742e-47
1.994e-46
-1.402e-45
9.389e-45
-5.829e-44
3.18e-43
-1.302e-42
1.068e-42
6.75e-41
-1.051e-39
1.164e-38
-1.061e-37
8.764e-37
-6.782e-36
4.761e-35
-3.139e-34
1.941e-33
-1.125e-32
6.067e-32
-3.05e-31
1.428e-30
-6.16e-30
2.413e-29
-8e-29
2.046e-28
2.641e-29
-3.722e-27
5.506e-26
-1.85e-25
1.661e-24
-2.279e-24
3.937e-23
7.426e-23
7.977e-22
3.074e-21
9.599e-21
5.162e-20
1.761e-19
4.608e-19
1.935e-18
5.268e-18
1.129e-17
2.184e-17
3.963e-17
6.855e-17
1.139e-16
1.829e-16
2.846e-16
4.303e-16
6.339e-16
9.119e-16
1.284e-15
1.771e-15
2.4e-15
3.2e-15
4.204e-15
5.45e-15
6.984e-15
8.855e-15
1.112e-14
1.386e-14
1.715e-14
2.107e-14
2.575e-14
3.131e-14
3.789e-14
4.567e-14
5.484e-14
6.564e-14
7.832e-14
9.318e-14
1.106e-13
1.308e-13
1.545e-13
1.82e-13
2.139e-13
2.508e-13
2.935e-13
3.428e-13
3.995e-13
4.648e-13
5.396e-13
6.253e-13
7.233e-13
8.351e-13
9.625e-13
1.107e-12
1.272e-12
1.458e-12
1.669e-12
1.907e-12
2.175e-12
2.477e-12
2.816e-12
3.197e-12
3.623e-12
4.1e-12
4.631e-12
5.222e-12
5.879e-12
6.616e-12
7.546e-12
1.335e-65
-1.153e-64
5.009e-64
-1.433e-63
2.843e-63
-4.026e-63
4.064e-63
-2.77e-63
1.118e-63
5.41e-63
-4.275e-62
6.386e-61
-9.395e-60
1.288e-58
-1.655e-57
2.002e-56
-2.297e-55
2.517e-54
-2.649e-53
2.69e-52
-2.642e-51
2.514e-50
-2.316e-49
2.061e-48
-1.763e-47
1.444e-46
-1.109e-45
8.158e-45
-5.83e-44
3.995e-43
-2.575e-42
1.51e-41
-7.315e-41
2.64e-40
8.274e-40
-2.802e-38
3.536e-37
-3.392e-36
2.871e-35
-2.289e-34
1.619e-33
-1.075e-32
6.712e-32
-3.931e-31
2.131e-30
-1.079e-29
5.114e-29
-2.253e-28
9.243e-28
-3.356e-27
1.109e-26
-1.958e-26
2.305e-26
1.456e-24
-9.293e-25
4.889e-23
4.017e-23
1.347e-21
5.553e-21
3.8e-20
1.377e-19
4.34e-19
1.867e-18
5.499e-18
1.285e-17
2.709e-17
5.341e-17
9.965e-17
1.772e-16
3.015e-16
4.931e-16
7.77e-16
1.183e-15
1.746e-15
2.503e-15
3.494e-15
4.761e-15
6.348e-15
8.299e-15
1.066e-14
1.348e-14
1.682e-14
2.072e-14
2.528e-14
3.055e-14
3.665e-14
4.368e-14
5.178e-14
6.11e-14
7.182e-14
8.417e-14
9.838e-14
1.148e-13
1.336e-13
1.553e-13
1.803e-13
2.091e-13
2.422e-13
2.803e-13
3.241e-13
3.743e-13
4.32e-13
4.982e-13
5.739e-13
6.605e-13
7.594e-13
8.722e-13
1.001e-12
1.147e-12
1.313e-12
1.501e-12
1.715e-12
1.956e-12
2.228e-12
2.535e-12
2.881e-12
3.27e-12
3.706e-12
4.195e-12
4.741e-12
5.352e-12
6.032e-12
6.79e-12
7.631e-12
8.564e-12
9.596e-12
1.075e-11
1.232e-11
-1.754e-64
1.599e-63
-8.058e-63
2.836e-62
-7.246e-62
1.382e-61
-1.982e-61
2.083e-61
-1.466e-61
3.169e-61
-1.967e-60
2.881e-59
-4.148e-58
5.55e-57
-6.94e-56
8.171e-55
-9.13e-54
9.756e-53
-1.003e-51
9.98e-51
-9.63e-50
9.026e-49
-8.215e-48
7.247e-47
-6.171e-46
5.052e-45
-3.907e-44
2.918e-43
-2.127e-42
1.498e-41
-1.006e-40
6.328e-40
-3.525e-39
2.052e-38
-4.395e-38
-2.972e-37
7.337e-36
-8.306e-35
7.339e-34
-6.27e-33
4.503e-32
-3.017e-31
1.925e-30
-1.152e-29
6.305e-29
-3.213e-28
1.544e-27
-6.936e-27
2.963e-26
-1.134e-25
4.394e-25
-1.066e-24
4.734e-24
3.53e-23
1.125e-22
1.23e-21
7.404e-21
6.208e-20
2.808e-19
1.381e-18
4.658e-18
1.25e-17
3.014e-17
6.744e-17
1.415e-16
2.8e-16
5.245e-16
9.338e-16
1.585e-15
2.572e-15
4.003e-15
5.996e-15
8.665e-15
1.212e-14
1.645e-14
2.173e-14
2.802e-14
3.534e-14
4.371e-14
5.315e-14
6.368e-14
7.533e-14
8.817e-14
1.023e-13
1.178e-13
1.348e-13
1.537e-13
1.745e-13
1.977e-13
2.235e-13
2.525e-13
2.85e-13
3.217e-13
3.631e-13
4.1e-13
4.631e-13
5.235e-13
5.92e-13
6.699e-13
7.585e-13
8.592e-13
9.737e-13
1.104e-12
1.252e-12
1.419e-12
1.609e-12
1.824e-12
2.068e-12
2.343e-12
2.654e-12
3.005e-12
3.4e-12
3.844e-12
4.343e-12
4.903e-12
5.53e-12
6.232e-12
7.016e-12
7.891e-12
8.865e-12
9.948e-12
1.115e-11
1.248e-11
1.396e-11
1.558e-11
1.737e-11
1.936e-11
2.218e-11
2.187e-63
-2.068e-62
1.161e-61
-4.781e-61
1.485e-60
-3.561e-60
6.631e-60
-9.374e-60
9.269e-60
9.025e-60
-8.935e-59
1.222e-57
-1.693e-56
2.179e-55
-2.617e-54
2.959e-53
-3.183e-52
3.284e-51
-3.272e-50
3.166e-49
-2.983e-48
2.741e-47
-2.457e-46
2.144e-45
-1.816e-44
1.487e-43
-1.161e-42
8.83e-42
-6.581e-41
4.774e-40
-3.344e-39
2.235e-38
-1.402e-37
7.985e-37
-3.914e-36
1.24e-35
2.521e-35
-9.189e-34
1.22e-32
-1.268e-31
9.708e-31
-6.49e-30
4.359e-29
-2.736e-28
1.518e-27
-7.762e-27
3.783e-26
-1.726e-25
7.661e-25
-2.908e-24
1.249e-23
-1.285e-23
2.401e-22
1.437e-21
9.157e-21
7.058e-20
4.037e-19
2.203e-18
8.148e-18
2.43e-17
6.507e-17
1.61e-16
3.712e-16
8.01e-16
1.623e-15
3.095e-15
5.573e-15
9.509e-15
1.542e-14
2.385e-14
3.531e-14
5.018e-14
6.872e-14
9.097e-14
1.168e-13
1.458e-13
1.776e-13
2.116e-13
2.474e-13
2.845e-13
3.227e-13
3.618e-13
4.02e-13
4.434e-13
4.864e-13
5.314e-13
5.791e-13
6.301e-13
6.853e-13
7.455e-13
8.117e-13
8.851e-13
9.667e-13
1.058e-12
1.161e-12
1.276e-12
1.406e-12
1.553e-12
1.718e-12
1.905e-12
2.117e-12
2.356e-12
2.625e-12
2.93e-12
3.273e-12
3.661e-12
4.097e-12
4.588e-12
5.14e-12
5.761e-12
6.456e-12
7.236e-12
8.11e-12
9.086e-12
1.018e-11
1.139e-11
1.275e-11
1.426e-11
1.593e-11
1.779e-11
1.984e-11
2.211e-11
2.462e-11
2.738e-11
3.041e-11
3.375e-11
3.739e-11
4.277e-11
-2.623e-62
2.541e-61
-1.548e-60
7.218e-60
-2.627e-59
7.599e-59
-1.756e-58
3.193e-58
-4.302e-58
7.422e-58
-3.334e-57
4.688e-56
-6.234e-55
7.577e-54
-8.578e-53
9.166e-52
-9.352e-51
9.203e-50
-8.797e-49
8.211e-48
-7.506e-47
6.73e-46
-5.919e-45
5.1e-44
-4.293e-43
3.519e-42
-2.781e-41
2.159e-40
-1.648e-39
1.233e-38
-8.98e-38
6.332e-37
-4.287e-36
2.755e-35
-1.652e-34
8.975e-34
-4.125e-33
1.211e-32
2.622e-32
-8.485e-31
9.161e-30
-8.386e-29
6.792e-28
-4.839e-27
2.804e-26
-1.444e-25
7.207e-25
-3.394e-24
1.635e-23
-5.536e-23
2.609e-22
6.664e-22
9.005e-21
6.598e-20
4.542e-19
2.817e-18
1.174e-17
3.984e-17
1.215e-16
3.41e-16
8.863e-16
2.14e-15
4.808e-15
1.008e-14
1.974e-14
3.626e-14
6.267e-14
1.023e-13
1.582e-13
2.327e-13
3.268e-13
4.401e-13
5.702e-13
7.132e-13
8.646e-13
1.019e-12
1.171e-12
1.317e-12
1.455e-12
1.582e-12
1.698e-12
1.806e-12
1.905e-12
1.999e-12
2.09e-12
2.18e-12
2.273e-12
2.372e-12
2.478e-12
2.595e-12
2.726e-12
2.872e-12
3.038e-12
3.226e-12
3.44e-12
3.682e-12
3.957e-12
4.269e-12
4.623e-12
5.022e-12
5.473e-12
5.983e-12
6.557e-12
7.204e-12
7.932e-12
8.75e-12
9.668e-12
1.07e-11
1.185e-11
1.314e-11
1.458e-11
1.619e-11
1.798e-11
1.998e-11
2.22e-11
2.467e-11
2.741e-11
3.044e-11
3.38e-11
3.75e-11
4.159e-11
4.609e-11
5.104e-11
5.646e-11
6.24e-11
6.89e-11
7.594e-11
8.657e-11
3.035e-61
-2.989e-60
1.94e-59
-1.001e-58
4.158e-58
-1.412e-57
3.936e-57
-8.833e-57
1.486e-56
3.894e-57
-1.341e-55
1.684e-54
-1.999e-53
2.222e-52
-2.31e-51
2.282e-50
-2.17e-49
2.009e-48
-1.823e-47
1.627e-46
-1.433e-45
1.248e-44
-1.073e-43
9.105e-43
-7.612e-42
6.248e-41
-5.017e-40
3.982e-39
-3.121e-38
2.409e-37
-1.822e-36
1.347e-35
-9.681e-35
6.735e-34
-4.507e-33
2.888e-32
-1.731e-31
9.603e-31
-4.78e-30
2.002e-29
-5.491e-29
-8.071e-29
2.775e-27
-2.734e-26
1.899e-25
-1.26e-24
8.483e-24
-4.694e-23
2.998e-22
-6.858e-22
4.609e-21
4.183e-20
3.687e-19
2.682e-18
1.287e-17
5.076e-17
1.802e-16
5.874e-16
1.764e-15
4.885e-15
1.249e-14
2.954e-14
6.468e-14
1.314e-13
2.485e-13
4.386e-13
7.255e-13
1.13e-12
1.662e-12
2.32e-12
3.086e-12
3.931e-12
4.809e-12
5.678e-12
6.492e-12
7.208e-12
7.82e-12
8.296e-12
8.65e-12
8.898e-12
9.053e-12
9.136e-12
9.161e-12
9.151e-12
9.13e-12
9.106e-12
9.097e-12
9.112e-12
9.156e-12
9.241e-12
9.373e-12
9.556e-12
9.8e-12
1.011e-11
1.049e-11
1.094e-11
1.148e-11
1.211e-11
1.284e-11
1.367e-11
1.463e-11
1.571e-11
1.695e-11
1.834e-11
1.99e-11
2.166e-11
2.364e-11
2.585e-11
2.832e-11
3.108e-11
3.415e-11
3.757e-11
4.137e-11
4.559e-11
5.026e-11
5.543e-11
6.115e-11
6.746e-11
7.441e-11
8.207e-11
9.048e-11
9.97e-11
1.098e-10
1.208e-10
1.329e-10
1.46e-10
1.601e-10
1.818e-10
-3.376e-60
3.361e-59
-2.293e-58
1.286e-57
-5.993e-57
2.346e-56
-7.749e-56
2.144e-55
-4.868e-55
1.075e-54
-4.17e-54
4.575e-53
-5.053e-52
4.995e-51
-4.593e-50
4.076e-49
-3.546e-48
3.046e-47
-2.596e-46
2.199e-45
-1.854e-44
1.557e-43
-1.302e-42
1.085e-41
-8.985e-41
7.376e-40
-6.052e-39
4.937e-38
-3.989e-37
3.191e-36
-2.517e-35
1.95e-34
-1.48e-33
1.099e-32
-7.941e-32
5.594e-31
-3.737e-30
2.399e-29
-1.455e-28
8.306e-28
-4.489e-27
2.267e-26
-1.041e-25
4.477e-25
-1.54e-24
2.587e-24
1.272e-23
-1.423e-22
2.661e-21
2.086e-21
1.791e-19
1.74e-18
9.948e-18
4.664e-17
1.967e-16
7.595e-16
2.691e-15
8.748e-15
2.609e-14
7.144e-14
1.796e-13
4.152e-13
8.839e-13
1.737e-12
3.159e-12
5.343e-12
8.437e-12
1.25e-11
1.744e-11
2.306e-11
2.899e-11
3.487e-11
4.022e-11
4.479e-11
4.82e-11
5.036e-11
5.166e-11
5.152e-11
5.085e-11
4.959e-11
4.788e-11
4.591e-11
4.383e-11
4.177e-11
3.982e-11
3.803e-11
3.645e-11
3.509e-11
3.398e-11
3.312e-11
3.25e-11
3.21e-11
3.2e-11
3.212e-11
3.245e-11
3.304e-11
3.388e-11
3.498e-11
3.634e-11
3.799e-11
3.993e-11
4.219e-11
4.48e-11
4.777e-11
5.115e-11
5.497e-11
5.926e-11
6.407e-11
6.945e-11
7.545e-11
8.213e-11
8.955e-11
9.777e-11
1.069e-10
1.169e-10
1.28e-10
1.403e-10
1.537e-10
1.685e-10
1.847e-10
2.024e-10
2.219e-10
2.43e-10
2.661e-10
2.912e-10
3.185e-10
3.474e-10
3.926e-10
3.573e-59
-3.578e-58
2.541e-57
-1.531e-56
7.881e-56
-3.5e-55
1.347e-54
-4.428e-54
1.167e-53
-1.095e-53
-9.054e-53
1.085e-51
-9.038e-51
6.923e-50
-5.25e-49
4.086e-48
-3.24e-47
2.59e-46
-2.075e-45
1.659e-44
-1.325e-43
1.056e-42
-8.434e-42
6.757e-41
-5.447e-40
4.412e-39
-3.593e-38
2.922e-37
-2.371e-36
1.926e-35
-1.553e-34
1.23e-33
-9.574e-33
7.305e-32
-5.447e-31
3.962e-30
-2.784e-29
1.919e-28
-1.272e-27
8.241e-27
-5.146e-26
3.091e-25
-1.782e-24
9.824e-24
-5.201e-23
2.621e-22
-1.189e-21
7.264e-21
3.437e-20
4.938e-19
4.684e-18
2.87e-17
1.475e-16
6.857e-16
2.916e-15
1.134e-14
4.031e-14
1.308e-13
3.872e-13
1.046e-12
2.58e-12
5.817e-12
1.201e-11
2.275e-11
3.969e-11
6.409e-11
9.629e-11
1.353e-10
1.787e-10
2.232e-10
2.648e-10
3.004e-10
3.257e-10
3.423e-10
3.445e-10
3.399e-10
3.286e-10
3.118e-10
2.914e-10
2.692e-10
2.468e-10
2.252e-10
2.05e-10
1.867e-10
1.704e-10
1.562e-10
1.44e-10
1.337e-10
1.25e-10
1.179e-10
1.122e-10
1.077e-10
1.043e-10
1.02e-10
1.006e-10
1.003e-10
1.007e-10
1.019e-10
1.038e-10
1.067e-10
1.103e-10
1.147e-10
1.201e-10
1.263e-10
1.335e-10
1.417e-10
1.511e-10
1.616e-10
1.734e-10
1.866e-10
2.013e-10
2.175e-10
2.356e-10
2.555e-10
2.775e-10
3.017e-10
3.284e-10
3.576e-10
3.895e-10
4.245e-10
4.627e-10
5.043e-10
5.496e-10
5.988e-10
6.521e-10
7.099e-10
7.707e-10
8.666e-10
-3.538e-58
3.549e-57
-2.603e-56
1.666e-55
-9.366e-55
4.671e-54
-2.087e-53
8.416e-53
-3.072e-52
1.012e-51
-2.984e-51
7.963e-51
-2.603e-50
1.525e-49
-1.492e-48
1.544e-47
-1.454e-46
1.271e-45
-1.037e-44
7.979e-44
-5.822e-43
4.031e-42
-2.637e-41
1.623e-40
-9.114e-40
4.438e-39
-2.148e-38
4.447e-38
1.715e-37
-3.131e-36
2.92e-35
-2.421e-34
1.605e-33
-5.946e-33
-1.275e-32
5.862e-31
-8.428e-30
8.847e-29
-8.235e-28
6.851e-27
-5.286e-26
3.855e-25
-2.635e-24
1.704e-23
-1.046e-22
6.78e-22
-2.042e-21
1.247e-19
1.581e-18
1.168e-17
7.24e-17
4.076e-16
2.102e-15
9.913e-15
4.267e-14
1.672e-13
5.956e-13
1.926e-12
5.65e-12
1.503e-11
3.628e-11
7.956e-11
1.587e-10
2.89e-10
4.817e-10
7.401e-10
1.054e-09
1.401e-09
1.748e-09
2.057e-09
2.299e-09
2.457e-09
2.491e-09
2.45e-09
2.346e-09
2.19e-09
2e-09
1.795e-09
1.59e-09
1.396e-09
1.218e-09
1.06e-09
9.232e-10
8.057e-10
7.064e-10
6.233e-10
5.542e-10
4.972e-10
4.503e-10
4.121e-10
3.811e-10
3.563e-10
3.367e-10
3.216e-10
3.104e-10
3.026e-10
2.978e-10
2.961e-10
2.97e-10
3.002e-10
3.057e-10
3.135e-10
3.237e-10
3.363e-10
3.512e-10
3.687e-10
3.889e-10
4.118e-10
4.377e-10
4.668e-10
4.992e-10
5.353e-10
5.752e-10
6.194e-10
6.68e-10
7.214e-10
7.8e-10
8.442e-10
9.144e-10
9.909e-10
1.074e-09
1.165e-09
1.263e-09
1.369e-09
1.484e-09
1.609e-09
1.738e-09
1.945e-09
3.192e-57
-3.198e-56
2.404e-55
-1.617e-54
9.772e-54
-5.35e-53
2.678e-52
-1.235e-51
5.264e-51
-2.067e-50
7.276e-50
-2.082e-49
2.302e-50
4.325e-48
-5.135e-47
4.784e-46
-3.972e-45
3.168e-44
-2.416e-43
1.779e-42
-1.267e-41
8.753e-41
-5.851e-40
3.83e-39
-2.395e-38
1.447e-37
-8.618e-37
4.896e-36
-2.567e-35
1.147e-34
-2.749e-34
-1.87e-33
4.042e-32
-4.731e-31
4.567e-30
-3.971e-29
3.213e-28
-2.456e-27
1.788e-26
-1.243e-25
8.307e-25
-5.272e-24
3.265e-23
-1.899e-22
1.15e-21
-4.104e-21
1.947e-19
2.7e-18
2.195e-17
1.517e-16
9.549e-16
5.503e-15
2.898e-14
1.39e-13
6.052e-13
2.387e-12
8.508e-12
2.737e-11
7.938e-11
2.075e-10
4.889e-10
1.039e-09
1.997e-09
3.479e-09
5.517e-09
8.033e-09
1.081e-08
1.355e-08
1.594e-08
1.762e-08
1.857e-08
1.839e-08
1.769e-08
1.647e-08
1.489e-08
1.314e-08
1.136e-08
9.674e-09
8.149e-09
6.816e-09
5.681e-09
4.733e-09
3.953e-09
3.318e-09
2.803e-09
2.389e-09
2.056e-09
1.788e-09
1.574e-09
1.402e-09
1.264e-09
1.154e-09
1.066e-09
9.972e-10
9.437e-10
9.033e-10
8.738e-10
8.546e-10
8.418e-10
8.411e-10
8.451e-10
8.556e-10
8.726e-10
8.961e-10
9.259e-10
9.622e-10
1.005e-09
1.054e-09
1.111e-09
1.175e-09
1.247e-09
1.327e-09
1.416e-09
1.514e-09
1.622e-09
1.741e-09
1.871e-09
2.013e-09
2.168e-09
2.337e-09
2.521e-09
2.72e-09
2.935e-09
3.167e-09
3.418e-09
3.689e-09
3.969e-09
4.417e-09
-2.574e-56
2.567e-55
-1.966e-54
1.378e-53
-8.864e-53
5.269e-52
-2.92e-51
1.522e-50
-7.542e-50
3.596e-49
-1.681e-48
7.939e-48
-3.966e-47
2.187e-46
-1.379e-45
9.235e-45
-6.466e-44
4.781e-43
-3.467e-42
2.454e-41
-1.692e-40
1.138e-39
-7.434e-39
4.998e-38
-3.195e-37
2.097e-36
-1.434e-35
1.01e-34
-7.264e-34
5.302e-33
-3.895e-32
2.857e-31
-2.081e-30
1.497e-29
-1.059e-28
7.35e-28
-4.988e-27
3.304e-26
-2.131e-25
1.338e-24
-8.115e-24
4.87e-23
-2.712e-22
1.6e-21
-6.188e-21
2.496e-19
3.812e-18
3.421e-17
2.637e-16
1.858e-15
1.2e-14
7.085e-14
3.805e-13
1.853e-12
8.149e-12
3.229e-11
1.15e-10
3.672e-10
1.05e-09
2.69e-09
6.166e-09
1.266e-08
2.332e-08
3.869e-08
5.812e-08
7.986e-08
1.012e-07
1.195e-07
1.321e-07
1.366e-07
1.338e-07
1.264e-07
1.149e-07
1.01e-07
8.637e-08
7.221e-08
5.931e-08
4.81e-08
3.866e-08
3.094e-08
2.472e-08
1.98e-08
1.593e-08
1.291e-08
1.055e-08
8.717e-09
7.288e-09
6.17e-09
5.294e-09
4.604e-09
4.06e-09
3.63e-09
3.29e-09
3.022e-09
2.811e-09
2.648e-09
2.523e-09
2.432e-09
2.368e-09
2.329e-09
2.312e-09
2.318e-09
2.34e-09
2.378e-09
2.434e-09
2.506e-09
2.595e-09
2.7e-09
2.823e-09
2.963e-09
3.121e-09
3.299e-09
3.497e-09
3.716e-09
3.957e-09
4.222e-09
4.512e-09
4.829e-09
5.174e-09
5.549e-09
5.956e-09
6.396e-09
6.871e-09
7.383e-09
7.933e-09
8.526e-09
9.136e-09
1.012e-08
1.772e-55
-1.754e-54
1.361e-53
-9.864e-53
6.676e-52
-4.243e-51
2.548e-50
-1.453e-49
7.899e-49
-4.092e-48
2.004e-47
-9.071e-47
3.527e-46
-9.595e-46
-2.714e-45
5.899e-44
-5.849e-43
4.973e-42
-3.794e-41
2.676e-40
-1.769e-39
1.1e-38
-6.157e-38
3.923e-37
-1.61e-36
3.227e-36
1.609e-35
-3.442e-34
3.789e-33
-3.451e-32
2.856e-31
-2.223e-30
1.655e-29
-1.189e-28
8.273e-28
-5.594e-27
3.68e-26
-2.357e-25
1.47e-24
-8.906e-24
5.305e-23
-2.908e-22
1.771e-21
-7.1e-21
2.596e-19
4.365e-18
4.323e-17
3.718e-16
2.934e-15
2.128e-14
1.411e-13
8.519e-13
4.658e-12
2.298e-11
1.019e-10
4.044e-10
1.434e-09
4.535e-09
1.275e-08
3.188e-08
7.08e-08
1.397e-07
2.456e-07
3.859e-07
5.464e-07
7.057e-07
8.412e-07
9.375e-07
9.571e-07
9.307e-07
8.665e-07
7.731e-07
6.646e-07
5.537e-07
4.497e-07
3.58e-07
2.807e-07
2.177e-07
1.679e-07
1.291e-07
9.942e-08
7.688e-08
5.986e-08
4.704e-08
3.738e-08
3.007e-08
2.452e-08
2.029e-08
1.704e-08
1.452e-08
1.257e-08
1.104e-08
9.843e-09
8.902e-09
8.163e-09
7.585e-09
7.137e-09
6.796e-09
6.545e-09
6.368e-09
6.258e-09
6.199e-09
6.211e-09
6.26e-09
6.352e-09
6.489e-09
6.667e-09
6.887e-09
7.15e-09
7.454e-09
7.802e-09
8.195e-09
8.635e-09
9.123e-09
9.662e-09
1.025e-08
1.09e-08
1.161e-08
1.238e-08
1.322e-08
1.412e-08
1.51e-08
1.615e-08
1.728e-08
1.849e-08
1.98e-08
2.114e-08
2.329e-08
-9.975e-55
9.725e-54
-7.597e-53
5.655e-52
-4.003e-51
2.709e-50
-1.766e-49
1.12e-48
-6.989e-48
4.343e-47
-2.716e-46
1.728e-45
-1.133e-44
7.346e-44
-4.814e-43
3.173e-42
-2.128e-41
1.423e-40
-9.448e-40
6.225e-39
-4.067e-38
2.636e-37
-1.696e-36
1.087e-35
-6.932e-35
4.457e-34
-2.833e-33
1.801e-32
-1.147e-31
7.284e-31
-4.61e-30
2.903e-29
-1.816e-28
1.127e-27
-6.919e-27
4.2e-26
-2.516e-25
1.484e-24
-8.605e-24
4.914e-23
-2.683e-22
1.668e-21
-6.248e-21
2.16e-19
3.997e-18
4.364e-17
4.18e-16
3.69e-15
3.002e-14
2.238e-13
1.52e-12
9.359e-12
5.195e-11
2.588e-10
1.152e-09
4.567e-09
1.607e-08
5.006e-08
1.378e-07
3.344e-07
7.154e-07
1.349e-06
2.248e-06
3.33e-06
4.426e-06
5.361e-06
6.05e-06
6.176e-06
5.981e-06
5.521e-06
4.864e-06
4.113e-06
3.361e-06
2.669e-06
2.072e-06
1.58e-06
1.189e-06
8.881e-07
6.605e-07
4.912e-07
3.665e-07
2.752e-07
2.085e-07
1.597e-07
1.239e-07
9.753e-08
7.793e-08
6.327e-08
5.22e-08
4.377e-08
3.731e-08
3.232e-08
2.843e-08
2.54e-08
2.302e-08
2.115e-08
1.97e-08
1.858e-08
1.772e-08
1.709e-08
1.666e-08
1.638e-08
1.624e-08
1.628e-08
1.641e-08
1.664e-08
1.699e-08
1.744e-08
1.8e-08
1.865e-08
1.941e-08
2.028e-08
2.125e-08
2.234e-08
2.354e-08
2.487e-08
2.631e-08
2.789e-08
2.961e-08
3.148e-08
3.349e-08
3.566e-08
3.8e-08
4.05e-08
4.319e-08
4.607e-08
4.9e-08
5.375e-08
3.719e-54
-3.692e-53
2.918e-52
-2.195e-51
1.567e-50
-1.061e-49
6.778e-49
-4.062e-48
2.254e-47
-1.125e-46
4.782e-46
-6.323e-46
-1.184e-44
1.01e-43
-1.031e-42
8.912e-42
-6.872e-41
4.948e-40
-3.385e-39
2.219e-38
-1.399e-37
8.477e-37
-4.913e-36
2.699e-35
-1.329e-34
7.385e-34
-2.799e-33
5.372e-33
2.62e-32
-5.095e-31
5.209e-30
-4.407e-29
3.385e-28
-2.446e-27
1.69e-26
-1.127e-25
7.286e-25
-4.582e-24
2.812e-23
-1.668e-22
1.03e-21
-3.198e-21
1.408e-19
2.887e-18
3.476e-17
3.697e-16
3.64e-15
3.313e-14
2.772e-13
2.117e-12
1.468e-11
9.183e-11
5.152e-10
2.58e-09
1.147e-08
4.512e-08
1.565e-07
4.769e-07
1.274e-06
2.98e-06
6.09e-06
1.089e-05
1.713e-05
2.382e-05
2.965e-05
3.398e-05
3.524e-05
3.414e-05
3.145e-05
2.755e-05
2.31e-05
1.866e-05
1.461e-05
1.115e-05
8.337e-06
6.138e-06
4.472e-06
3.237e-06
2.339e-06
1.693e-06
1.231e-06
9.032e-07
6.695e-07
5.027e-07
3.829e-07
2.963e-07
2.33e-07
1.865e-07
1.518e-07
1.257e-07
1.059e-07
9.077e-08
7.906e-08
6.996e-08
6.285e-08
5.728e-08
5.292e-08
4.953e-08
4.691e-08
4.494e-08
4.35e-08
4.252e-08
4.192e-08
4.168e-08
4.181e-08
4.219e-08
4.283e-08
4.374e-08
4.49e-08
4.631e-08
4.796e-08
4.986e-08
5.202e-08
5.443e-08
5.71e-08
6.005e-08
6.329e-08
6.681e-08
7.065e-08
7.48e-08
7.928e-08
8.411e-08
8.929e-08
9.485e-08
1.008e-07
1.071e-07
1.136e-07
1.241e-07
-1.946e-53
1.728e-52
-1.308e-51
1.01e-50
-7.855e-50
6.098e-49
-4.685e-48
3.54e-47
-2.622e-46
1.901e-45
-1.349e-44
9.385e-44
-6.416e-43
4.311e-42
-2.857e-41
1.872e-40
-1.213e-39
7.786e-39
-4.958e-38
3.136e-37
-1.971e-36
1.232e-35
-7.655e-35
4.734e-34
-2.912e-33
1.782e-32
-1.084e-31
6.554e-31
-3.938e-30
2.35e-29
-1.393e-28
8.199e-28
-4.788e-27
2.773e-26
-1.591e-25
9.047e-25
-5.091e-24
2.835e-23
-1.553e-22
8.668e-22
-3.907e-21
5.109e-20
1.578e-18
2.16e-17
2.551e-16
2.789e-15
2.829e-14
2.646e-13
2.267e-12
1.768e-11
1.245e-10
7.871e-10
4.436e-09
2.216e-08
9.762e-08
3.775e-07
1.277e-06
3.765e-06
9.652e-06
2.149e-05
4.148e-05
6.985e-05
0.0001033
0.0001345
0.0001583
0.0001693
0.000165
0.0001529
0.0001345
0.0001129
9.11e-05
7.107e-05
5.39e-05
3.994e-05
2.906e-05
2.085e-05
1.483e-05
1.049e-05
7.419e-06
5.263e-06
3.759e-06
2.71e-06
1.978e-06
1.464e-06
1.1e-06
8.41e-07
6.543e-07
5.183e-07
4.18e-07
3.433e-07
2.87e-07
2.442e-07
2.112e-07
1.857e-07
1.658e-07
1.503e-07
1.381e-07
1.285e-07
1.211e-07
1.155e-07
1.112e-07
1.082e-07
1.063e-07
1.049e-07
1.05e-07
1.055e-07
1.066e-07
1.084e-07
1.108e-07
1.138e-07
1.174e-07
1.216e-07
1.263e-07
1.316e-07
1.376e-07
1.442e-07
1.514e-07
1.592e-07
1.677e-07
1.77e-07
1.869e-07
1.977e-07
2.092e-07
2.215e-07
2.346e-07
2.486e-07
2.628e-07
2.858e-07
-8.912e-53
8.645e-52
-6.865e-51
5.31e-50
-3.979e-49
2.891e-48
-2.04e-47
1.402e-46
-9.412e-46
6.196e-45
-4.013e-44
2.566e-43
-1.624e-42
1.021e-41
-6.382e-41
3.976e-40
-2.471e-39
1.534e-38
-9.521e-38
5.912e-37
-3.676e-36
2.291e-35
-1.432e-34
8.98e-34
-5.664e-33
3.554e-32
-2.221e-31
1.382e-30
-8.558e-30
5.276e-29
-3.236e-28
1.975e-27
-1.199e-26
7.237e-26
-4.341e-25
2.587e-24
-1.531e-23
9e-23
-5.179e-22
3.231e-21
-1.346e-20
4.417e-19
1.009e-17
1.366e-16
1.652e-15
1.857e-14
1.933e-13
1.851e-12
1.618e-11
1.281e-10
9.11e-10
5.779e-09
3.245e-08
1.602e-07
6.912e-07
2.593e-06
8.428e-06
2.364e-05
5.718e-05
0.0001192
0.0002147
0.0003386
0.0004695
0.0005761
0.0006482
0.0006399
0.0006027
0.0005381
0.0004578
0.0003736
0.0002943
0.0002248
0.0001674
0.0001219
8.728e-05
6.168e-05
4.322e-05
3.015e-05
2.104e-05
1.474e-05
1.041e-05
7.424e-06
5.365e-06
3.936e-06
2.936e-06
2.229e-06
1.723e-06
1.357e-06
1.089e-06
8.906e-07
7.414e-07
6.283e-07
5.416e-07
4.745e-07
4.224e-07
3.815e-07
3.495e-07
3.243e-07
3.047e-07
2.895e-07
2.781e-07
2.697e-07
2.639e-07
2.603e-07
2.588e-07
2.594e-07
2.615e-07
2.65e-07
2.7e-07
2.764e-07
2.842e-07
2.933e-07
3.038e-07
3.156e-07
3.288e-07
3.434e-07
3.594e-07
3.768e-07
3.958e-07
4.163e-07
4.384e-07
4.621e-07
4.876e-07
5.147e-07
5.436e-07
5.745e-07
6.055e-07
6.561e-07
1.686e-52
-1.647e-51
1.314e-50
-1.019e-49
7.641e-49
-5.548e-48
3.902e-47
-2.662e-46
1.765e-45
-1.14e-44
7.194e-44
-4.449e-43
2.707e-42
-1.628e-41
9.727e-41
-5.801e-40
3.474e-39
-2.099e-38
1.284e-37
-7.982e-37
5.043e-36
-3.235e-35
2.104e-34
-1.382e-33
9.157e-33
-6.005e-32
3.89e-31
-2.493e-30
1.583e-29
-9.968e-29
6.23e-28
-3.867e-27
2.385e-26
-1.463e-25
8.923e-25
-5.415e-24
3.272e-23
-1.957e-22
1.228e-21
-4.356e-21
1.585e-19
3.907e-18
5.725e-17
7.575e-16
9.372e-15
1.079e-13
1.149e-12
1.121e-11
9.941e-11
7.945e-10
5.67e-09
3.581e-08
1.984e-07
9.566e-07
3.985e-06
1.427e-05
4.371e-05
0.0001143
0.0002554
0.0004894
0.0008172
0.001203
0.001564
0.001842
0.001912
0.001843
0.001685
0.001468
0.001228
0.0009908
0.0007748
0.000589
0.0004367
0.0003169
0.0002259
0.0001589
0.0001108
7.689e-05
5.338e-05
3.721e-05
2.615e-05
1.858e-05
1.338e-05
9.785e-06
7.281e-06
5.516e-06
4.258e-06
3.35e-06
2.686e-06
2.194e-06
1.826e-06
1.546e-06
1.332e-06
1.167e-06
1.038e-06
9.369e-07
8.575e-07
7.95e-07
7.461e-07
7.081e-07
6.791e-07
6.576e-07
6.423e-07
6.329e-07
6.27e-07
6.278e-07
6.315e-07
6.385e-07
6.49e-07
6.628e-07
6.797e-07
6.998e-07
7.229e-07
7.49e-07
7.782e-07
8.106e-07
8.461e-07
8.848e-07
9.268e-07
9.722e-07
1.021e-06
1.073e-06
1.129e-06
1.189e-06
1.253e-06
1.32e-06
1.388e-06
1.498e-06
-5.384e-52
4.893e-51
-3.737e-50
2.867e-49
-2.187e-48
1.653e-47
-1.235e-46
9.086e-46
-6.578e-45
4.681e-44
-3.272e-43
2.247e-42
-1.516e-41
1.006e-40
-6.575e-40
4.233e-39
-2.688e-38
1.685e-37
-1.044e-36
6.406e-36
-3.891e-35
2.343e-34
-1.4e-33
8.302e-33
-4.891e-32
2.861e-31
-1.667e-30
9.672e-30
-5.594e-29
3.227e-28
-1.858e-27
1.068e-26
-6.128e-26
3.515e-25
-2.015e-24
1.156e-23
-6.616e-23
3.875e-22
-1.77e-21
3.46e-20
1.147e-18
1.87e-17
2.702e-16
3.655e-15
4.626e-14
5.438e-13
5.893e-12
5.833e-11
5.224e-10
4.19e-09
2.979e-08
1.857e-07
1.005e-06
4.67e-06
1.849e-05
6.198e-05
0.0001753
0.0004181
0.0008469
0.001473
0.002295
0.003121
0.003856
0.004334
0.004261
0.003994
0.003578
0.003096
0.002598
0.002114
0.001671
0.001284
0.000962
0.0007043
0.0005058
0.0003578
0.0002506
0.0001745
0.0001214
8.485e-05
5.974e-05
4.253e-05
3.07e-05
2.252e-05
1.68e-05
1.277e-05
9.884e-06
7.8e-06
6.273e-06
5.14e-06
4.289e-06
3.643e-06
3.146e-06
2.762e-06
2.462e-06
2.226e-06
2.04e-06
1.893e-06
1.778e-06
1.688e-06
1.62e-06
1.568e-06
1.531e-06
1.508e-06
1.492e-06
1.493e-06
1.5e-06
1.515e-06
1.538e-06
1.568e-06
1.605e-06
1.649e-06
1.7e-06
1.758e-06
1.823e-06
1.895e-06
1.973e-06
2.059e-06
2.152e-06
2.252e-06
2.359e-06
2.474e-06
2.597e-06
2.727e-06
2.865e-06
3.012e-06
3.158e-06
3.396e-06
-1.586e-51
1.487e-50
-1.162e-49
9.031e-49
-6.927e-48
5.229e-47
-3.878e-46
2.822e-45
-2.014e-44
1.41e-43
-9.687e-43
6.534e-42
-4.332e-41
2.826e-40
-1.817e-39
1.153e-38
-7.225e-38
4.48e-37
-2.752e-36
1.677e-35
-1.014e-34
6.098e-34
-3.647e-33
2.171e-32
-1.288e-31
7.617e-31
-4.488e-30
2.637e-29
-1.546e-28
9.053e-28
-5.298e-27
3.102e-26
-1.818e-25
1.068e-24
-6.287e-24
3.717e-23
-2.201e-22
1.355e-21
-5.989e-21
1.338e-19
4.553e-18
7.537e-17
1.111e-15
1.534e-14
1.979e-13
2.367e-12
2.601e-11
2.601e-10
2.341e-09
1.875e-08
1.319e-07
8.051e-07
4.209e-06
1.862e-05
6.896e-05
0.0002125
0.0005441
0.001163
0.002107
0.003331
0.004976
0.006136
0.007421
0.008836
0.008215
0.006871
0.005947
0.005222
0.004502
0.003746
0.003028
0.002379
0.001818
0.001356
0.0009897
0.0007101
0.0005033
0.0003543
0.0002489
0.0001755
0.0001246
8.942e-05
6.506e-05
4.808e-05
3.615e-05
2.768e-05
2.159e-05
1.716e-05
1.39e-05
1.146e-05
9.626e-06
8.223e-06
7.14e-06
6.298e-06
5.638e-06
5.118e-06
4.707e-06
4.382e-06
4.126e-06
3.926e-06
3.773e-06
3.658e-06
3.576e-06
3.524e-06
3.488e-06
3.491e-06
3.506e-06
3.539e-06
3.59e-06
3.657e-06
3.74e-06
3.839e-06
3.952e-06
4.081e-06
4.224e-06
4.383e-06
4.556e-06
4.744e-06
4.948e-06
5.167e-06
5.401e-06
5.651e-06
5.916e-06
6.198e-06
6.494e-06
6.809e-06
7.12e-06
7.624e-06
-2.202e-51
2.158e-50
-1.744e-49
1.384e-48
-1.07e-47
8.075e-47
-5.937e-46
4.259e-45
-2.982e-44
2.043e-43
-1.371e-42
9.029e-42
-5.853e-41
3.741e-40
-2.364e-39
1.479e-38
-9.191e-38
5.679e-37
-3.496e-36
2.147e-35
-1.318e-34
8.088e-34
-4.971e-33
3.063e-32
-1.888e-31
1.161e-30
-7.112e-30
4.345e-29
-2.65e-28
1.616e-27
-9.858e-27
6.025e-26
-3.692e-25
2.272e-24
-1.405e-23
8.755e-23
-5.462e-22
3.648e-21
-1.292e-20
5.801e-19
1.616e-17
2.659e-16
3.982e-15
5.594e-14
7.332e-13
8.891e-12
9.877e-11
9.942e-10
8.958e-09
7.129e-08
4.937e-07
2.93e-06
1.467e-05
6.103e-05
0.0002085
0.0005817
0.001328
0.00252
0.004085
0.006044
0.009092
0.01044
0.009949
0.01042
0.01018
0.01018
0.0104
0.00934
0.00711
0.005821
0.004813
0.003872
0.003028
0.002307
0.001719
0.001257
0.0009069
0.0006488
0.0004629
0.000331
0.0002383
0.0001733
0.0001278
9.565e-05
7.281e-05
5.642e-05
4.452e-05
3.578e-05
2.929e-05
2.44e-05
2.068e-05
1.782e-05
1.56e-05
1.386e-05
1.249e-05
1.141e-05
1.055e-05
9.867e-06