/*--------------------------------*- C++ -*----------------------------------*\
  =========                 |
  \\      /  F ield         | OpenFOAM: The Open Source CFD Toolbox
   \\    /   O peration     | Website:  https://openfoam.org
    \\  /    A nd           | Version:  7
     \\/     M anipulation  |
\*---------------------------------------------------------------------------*/
FoamFile
{
    version     2.0;
    format      ascii;
    class       volScalarField;
    location    "1499.99947342098903";
    object      p;
}
// * * * * * * * * * * * * * * * * * * * * * * * * * * * * * * * * * * * * * //

dimensions      [0 2 -2 0 0 0 0];

internalField   nonuniform List<scalar> 
4096
(
0.0005983
0.0004274
0.0003431
0.0003009
0.0002776
0.0002637
0.0002548
0.0002487
0.0002443
0.000241
0.0002385
0.0002365
0.0002348
0.0002334
0.0002323
0.0002313
0.0002304
0.0002296
0.0002289
0.0002282
0.0002276
0.000227
0.0002265
0.000226
0.0002255
0.000225
0.0002245
0.000224
0.0002235
0.0002231
0.0002226
0.0002221
0.0002215
0.000221
0.0002204
0.0002198
0.0002191
0.0002184
0.0002176
0.0002168
0.0002158
0.0002147
0.0002135
0.0002122
0.0002107
0.0002089
0.000207
0.0002048
0.0002023
0.0001996
0.0001965
0.000193
0.0001892
0.000185
0.0001805
0.0001755
0.0001701
0.0001644
0.0001583
0.0001519
0.0001453
0.0001384
0.0001313
0.0001242
0.000117
0.0001099
0.0001029
9.601e-05
8.936e-05
8.297e-05
7.686e-05
7.108e-05
6.564e-05
6.055e-05
5.581e-05
5.144e-05
4.742e-05
4.374e-05
4.04e-05
3.736e-05
3.463e-05
3.217e-05
2.997e-05
2.799e-05
2.623e-05
2.466e-05
2.326e-05
2.2e-05
2.088e-05
1.987e-05
1.896e-05
1.813e-05
1.737e-05
1.668e-05
1.603e-05
1.542e-05
1.485e-05
1.431e-05
1.379e-05
1.328e-05
1.279e-05
1.231e-05
1.184e-05
1.137e-05
1.091e-05
1.045e-05
9.986e-06
9.525e-06
9.064e-06
8.601e-06
8.137e-06
7.67e-06
7.201e-06
6.73e-06
6.255e-06
5.777e-06
5.296e-06
4.812e-06
4.325e-06
3.834e-06
3.341e-06
2.846e-06
2.349e-06
1.854e-06
1.362e-06
8.811e-07
4.251e-07
7.502e-08
0.0004538
0.00039
0.0003403
0.0003082
0.0002873
0.000273
0.000263
0.0002556
0.0002501
0.0002459
0.0002426
0.0002399
0.0002377
0.0002359
0.0002344
0.0002331
0.0002319
0.0002309
0.0002299
0.0002291
0.0002283
0.0002276
0.0002269
0.0002263
0.0002256
0.000225
0.0002244
0.0002238
0.0002232
0.0002226
0.000222
0.0002214
0.0002208
0.0002201
0.0002194
0.0002187
0.0002179
0.0002171
0.0002161
0.0002151
0.000214
0.0002128
0.0002115
0.00021
0.0002083
0.0002065
0.0002044
0.0002022
0.0001996
0.0001968
0.0001937
0.0001902
0.0001864
0.0001823
0.0001778
0.000173
0.0001678
0.0001623
0.0001564
0.0001503
0.000144
0.0001374
0.0001307
0.0001239
0.0001171
0.0001103
0.0001037
9.712e-05
9.078e-05
8.466e-05
7.88e-05
7.323e-05
6.796e-05
6.301e-05
5.839e-05
5.409e-05
5.012e-05
4.646e-05
4.311e-05
4.005e-05
3.726e-05
3.474e-05
3.245e-05
3.038e-05
2.852e-05
2.684e-05
2.532e-05
2.395e-05
2.271e-05
2.158e-05
2.056e-05
1.962e-05
1.875e-05
1.795e-05
1.72e-05
1.65e-05
1.584e-05
1.521e-05
1.461e-05
1.403e-05
1.347e-05
1.293e-05
1.24e-05
1.188e-05
1.136e-05
1.086e-05
1.036e-05
9.857e-06
9.361e-06
8.868e-06
8.375e-06
7.883e-06
7.391e-06
6.899e-06
6.407e-06
5.913e-06
5.418e-06
4.922e-06
4.425e-06
3.926e-06
3.426e-06
2.926e-06
2.426e-06
1.929e-06
1.435e-06
9.512e-07
4.834e-07
9.916e-08
0.0003703
0.0003487
0.0003232
0.0003024
0.0002869
0.0002752
0.0002662
0.0002592
0.0002536
0.0002492
0.0002455
0.0002425
0.0002401
0.0002379
0.0002361
0.0002346
0.0002332
0.000232
0.0002309
0.0002299
0.000229
0.0002281
0.0002273
0.0002265
0.0002258
0.0002251
0.0002243
0.0002236
0.0002229
0.0002222
0.0002215
0.0002208
0.0002201
0.0002193
0.0002185
0.0002176
0.0002167
0.0002157
0.0002147
0.0002136
0.0002124
0.000211
0.0002096
0.000208
0.0002062
0.0002042
0.0002021
0.0001997
0.0001971
0.0001943
0.0001911
0.0001877
0.0001839
0.0001799
0.0001755
0.0001708
0.0001657
0.0001604
0.0001548
0.0001489
0.0001428
0.0001365
0.0001301
0.0001237
0.0001172
0.0001107
0.0001043
9.807e-05
9.199e-05
8.611e-05
8.048e-05
7.51e-05
7e-05
6.519e-05
6.068e-05
5.646e-05
5.254e-05
4.891e-05
4.556e-05
4.249e-05
3.967e-05
3.709e-05
3.474e-05
3.26e-05
3.065e-05
2.888e-05
2.726e-05
2.579e-05
2.445e-05
2.322e-05
2.209e-05
2.104e-05
2.008e-05
1.918e-05
1.834e-05
1.755e-05
1.681e-05
1.61e-05
1.542e-05
1.477e-05
1.415e-05
1.354e-05
1.296e-05
1.238e-05
1.182e-05
1.127e-05
1.073e-05
1.019e-05
9.663e-06
9.139e-06
8.618e-06
8.101e-06
7.587e-06
7.074e-06
6.563e-06
6.053e-06
5.544e-06
5.036e-06
4.528e-06
4.02e-06
3.512e-06
3.005e-06
2.5e-06
1.996e-06
1.495e-06
1.001e-06
5.14e-07
1.03e-07
0.0003256
0.0003185
0.0003052
0.000292
0.0002811
0.0002724
0.0002652
0.0002594
0.0002545
0.0002503
0.0002469
0.0002439
0.0002414
0.0002392
0.0002373
0.0002356
0.0002341
0.0002328
0.0002316
0.0002305
0.0002294
0.0002285
0.0002276
0.0002267
0.0002259
0.000225
0.0002242
0.0002235
0.0002227
0.0002219
0.0002211
0.0002202
0.0002194
0.0002185
0.0002176
0.0002167
0.0002157
0.0002146
0.0002134
0.0002122
0.0002109
0.0002095
0.0002079
0.0002062
0.0002044
0.0002024
0.0002002
0.0001978
0.0001951
0.0001922
0.0001891
0.0001857
0.000182
0.000178
0.0001737
0.0001691
0.0001642
0.000159
0.0001535
0.0001478
0.0001419
0.0001359
0.0001297
0.0001235
0.0001172
0.000111
0.0001048
9.877e-05
9.29e-05
8.723e-05
8.177e-05
7.656e-05
7.16e-05
6.691e-05
6.249e-05
5.835e-05
5.449e-05
5.089e-05
4.756e-05
4.449e-05
4.165e-05
3.904e-05
3.665e-05
3.446e-05
3.245e-05
3.061e-05
2.892e-05
2.737e-05
2.595e-05
2.464e-05
2.342e-05
2.23e-05
2.125e-05
2.027e-05
1.935e-05
1.849e-05
1.767e-05
1.69e-05
1.616e-05
1.545e-05
1.477e-05
1.411e-05
1.347e-05
1.285e-05
1.224e-05
1.165e-05
1.107e-05
1.05e-05
9.945e-06
9.392e-06
8.846e-06
8.306e-06
7.771e-06
7.239e-06
6.711e-06
6.186e-06
5.664e-06
5.144e-06
4.625e-06
4.107e-06
3.591e-06
3.076e-06
2.563e-06
2.05e-06
1.54e-06
1.033e-06
5.28e-07
9.984e-08
0.0002987
0.0002977
0.0002907
0.0002821
0.0002743
0.0002678
0.0002623
0.0002576
0.0002535
0.00025
0.0002469
0.0002442
0.0002419
0.0002397
0.0002379
0.0002362
0.0002347
0.0002333
0.000232
0.0002308
0.0002297
0.0002287
0.0002277
0.0002268
0.0002259
0.000225
0.0002241
0.0002233
0.0002224
0.0002215
0.0002206
0.0002197
0.0002188
0.0002179
0.0002169
0.0002158
0.0002148
0.0002136
0.0002124
0.0002111
0.0002097
0.0002082
0.0002066
0.0002048
0.0002029
0.0002008
0.0001986
0.0001961
0.0001935
0.0001906
0.0001875
0.0001841
0.0001804
0.0001765
0.0001722
0.0001677
0.0001629
0.0001579
0.0001525
0.000147
0.0001413
0.0001354
0.0001293
0.0001233
0.0001172
0.0001111
0.0001051
9.927e-05
9.357e-05
8.805e-05
8.274e-05
7.766e-05
7.282e-05
6.823e-05
6.39e-05
5.983e-05
5.602e-05
5.246e-05
4.915e-05
4.608e-05
4.325e-05
4.063e-05
3.821e-05
3.599e-05
3.394e-05
3.205e-05
3.031e-05
2.87e-05
2.721e-05
2.584e-05
2.456e-05
2.337e-05
2.226e-05
2.122e-05
2.023e-05
1.931e-05
1.843e-05
1.76e-05
1.68e-05
1.604e-05
1.531e-05
1.461e-05
1.392e-05
1.326e-05
1.262e-05
1.2e-05
1.138e-05
1.079e-05
1.02e-05
9.621e-06
9.053e-06
8.492e-06
7.938e-06
7.389e-06
6.846e-06
6.308e-06
5.773e-06
5.241e-06
4.713e-06
4.186e-06
3.661e-06
3.138e-06
2.616e-06
2.095e-06
1.575e-06
1.056e-06
5.365e-07
9.622e-08
0.0002813
0.0002828
0.0002795
0.0002738
0.0002681
0.0002631
0.0002587
0.000255
0.0002517
0.0002488
0.0002461
0.0002438
0.0002416
0.0002397
0.0002379
0.0002363
0.0002348
0.0002335
0.0002322
0.000231
0.0002299
0.0002288
0.0002278
0.0002268
0.0002259
0.0002249
0.000224
0.0002231
0.0002221
0.0002212
0.0002203
0.0002193
0.0002183
0.0002173
0.0002163
0.0002152
0.000214
0.0002128
0.0002115
0.0002101
0.0002087
0.0002071
0.0002055
0.0002037
0.0002017
0.0001996
0.0001973
0.0001949
0.0001922
0.0001893
0.0001862
0.0001829
0.0001792
0.0001753
0.0001712
0.0001667
0.000162
0.000157
0.0001518
0.0001464
0.0001407
0.0001349
0.000129
0.0001231
0.0001171
0.0001112
0.0001053
9.96e-05
9.402e-05
8.862e-05
8.343e-05
7.845e-05
7.371e-05
6.921e-05
6.495e-05
6.094e-05
5.717e-05
5.365e-05
5.037e-05
4.732e-05
4.449e-05
4.186e-05
3.944e-05
3.719e-05
3.512e-05
3.32e-05
3.143e-05
2.978e-05
2.825e-05
2.683e-05
2.55e-05
2.426e-05
2.31e-05
2.201e-05
2.097e-05
2e-05
1.907e-05
1.819e-05
1.735e-05
1.655e-05
1.578e-05
1.503e-05
1.432e-05
1.362e-05
1.295e-05
1.229e-05
1.165e-05
1.103e-05
1.042e-05
9.82e-06
9.232e-06
8.653e-06
8.083e-06
7.52e-06
6.964e-06
6.413e-06
5.868e-06
5.327e-06
4.789e-06
4.254e-06
3.722e-06
3.191e-06
2.662e-06
2.133e-06
1.604e-06
1.075e-06
5.432e-07
9.359e-08
0.0002694
0.0002719
0.0002706
0.0002669
0.0002627
0.0002588
0.0002553
0.0002522
0.0002495
0.0002471
0.0002449
0.0002428
0.000241
0.0002392
0.0002376
0.0002361
0.0002347
0.0002334
0.0002322
0.000231
0.0002299
0.0002288
0.0002278
0.0002268
0.0002258
0.0002248
0.0002238
0.0002229
0.0002219
0.0002209
0.00022
0.000219
0.0002179
0.0002169
0.0002158
0.0002146
0.0002134
0.0002122
0.0002108
0.0002094
0.0002079
0.0002063
0.0002046
0.0002028
0.0002008
0.0001987
0.0001964
0.000194
0.0001913
0.0001884
0.0001853
0.000182
0.0001784
0.0001746
0.0001704
0.000166
0.0001614
0.0001565
0.0001513
0.0001459
0.0001404
0.0001346
0.0001288
0.0001229
0.000117
0.0001112
0.0001054
9.977e-05
9.428e-05
8.898e-05
8.387e-05
7.898e-05
7.431e-05
6.987e-05
6.567e-05
6.171e-05
5.798e-05
5.45e-05
5.124e-05
4.821e-05
4.539e-05
4.278e-05
4.035e-05
3.81e-05
3.602e-05
3.408e-05
3.229e-05
3.062e-05
2.906e-05
2.76e-05
2.624e-05
2.497e-05
2.377e-05
2.264e-05
2.157e-05
2.056e-05
1.959e-05
1.868e-05
1.78e-05
1.696e-05
1.616e-05
1.538e-05
1.464e-05
1.392e-05
1.322e-05
1.254e-05
1.188e-05
1.123e-05
1.06e-05
9.984e-06
9.38e-06
8.787e-06
8.203e-06
7.629e-06
7.061e-06
6.501e-06
5.947e-06
5.397e-06
4.852e-06
4.31e-06
3.771e-06
3.234e-06
2.699e-06
2.164e-06
1.628e-06
1.091e-06
5.498e-07
9.249e-08
0.0002608
0.0002635
0.0002634
0.0002612
0.0002581
0.000255
0.0002521
0.0002496
0.0002473
0.0002452
0.0002434
0.0002416
0.00024
0.0002385
0.000237
0.0002357
0.0002344
0.0002331
0.000232
0.0002308
0.0002297
0.0002287
0.0002276
0.0002266
0.0002256
0.0002247
0.0002237
0.0002227
0.0002217
0.0002207
0.0002197
0.0002187
0.0002176
0.0002165
0.0002154
0.0002142
0.000213
0.0002117
0.0002103
0.0002089
0.0002074
0.0002057
0.000204
0.0002022
0.0002002
0.0001981
0.0001958
0.0001933
0.0001907
0.0001878
0.0001848
0.0001814
0.0001779
0.0001741
0.00017
0.0001656
0.000161
0.0001561
0.000151
0.0001457
0.0001401
0.0001344
0.0001286
0.0001228
0.0001169
0.0001111
0.0001054
9.98e-05
9.438e-05
8.913e-05
8.409e-05
7.925e-05
7.463e-05
7.024e-05
6.608e-05
6.216e-05
5.847e-05
5.502e-05
5.179e-05
4.878e-05
4.598e-05
4.338e-05
4.097e-05
3.872e-05
3.664e-05
3.47e-05
3.29e-05
3.122e-05
2.964e-05
2.817e-05
2.679e-05
2.549e-05
2.427e-05
2.311e-05
2.202e-05
2.098e-05
1.999e-05
1.905e-05
1.814e-05
1.728e-05
1.645e-05
1.565e-05
1.488e-05
1.414e-05
1.342e-05
1.272e-05
1.205e-05
1.138e-05
1.074e-05
1.011e-05
9.494e-06
8.89e-06
8.296e-06
7.712e-06
7.136e-06
6.568e-06
6.007e-06
5.451e-06
4.9e-06
4.354e-06
3.81e-06
3.268e-06
2.728e-06
2.188e-06
1.647e-06
1.104e-06
5.567e-07
9.317e-08
0.0002543
0.000257
0.0002576
0.0002563
0.0002542
0.0002517
0.0002494
0.0002472
0.0002452
0.0002435
0.0002418
0.0002403
0.0002389
0.0002376
0.0002363
0.0002351
0.0002339
0.0002327
0.0002316
0.0002306
0.0002295
0.0002285
0.0002275
0.0002265
0.0002255
0.0002245
0.0002235
0.0002225
0.0002216
0.0002205
0.0002195
0.0002185
0.0002174
0.0002163
0.0002151
0.0002139
0.0002127
0.0002114
0.00021
0.0002085
0.000207
0.0002054
0.0002037
0.0002018
0.0001998
0.0001977
0.0001955
0.000193
0.0001904
0.0001876
0.0001845
0.0001812
0.0001777
0.0001739
0.0001698
0.0001655
0.0001609
0.000156
0.0001509
0.0001456
0.00014
0.0001343
0.0001285
0.0001226
0.0001168
0.000111
0.0001053
9.97e-05
9.43e-05
8.91e-05
8.409e-05
7.928e-05
7.47e-05
7.034e-05
6.621e-05
6.232e-05
5.866e-05
5.523e-05
5.203e-05
4.904e-05
4.627e-05
4.369e-05
4.129e-05
3.906e-05
3.699e-05
3.506e-05
3.327e-05
3.159e-05
3.001e-05
2.853e-05
2.715e-05
2.584e-05
2.46e-05
2.343e-05
2.232e-05
2.126e-05
2.026e-05
1.93e-05
1.838e-05
1.75e-05
1.665e-05
1.584e-05
1.505e-05
1.43e-05
1.356e-05
1.285e-05
1.216e-05
1.149e-05
1.084e-05
1.02e-05
9.571e-06
8.959e-06
8.358e-06
7.768e-06
7.186e-06
6.613e-06
6.048e-06
5.488e-06
4.934e-06
4.383e-06
3.837e-06
3.292e-06
2.75e-06
2.207e-06
1.663e-06
1.116e-06
5.644e-07
9.58e-08
0.0002493
0.0002518
0.0002527
0.0002522
0.0002507
0.0002488
0.0002469
0.0002451
0.0002434
0.0002418
0.0002404
0.0002391
0.0002378
0.0002366
0.0002355
0.0002344
0.0002333
0.0002322
0.0002312
0.0002302
0.0002292
0.0002282
0.0002273
0.0002263
0.0002253
0.0002244
0.0002234
0.0002224
0.0002214
0.0002204
0.0002194
0.0002183
0.0002173
0.0002161
0.000215
0.0002138
0.0002125
0.0002112
0.0002098
0.0002084
0.0002069
0.0002053
0.0002035
0.0002017
0.0001997
0.0001977
0.0001954
0.000193
0.0001904
0.0001876
0.0001845
0.0001813
0.0001778
0.000174
0.0001699
0.0001656
0.000161
0.0001561
0.000151
0.0001456
0.00014
0.0001343
0.0001284
0.0001225
0.0001166
0.0001107
0.000105
9.946e-05
9.407e-05
8.887e-05
8.388e-05
7.909e-05
7.452e-05
7.017e-05
6.605e-05
6.218e-05
5.853e-05
5.513e-05
5.195e-05
4.899e-05
4.625e-05
4.37e-05
4.133e-05
3.913e-05
3.708e-05
3.518e-05
3.34e-05
3.173e-05
3.017e-05
2.87e-05
2.731e-05
2.6e-05
2.476e-05
2.359e-05
2.248e-05
2.141e-05
2.04e-05
1.943e-05
1.85e-05
1.762e-05
1.676e-05
1.594e-05
1.515e-05
1.438e-05
1.364e-05
1.292e-05
1.222e-05
1.154e-05
1.088e-05
1.024e-05
9.61e-06
8.994e-06
8.389e-06
7.795e-06
7.211e-06
6.636e-06
6.068e-06
5.506e-06
4.951e-06
4.399e-06
3.852e-06
3.307e-06
2.763e-06
2.22e-06
1.675e-06
1.127e-06
5.731e-07
1.005e-07
0.0002452
0.0002475
0.0002487
0.0002486
0.0002477
0.0002463
0.0002447
0.0002431
0.0002417
0.0002403
0.000239
0.0002379
0.0002367
0.0002357
0.0002347
0.0002337
0.0002327
0.0002317
0.0002308
0.0002298
0.0002289
0.000228
0.000227
0.0002261
0.0002252
0.0002242
0.0002233
0.0002223
0.0002213
0.0002204
0.0002193
0.0002183
0.0002172
0.0002161
0.000215
0.0002138
0.0002125
0.0002112
0.0002099
0.0002084
0.0002069
0.0002053
0.0002036
0.0002018
0.0001999
0.0001978
0.0001956
0.0001932
0.0001907
0.0001879
0.0001849
0.0001816
0.0001781
0.0001744
0.0001703
0.000166
0.0001613
0.0001564
0.0001512
0.0001458
0.0001401
0.0001343
0.0001283
0.0001223
0.0001163
0.0001104
0.0001047
9.909e-05
9.368e-05
8.846e-05
8.345e-05
7.865e-05
7.407e-05
6.972e-05
6.56e-05
6.173e-05
5.81e-05
5.471e-05
5.156e-05
4.864e-05
4.593e-05
4.342e-05
4.109e-05
3.893e-05
3.692e-05
3.504e-05
3.329e-05
3.165e-05
3.011e-05
2.866e-05
2.729e-05
2.599e-05
2.477e-05
2.36e-05
2.249e-05
2.143e-05
2.042e-05
1.945e-05
1.852e-05
1.763e-05
1.678e-05
1.595e-05
1.516e-05
1.439e-05
1.365e-05
1.293e-05
1.223e-05
1.155e-05
1.089e-05
1.024e-05
9.61e-06
8.993e-06
8.388e-06
7.794e-06
7.21e-06
6.635e-06
6.067e-06
5.506e-06
4.951e-06
4.401e-06
3.855e-06
3.311e-06
2.769e-06
2.227e-06
1.683e-06
1.136e-06
5.829e-07
1.074e-07
0.0002419
0.000244
0.0002453
0.0002455
0.000245
0.000244
0.0002427
0.0002414
0.0002402
0.000239
0.0002378
0.0002368
0.0002358
0.0002348
0.0002339
0.000233
0.0002321
0.0002312
0.0002303
0.0002294
0.0002286
0.0002277
0.0002268
0.0002259
0.000225
0.0002241
0.0002232
0.0002223
0.0002213
0.0002203
0.0002193
0.0002183
0.0002173
0.0002162
0.0002151
0.0002139
0.0002127
0.0002114
0.0002101
0.0002087
0.0002072
0.0002056
0.000204
0.0002022
0.0002003
0.0001983
0.0001961
0.0001938
0.0001913
0.0001885
0.0001856
0.0001823
0.0001788
0.0001751
0.000171
0.0001666
0.0001619
0.000157
0.0001517
0.0001462
0.0001404
0.0001344
0.0001283
0.0001222
0.0001161
0.0001101
0.0001042
9.857e-05
9.311e-05
8.785e-05
8.28e-05
7.796e-05
7.335e-05
6.897e-05
6.484e-05
6.096e-05
5.734e-05
5.398e-05
5.086e-05
4.797e-05
4.531e-05
4.285e-05
4.057e-05
3.846e-05
3.65e-05
3.467e-05
3.296e-05
3.136e-05
2.985e-05
2.843e-05
2.709e-05
2.581e-05
2.461e-05
2.346e-05
2.236e-05
2.131e-05
2.031e-05
1.935e-05
1.843e-05
1.755e-05
1.67e-05
1.588e-05
1.509e-05
1.433e-05
1.359e-05
1.287e-05
1.218e-05
1.15e-05
1.084e-05
1.02e-05
9.571e-06
8.957e-06
8.355e-06
7.764e-06
7.183e-06
6.61e-06
6.046e-06
5.488e-06
4.936e-06
4.389e-06
3.846e-06
3.305e-06
2.766e-06
2.228e-06
1.687e-06
1.144e-06
5.94e-07
1.165e-07
0.0002391
0.0002411
0.0002424
0.0002429
0.0002426
0.0002419
0.000241
0.0002399
0.0002388
0.0002378
0.0002367
0.0002358
0.0002349
0.000234
0.0002331
0.0002323
0.0002315
0.0002307
0.0002299
0.000229
0.0002282
0.0002274
0.0002266
0.0002257
0.0002249
0.000224
0.0002231
0.0002223
0.0002213
0.0002204
0.0002194
0.0002184
0.0002174
0.0002164
0.0002153
0.0002141
0.000213
0.0002117
0.0002104
0.0002091
0.0002076
0.0002061
0.0002045
0.0002028
0.000201
0.000199
0.0001969
0.0001946
0.0001922
0.0001895
0.0001866
0.0001834
0.0001799
0.0001761
0.000172
0.0001676
0.0001629
0.0001578
0.0001524
0.0001467
0.0001408
0.0001347
0.0001284
0.0001221
0.0001158
0.0001096
0.0001036
9.789e-05
9.234e-05
8.701e-05
8.188e-05
7.698e-05
7.231e-05
6.789e-05
6.373e-05
5.984e-05
5.623e-05
5.289e-05
4.981e-05
4.698e-05
4.437e-05
4.198e-05
3.977e-05
3.772e-05
3.583e-05
3.406e-05
3.241e-05
3.085e-05
2.939e-05
2.802e-05
2.671e-05
2.547e-05
2.429e-05
2.317e-05
2.21e-05
2.107e-05
2.009e-05
1.915e-05
1.824e-05
1.737e-05
1.654e-05
1.573e-05
1.495e-05
1.42e-05
1.347e-05
1.276e-05
1.207e-05
1.14e-05
1.075e-05
1.012e-05
9.495e-06
8.887e-06
8.291e-06
7.705e-06
7.13e-06
6.563e-06
6.004e-06
5.452e-06
4.905e-06
4.363e-06
3.825e-06
3.29e-06
2.757e-06
2.223e-06
1.688e-06
1.15e-06
6.063e-07
1.278e-07
0.0002368
0.0002387
0.00024
0.0002406
0.0002405
0.0002401
0.0002394
0.0002385
0.0002376
0.0002367
0.0002358
0.0002349
0.0002341
0.0002333
0.0002325
0.0002317
0.000231
0.0002302
0.0002295
0.0002287
0.0002279
0.0002272
0.0002264
0.0002256
0.0002248
0.000224
0.0002231
0.0002223
0.0002214
0.0002205
0.0002196
0.0002186
0.0002177
0.0002166
0.0002156
0.0002145
0.0002134
0.0002122
0.0002109
0.0002096
0.0002083
0.0002068
0.0002053
0.0002036
0.0002019
0.0002
0.000198
0.0001958
0.0001934
0.0001908
0.0001879
0.0001848
0.0001814
0.0001776
0.0001735
0.000169
0.0001642
0.000159
0.0001534
0.0001476
0.0001414
0.0001351
0.0001285
0.0001219
0.0001154
0.000109
0.0001029
9.701e-05
9.134e-05
8.589e-05
8.065e-05
7.566e-05
7.091e-05
6.643e-05
6.224e-05
5.834e-05
5.474e-05
5.144e-05
4.841e-05
4.565e-05
4.312e-05
4.081e-05
3.868e-05
3.672e-05
3.491e-05
3.321e-05
3.163e-05
3.015e-05
2.875e-05
2.742e-05
2.617e-05
2.497e-05
2.383e-05
2.274e-05
2.17e-05
2.071e-05
1.975e-05
1.884e-05
1.796e-05
1.711e-05
1.629e-05
1.55e-05
1.474e-05
1.4e-05
1.329e-05
1.259e-05
1.192e-05
1.126e-05
1.062e-05
9.994e-06
9.382e-06
8.784e-06
8.197e-06
7.62e-06
7.053e-06
6.494e-06
5.943e-06
5.398e-06
4.859e-06
4.325e-06
3.794e-06
3.266e-06
2.74e-06
2.214e-06
1.686e-06
1.156e-06
6.198e-07
1.412e-07
0.0002349
0.0002366
0.0002379
0.0002385
0.0002387
0.0002385
0.000238
0.0002373
0.0002365
0.0002357
0.0002349
0.0002341
0.0002334
0.0002326
0.0002319
0.0002312
0.0002305
0.0002298
0.0002291
0.0002284
0.0002277
0.000227
0.0002263
0.0002255
0.0002248
0.000224
0.0002232
0.0002224
0.0002216
0.0002207
0.0002198
0.0002189
0.000218
0.000217
0.000216
0.000215
0.0002139
0.0002128
0.0002116
0.0002104
0.0002091
0.0002077
0.0002062
0.0002047
0.000203
0.0002013
0.0001994
0.0001973
0.000195
0.0001925
0.0001897
0.0001867
0.0001833
0.0001795
0.0001754
0.0001709
0.0001659
0.0001606
0.0001548
0.0001487
0.0001423
0.0001357
0.0001288
0.0001218
0.000115
0.0001083
0.000102
9.587e-05
9.003e-05
8.441e-05
7.904e-05
7.391e-05
6.907e-05
6.452e-05
6.03e-05
5.64e-05
5.283e-05
4.958e-05
4.663e-05
4.396e-05
4.154e-05
3.933e-05
3.731e-05
3.546e-05
3.374e-05
3.215e-05
3.065e-05
2.925e-05
2.792e-05
2.666e-05
2.546e-05
2.432e-05
2.323e-05
2.219e-05
2.119e-05
2.023e-05
1.931e-05
1.843e-05
1.758e-05
1.676e-05
1.597e-05
1.52e-05
1.446e-05
1.374e-05
1.305e-05
1.237e-05
1.171e-05
1.107e-05
1.045e-05
9.834e-06
9.236e-06
8.65e-06
8.075e-06
7.51e-06
6.953e-06
6.405e-06
5.864e-06
5.329e-06
4.799e-06
4.274e-06
3.752e-06
3.233e-06
2.716e-06
2.199e-06
1.681e-06
1.16e-06
6.345e-07
1.565e-07
0.0002332
0.0002348
0.0002361
0.0002368
0.0002371
0.000237
0.0002367
0.0002362
0.0002355
0.0002348
0.0002341
0.0002334
0.0002327
0.0002321
0.0002314
0.0002307
0.0002301
0.0002295
0.0002288
0.0002282
0.0002275
0.0002268
0.0002261
0.0002255
0.0002248
0.000224
0.0002233
0.0002225
0.0002218
0.000221
0.0002201
0.0002193
0.0002184
0.0002175
0.0002166
0.0002156
0.0002146
0.0002135
0.0002124
0.0002113
0.00021
0.0002088
0.0002074
0.000206
0.0002045
0.0002028
0.000201
0.0001991
0.0001969
0.0001946
0.0001919
0.000189
0.0001857
0.000182
0.0001779
0.0001733
0.0001683
0.0001627
0.0001568
0.0001504
0.0001436
0.0001365
0.0001292
0.0001218
0.0001145
0.0001074
0.0001007
9.438e-05
8.829e-05
8.247e-05
7.691e-05
7.165e-05
6.67e-05
6.21e-05
5.785e-05
5.398e-05
5.046e-05
4.73e-05
4.446e-05
4.191e-05
3.962e-05
3.755e-05
3.567e-05
3.394e-05
3.235e-05
3.086e-05
2.947e-05
2.816e-05
2.692e-05
2.574e-05
2.461e-05
2.354e-05
2.251e-05
2.152e-05
2.057e-05
1.966e-05
1.878e-05
1.793e-05
1.712e-05
1.633e-05
1.557e-05
1.483e-05
1.412e-05
1.343e-05
1.275e-05
1.21e-05
1.146e-05
1.084e-05
1.024e-05
9.641e-06
9.06e-06
8.489e-06
7.928e-06
7.377e-06
6.833e-06
6.297e-06
5.768e-06
5.244e-06
4.726e-06
4.212e-06
3.701e-06
3.193e-06
2.686e-06
2.18e-06
1.673e-06
1.164e-06
6.502e-07
1.736e-07
0.0002318
0.0002333
0.0002345
0.0002353
0.0002357
0.0002357
0.0002355
0.0002351
0.0002346
0.0002341
0.0002335
0.0002328
0.0002322
0.0002316
0.000231
0.0002304
0.0002298
0.0002292
0.0002286
0.000228
0.0002273
0.0002267
0.0002261
0.0002255
0.0002248
0.0002241
0.0002234
0.0002227
0.000222
0.0002213
0.0002205
0.0002197
0.0002189
0.0002181
0.0002172
0.0002163
0.0002153
0.0002144
0.0002134
0.0002123
0.0002112
0.00021
0.0002088
0.0002075
0.0002061
0.0002046
0.000203
0.0002012
0.0001992
0.0001971
0.0001946
0.0001919
0.0001887
0.0001851
0.0001811
0.0001765
0.0001714
0.0001657
0.0001595
0.0001527
0.0001455
0.0001379
0.0001299
0.0001218
0.0001138
0.0001062
9.906e-05
9.233e-05
8.593e-05
7.986e-05
7.411e-05
6.871e-05
6.368e-05
5.905e-05
5.482e-05
5.1e-05
4.759e-05
4.456e-05
4.187e-05
3.949e-05
3.737e-05
3.547e-05
3.375e-05
3.218e-05
3.073e-05
2.938e-05
2.811e-05
2.69e-05
2.576e-05
2.467e-05
2.363e-05
2.262e-05
2.166e-05
2.074e-05
1.984e-05
1.898e-05
1.816e-05
1.735e-05
1.658e-05
1.583e-05
1.511e-05
1.441e-05
1.372e-05
1.306e-05
1.242e-05
1.179e-05
1.118e-05
1.058e-05
9.993e-06
9.419e-06
8.856e-06
8.303e-06
7.759e-06
7.223e-06
6.695e-06
6.174e-06
5.658e-06
5.148e-06
4.642e-06
4.14e-06
3.641e-06
3.145e-06
2.65e-06
2.157e-06
1.662e-06
1.166e-06
6.668e-07
1.923e-07
0.0002306
0.000232
0.0002332
0.000234
0.0002344
0.0002346
0.0002345
0.0002342
0.0002339
0.0002334
0.0002329
0.0002323
0.0002317
0.0002312
0.0002306
0.00023
0.0002295
0.0002289
0.0002284
0.0002278
0.0002272
0.0002267
0.0002261
0.0002255
0.0002249
0.0002243
0.0002236
0.000223
0.0002223
0.0002216
0.0002209
0.0002202
0.0002195
0.0002187
0.0002179
0.0002171
0.0002162
0.0002153
0.0002144
0.0002134
0.0002124
0.0002114
0.0002103
0.0002091
0.0002079
0.0002066
0.0002052
0.0002036
0.0002019
0.0002
0.0001978
0.0001952
0.0001923
0.000189
0.0001851
0.0001806
0.0001755
0.0001697
0.0001632
0.0001561
0.0001484
0.00014
0.0001311
0.0001219
0.0001129
0.0001044
9.661e-05
8.939e-05
8.263e-05
7.63e-05
7.04e-05
6.491e-05
5.987e-05
5.527e-05
5.113e-05
4.744e-05
4.419e-05
4.134e-05
3.886e-05
3.669e-05
3.479e-05
3.31e-05
3.158e-05
3.019e-05
2.891e-05
2.771e-05
2.658e-05
2.55e-05
2.446e-05
2.347e-05
2.252e-05
2.16e-05
2.071e-05
1.986e-05
1.903e-05
1.823e-05
1.746e-05
1.671e-05
1.598e-05
1.528e-05
1.459e-05
1.393e-05
1.328e-05
1.265e-05
1.204e-05
1.144e-05
1.086e-05
1.028e-05
9.723e-06
9.171e-06
8.63e-06
8.096e-06
7.571e-06
7.053e-06
6.542e-06
6.036e-06
5.535e-06
5.04e-06
4.548e-06
4.06e-06
3.575e-06
3.092e-06
2.61e-06
2.13e-06
1.65e-06
1.168e-06
6.841e-07
2.122e-07
0.0002295
0.0002309
0.000232
0.0002328
0.0002333
0.0002336
0.0002336
0.0002334
0.0002331
0.0002328
0.0002323
0.0002318
0.0002313
0.0002308
0.0002303
0.0002298
0.0002293
0.0002288
0.0002282
0.0002277
0.0002272
0.0002267
0.0002261
0.0002256
0.000225
0.0002245
0.0002239
0.0002233
0.0002227
0.000222
0.0002214
0.0002207
0.0002201
0.0002194
0.0002187
0.0002179
0.0002172
0.0002164
0.0002155
0.0002147
0.0002138
0.0002129
0.000212
0.000211
0.0002099
0.0002088
0.0002076
0.0002063
0.0002049
0.0002032
0.0002014
0.0001992
0.0001966
0.0001936
0.00019
0.0001857
0.0001808
0.0001751
0.0001686
0.0001612
0.0001529
0.0001437
0.0001333
0.0001222
0.0001115
0.0001015
9.272e-05
8.495e-05
7.79e-05
7.142e-05
6.55e-05
6.008e-05
5.514e-05
5.069e-05
4.674e-05
4.326e-05
4.024e-05
3.765e-05
3.544e-05
3.355e-05
3.191e-05
3.047e-05
2.919e-05
2.801e-05
2.692e-05
2.589e-05
2.49e-05
2.396e-05
2.305e-05
2.217e-05
2.132e-05
2.049e-05
1.968e-05
1.89e-05
1.814e-05
1.741e-05
1.67e-05
1.6e-05
1.533e-05
1.467e-05
1.403e-05
1.341e-05
1.281e-05
1.221e-05
1.163e-05
1.107e-05
1.051e-05
9.966e-06
9.43e-06
8.904e-06
8.385e-06
7.873e-06
7.368e-06
6.869e-06
6.376e-06
5.887e-06
5.403e-06
4.923e-06
4.447e-06
3.973e-06
3.502e-06
3.034e-06
2.567e-06
2.101e-06
1.635e-06
1.169e-06
7.019e-07
2.332e-07
0.0002286
0.0002299
0.000231
0.0002318
0.0002324
0.0002327
0.0002328
0.0002327
0.0002325
0.0002322
0.0002319
0.0002314
0.000231
0.0002305
0.0002301
0.0002296
0.0002291
0.0002286
0.0002282
0.0002277
0.0002272
0.0002267
0.0002262
0.0002257
0.0002252
0.0002247
0.0002241
0.0002236
0.0002231
0.0002225
0.0002219
0.0002213
0.0002207
0.0002201
0.0002195
0.0002188
0.0002182
0.0002175
0.0002168
0.000216
0.0002153
0.0002145
0.0002137
0.0002129
0.0002121
0.0002112
0.0002102
0.0002092
0.0002081
0.0002068
0.0002054
0.0002036
0.0002015
0.0001989
0.0001958
0.0001921
0.0001876
0.0001824
0.0001762
0.000169
0.0001606
0.0001503
0.0001377
0.0001229
0.0001084
9.608e-05
8.618e-05
7.801e-05
7.097e-05
6.471e-05
5.916e-05
5.405e-05
4.942e-05
4.529e-05
4.164e-05
3.848e-05
3.578e-05
3.353e-05
3.166e-05
3.01e-05
2.878e-05
2.763e-05
2.661e-05
2.567e-05
2.478e-05
2.394e-05
2.312e-05
2.232e-05
2.154e-05
2.078e-05
2.003e-05
1.93e-05
1.858e-05
1.788e-05
1.72e-05
1.654e-05
1.589e-05
1.525e-05
1.463e-05
1.403e-05
1.344e-05
1.286e-05
1.23e-05
1.174e-05
1.12e-05
1.067e-05
1.015e-05
9.63e-06
9.122e-06
8.621e-06
8.126e-06
7.638e-06
7.154e-06
6.675e-06
6.201e-06
5.731e-06
5.264e-06
4.8e-06
4.34e-06
3.882e-06
3.426e-06
2.972e-06
2.52e-06
2.069e-06
1.619e-06
1.17e-06
7.2e-07
2.547e-07
0.0002279
0.0002291
0.0002302
0.000231
0.0002316
0.0002319
0.0002321
0.0002321
0.000232
0.0002317
0.0002314
0.0002311
0.0002307
0.0002303
0.0002299
0.0002294
0.000229
0.0002286
0.0002281
0.0002277
0.0002272
0.0002268
0.0002263
0.0002259
0.0002254
0.0002249
0.0002244
0.000224
0.0002235
0.000223
0.0002225
0.000222
0.0002214
0.0002209
0.0002203
0.0002198
0.0002192
0.0002186
0.000218
0.0002174
0.0002168
0.0002162
0.0002156
0.0002149
0.0002143
0.0002137
0.000213
0.0002123
0.0002115
0.0002107
0.0002096
0.0002084
0.0002068
0.0002049
0.0002024
0.0001994
0.0001959
0.0001917
0.0001867
0.0001809
0.0001735
0.0001622
0.0001462
0.0001237
0.0001024
8.665e-05
7.553e-05
6.727e-05
6.103e-05
5.581e-05
5.117e-05
4.681e-05
4.277e-05
3.913e-05
3.593e-05
3.317e-05
3.089e-05
2.904e-05
2.757e-05
2.64e-05
2.544e-05
2.462e-05
2.389e-05
2.321e-05
2.255e-05
2.19e-05
2.125e-05
2.061e-05
1.996e-05
1.932e-05
1.869e-05
1.806e-05
1.744e-05
1.682e-05
1.622e-05
1.563e-05
1.504e-05
1.447e-05
1.391e-05
1.336e-05
1.282e-05
1.229e-05
1.177e-05
1.126e-05
1.076e-05
1.026e-05
9.767e-06
9.282e-06
8.803e-06
8.329e-06
7.86e-06
7.395e-06
6.933e-06
6.476e-06
6.021e-06
5.569e-06
5.12e-06
4.674e-06
4.229e-06
3.787e-06
3.347e-06
2.908e-06
2.472e-06
2.036e-06
1.603e-06
1.17e-06
7.38e-07
2.766e-07
0.0002272
0.0002284
0.0002294
0.0002302
0.0002309
0.0002313
0.0002315
0.0002315
0.0002315
0.0002313
0.0002311
0.0002308
0.0002305
0.0002301
0.0002297
0.0002293
0.0002289
0.0002285
0.0002281
0.0002277
0.0002273
0.0002269
0.0002264
0.000226
0.0002256
0.0002252
0.0002248
0.0002243
0.0002239
0.0002235
0.000223
0.0002226
0.0002221
0.0002217
0.0002212
0.0002208
0.0002203
0.0002198
0.0002193
0.0002188
0.0002184
0.0002179
0.0002174
0.000217
0.0002166
0.0002162
0.0002158
0.0002154
0.000215
0.0002146
0.0002141
0.0002134
0.0002124
0.0002112
0.0002095
0.0002074
0.000205
0.0002024
0.0001995
0.0001947
0.0001928
0.0001877
0.0001647
0.0001201
9.516e-05
6.701e-05
5.614e-05
5.374e-05
5.056e-05
4.534e-05
4.18e-05
3.861e-05
3.539e-05
3.244e-05
2.979e-05
2.751e-05
2.568e-05
2.43e-05
2.329e-05
2.256e-05
2.199e-05
2.153e-05
2.11e-05
2.069e-05
2.026e-05
1.981e-05
1.934e-05
1.886e-05
1.835e-05
1.784e-05
1.732e-05
1.679e-05
1.626e-05
1.574e-05
1.521e-05
1.47e-05
1.418e-05
1.368e-05
1.318e-05
1.268e-05
1.22e-05
1.171e-05
1.124e-05
1.077e-05
1.03e-05
9.841e-06
9.384e-06
8.931e-06
8.481e-06
8.034e-06
7.591e-06
7.149e-06
6.711e-06
6.274e-06
5.839e-06
5.406e-06
4.975e-06
4.546e-06
4.118e-06
3.692e-06
3.267e-06
2.844e-06
2.423e-06
2.003e-06
1.585e-06
1.17e-06
7.558e-07
2.983e-07
0.0002267
0.0002278
0.0002288
0.0002296
0.0002302
0.0002307
0.0002309
0.0002311
0.0002311
0.000231
0.0002308
0.0002305
0.0002303
0.0002299
0.0002296
0.0002292
0.0002289
0.0002285
0.0002281
0.0002277
0.0002274
0.000227
0.0002266
0.0002262
0.0002259
0.0002255
0.0002251
0.0002247
0.0002244
0.000224
0.0002236
0.0002232
0.0002229
0.0002225
0.0002221
0.0002217
0.0002213
0.000221
0.0002206
0.0002203
0.0002199
0.0002196
0.0002193
0.000219
0.0002188
0.0002186
0.0002185
0.0002184
0.0002184
0.0002184
0.0002184
0.0002183
0.000218
0.0002174
0.0002164
0.0002151
0.0002137
0.0002125
0.0002112
0.0002076
0.0001828
0.0001449
0.0001379
0.0001119
0.0001071
9.232e-05
9.343e-05
7.451e-05
4.1e-05
3.392e-05
3.39e-05
3.017e-05
2.774e-05
2.557e-05
2.349e-05
2.169e-05
2.034e-05
1.945e-05
1.894e-05
1.866e-05
1.852e-05
1.842e-05
1.831e-05
1.817e-05
1.797e-05
1.772e-05
1.743e-05
1.71e-05
1.674e-05
1.635e-05
1.594e-05
1.552e-05
1.509e-05
1.465e-05
1.421e-05
1.377e-05
1.333e-05
1.288e-05
1.245e-05
1.201e-05
1.157e-05
1.114e-05
1.071e-05
1.028e-05
9.852e-06
9.427e-06
9.004e-06
8.582e-06
8.161e-06
7.742e-06
7.324e-06
6.906e-06
6.49e-06
6.074e-06
5.659e-06
5.245e-06
4.832e-06
4.419e-06
4.007e-06
3.597e-06
3.188e-06
2.78e-06
2.374e-06
1.97e-06
1.568e-06
1.169e-06
7.731e-07
3.196e-07
0.0002262
0.0002273
0.0002283
0.0002291
0.0002297
0.0002302
0.0002305
0.0002307
0.0002307
0.0002307
0.0002305
0.0002303
0.0002301
0.0002298
0.0002295
0.0002292
0.0002288
0.0002285
0.0002282
0.0002278
0.0002275