/*--------------------------------*- C++ -*----------------------------------*\
  =========                 |
  \\      /  F ield         | OpenFOAM: The Open Source CFD Toolbox
   \\    /   O peration     | Website:  https://openfoam.org
    \\  /    A nd           | Version:  7
     \\/     M anipulation  |
\*---------------------------------------------------------------------------*/
FoamFile
{
    version     2.0;
    format      ascii;
    class       surfaceScalarField;
    location    "1499.99947342098903";
    object      phi;
}
// * * * * * * * * * * * * * * * * * * * * * * * * * * * * * * * * * * * * * //

dimensions      [0 3 -1 0 0 0 0];

internalField   nonuniform List<scalar> 
8032
(
6.857e-10
2.518e-10
4.804e-10
2.053e-10
3.48e-10
1.324e-10
2.643e-10
8.373e-11
2.101e-10
5.416e-11
1.737e-10
3.637e-11
1.482e-10
2.551e-11
1.296e-10
1.865e-11
1.154e-10
1.414e-11
1.044e-10
1.103e-11
9.561e-11
8.802e-12
8.847e-11
7.14e-12
8.26e-11
5.865e-12
7.774e-11
4.86e-12
7.369e-11
4.05e-12
7.031e-11
3.386e-12
6.748e-11
2.831e-12
6.512e-11
2.36e-12
6.316e-11
1.956e-12
6.156e-11
1.602e-12
6.027e-11
1.289e-12
5.926e-11
1.009e-12
5.851e-11
7.533e-13
5.799e-11
5.173e-13
5.769e-11
2.961e-13
5.761e-11
8.575e-14
5.772e-11
-1.171e-13
5.804e-11
-3.155e-13
5.855e-11
-5.119e-13
5.926e-11
-7.086e-13
6.017e-11
-9.077e-13
6.128e-11
-1.111e-12
6.26e-11
-1.32e-12
6.413e-11
-1.536e-12
6.589e-11
-1.759e-12
6.789e-11
-1.992e-12
7.012e-11
-2.233e-12
7.26e-11
-2.484e-12
7.535e-11
-2.744e-12
7.836e-11
-3.012e-12
8.165e-11
-3.287e-12
8.521e-11
-3.567e-12
8.906e-11
-3.849e-12
9.319e-11
-4.13e-12
9.76e-11
-4.407e-12
1.023e-10
-4.673e-12
1.072e-10
-4.923e-12
1.123e-10
-5.151e-12
1.177e-10
-5.349e-12
1.232e-10
-5.509e-12
1.288e-10
-5.622e-12
1.345e-10
-5.681e-12
1.402e-10
-5.676e-12
1.458e-10
-5.599e-12
1.512e-10
-5.444e-12
1.564e-10
-5.205e-12
1.613e-10
-4.879e-12
1.658e-10
-4.465e-12
1.697e-10
-3.966e-12
1.731e-10
-3.387e-12
1.759e-10
-2.738e-12
1.779e-10
-2.032e-12
1.792e-10
-1.286e-12
1.797e-10
-5.163e-13
1.794e-10
2.572e-13
1.784e-10
1.016e-12
1.767e-10
1.743e-12
1.743e-10
2.423e-12
1.712e-10
3.045e-12
1.676e-10
3.6e-12
1.635e-10
4.083e-12
1.59e-10
4.49e-12
1.542e-10
4.821e-12
1.491e-10
5.078e-12
1.439e-10
5.262e-12
1.385e-10
5.379e-12
1.331e-10
5.433e-12
1.276e-10
5.429e-12
1.223e-10
5.374e-12
1.17e-10
5.274e-12
1.119e-10
5.137e-12
1.069e-10
4.967e-12
1.021e-10
4.772e-12
9.756e-11
4.557e-12
9.323e-11
4.328e-12
8.914e-11
4.089e-12
8.53e-11
3.846e-12
8.17e-11
3.602e-12
7.834e-11
3.359e-12
7.521e-11
3.122e-12
7.232e-11
2.891e-12
6.966e-11
2.668e-12
6.72e-11
2.456e-12
6.495e-11
2.254e-12
6.288e-11
2.064e-12
6.1e-11
1.885e-12
5.928e-11
1.717e-12
5.772e-11
1.561e-12
5.63e-11
1.417e-12
5.502e-11
1.283e-12
5.386e-11
1.16e-12
5.281e-11
1.047e-12
5.187e-11
9.431e-13
5.102e-11
8.482e-13
5.026e-11
7.617e-13
4.958e-11
6.829e-13
4.896e-11
6.113e-13
4.842e-11
5.464e-13
4.793e-11
4.877e-13
4.75e-11
4.347e-13
4.711e-11
3.869e-13
4.676e-11
3.44e-13
4.646e-11
3.056e-13
4.619e-11
2.713e-13
4.595e-11
2.41e-13
4.573e-11
2.144e-13
4.554e-11
1.913e-13
4.537e-11
1.717e-13
4.521e-11
1.556e-13
4.507e-11
1.431e-13
4.494e-11
1.346e-13
4.481e-11
1.306e-13
4.467e-11
1.324e-13
4.453e-11
1.421e-13
4.437e-11
1.639e-13
4.416e-11
2.045e-13
4.389e-11
2.717e-13
3.53e-13
9.523e-10
2.37e-10
8.501e-10
3.075e-10
7.275e-10
2.551e-10
6.182e-10
1.929e-10
5.294e-10
1.431e-10
4.592e-10
1.065e-10
4.042e-10
8.056e-11
3.606e-10
6.217e-11
3.259e-10
4.894e-11
2.977e-10
3.92e-11
2.746e-10
3.187e-11
2.556e-10
2.621e-11
2.397e-10
2.175e-11
2.264e-10
1.816e-11
2.152e-10
1.523e-11
2.058e-10
1.28e-11
1.979e-10
1.074e-11
1.912e-10
8.989e-12
1.857e-10
7.47e-12
1.812e-10
6.136e-12
1.775e-10
4.95e-12
1.747e-10
3.882e-12
1.725e-10
2.907e-12
1.71e-10
2.004e-12
1.702e-10
1.157e-12
1.699e-10
3.506e-13
1.702e-10
-4.274e-13
1.711e-10
-1.188e-12
1.725e-10
-1.94e-12
1.745e-10
-2.692e-12
1.77e-10
-3.452e-12
1.801e-10
-4.226e-12
1.838e-10
-5.019e-12
1.881e-10
-5.837e-12
1.931e-10
-6.682e-12
1.986e-10
-7.557e-12
2.049e-10
-8.464e-12
2.118e-10
-9.403e-12
2.194e-10
-1.037e-11
2.278e-10
-1.137e-11
2.369e-10
-1.238e-11
2.467e-10
-1.342e-11
2.573e-10
-1.445e-11
2.687e-10
-1.548e-11
2.807e-10
-1.649e-11
2.935e-10
-1.745e-11
3.069e-10
-1.835e-11
3.21e-10
-1.916e-11
3.355e-10
-1.986e-11
3.504e-10
-2.041e-11
3.655e-10
-2.08e-11
3.808e-10
-2.097e-11
3.961e-10
-2.092e-11
4.111e-10
-2.06e-11
4.256e-10
-2e-11
4.395e-10
-1.91e-11
4.525e-10
-1.788e-11
4.644e-10
-1.635e-11
4.749e-10
-1.451e-11
4.839e-10
-1.239e-11
4.912e-10
-1.002e-11
4.966e-10
-7.451e-12
5.001e-10
-4.736e-12
5.015e-10
-1.939e-12
5.009e-10
8.746e-13
4.983e-10
3.639e-12
4.937e-10
6.292e-12
4.874e-10
8.784e-12
4.793e-10
1.107e-11
4.698e-10
1.312e-11
4.59e-10
1.491e-11
4.471e-10
1.643e-11
4.342e-10
1.768e-11
4.206e-10
1.866e-11
4.065e-10
1.937e-11
3.92e-10
1.984e-11
3.774e-10
2.008e-11
3.627e-10
2.01e-11
3.482e-10
1.994e-11
3.338e-10
1.961e-11
3.198e-10
1.913e-11
3.063e-10
1.854e-11
2.932e-10
1.784e-11
2.807e-10
1.707e-11
2.688e-10
1.625e-11
2.575e-10
1.538e-11
2.468e-10
1.45e-11
2.368e-10
1.36e-11
2.275e-10
1.271e-11
2.187e-10
1.183e-11
2.107e-10
1.098e-11
2.032e-10
1.015e-11
1.963e-10
9.363e-12
1.899e-10
8.61e-12
1.841e-10
7.897e-12
1.787e-10
7.225e-12
1.739e-10
6.596e-12
1.694e-10
6.008e-12
1.654e-10
5.462e-12
1.617e-10
4.956e-12
1.584e-10
4.489e-12
1.554e-10
4.058e-12
1.526e-10
3.663e-12
1.502e-10
3.301e-12
1.48e-10
2.97e-12
1.46e-10
2.668e-12
1.442e-10
2.393e-12
1.426e-10
2.144e-12
1.412e-10
1.918e-12
1.399e-10
1.713e-12
1.388e-10
1.529e-12
1.377e-10
1.362e-12
1.368e-10
1.214e-12
1.36e-10
1.081e-12
1.353e-10
9.625e-13
1.347e-10
8.587e-13
1.341e-10
7.684e-13
1.336e-10
6.914e-13
1.331e-10
6.275e-13
1.327e-10
5.771e-13
1.322e-10
5.411e-13
1.319e-10
5.208e-13
1.315e-10
5.186e-13
1.311e-10
5.381e-13
1.307e-10
5.848e-13
1.302e-10
6.646e-13
1.297e-10
7.764e-13
8.82e-13
9.779e-10
1.966e-10
9.637e-10
3.217e-10
9.013e-10
3.175e-10
8.212e-10
2.73e-10
7.409e-10
2.233e-10
6.68e-10
1.795e-10
6.046e-10
1.439e-10
5.507e-10
1.161e-10
5.052e-10
9.443e-11
4.669e-10
7.752e-11
4.345e-10
6.42e-11
4.072e-10
5.355e-11
3.84e-10
4.493e-11
3.643e-10
3.785e-11
3.476e-10
3.196e-11
3.334e-10
2.701e-11
3.213e-10
2.278e-11
3.112e-10
1.913e-11
3.027e-10
1.595e-11
2.957e-10
1.313e-11
2.9e-10
1.062e-11
2.856e-10
8.342e-12
2.822e-10
6.256e-12
2.799e-10
4.318e-12
2.786e-10
2.495e-12
2.782e-10
7.568e-13
2.787e-10
-9.219e-13
2.801e-10
-2.563e-12
2.823e-10
-4.187e-12
2.854e-10
-5.811e-12
2.894e-10
-7.449e-12
2.943e-10
-9.116e-12
3.001e-10
-1.082e-11
3.068e-10
-1.258e-11
3.146e-10
-1.439e-11
3.233e-10
-1.626e-11
3.33e-10
-1.82e-11
3.438e-10
-2.02e-11
3.557e-10
-2.226e-11
3.687e-10
-2.437e-11
3.828e-10
-2.652e-11
3.981e-10
-2.87e-11
4.145e-10
-3.089e-11
4.321e-10
-3.305e-11
4.508e-10
-3.515e-11
4.705e-10
-3.716e-11
4.912e-10
-3.903e-11
5.127e-10
-4.071e-11
5.35e-10
-4.215e-11
5.579e-10
-4.328e-11
5.811e-10
-4.405e-11
6.046e-10
-4.438e-11
6.279e-10
-4.423e-11
6.508e-10
-4.352e-11
6.73e-10
-4.222e-11
6.942e-10
-4.028e-11
7.14e-10
-3.769e-11
7.321e-10
-3.445e-11
7.481e-10
-3.057e-11
7.619e-10
-2.61e-11
7.73e-10
-2.113e-11
7.812e-10
-1.573e-11
7.865e-10
-1.003e-11
7.888e-10
-4.158e-12
7.879e-10
1.75e-12
7.84e-10
7.557e-12
7.771e-10
1.314e-11
7.675e-10
1.839e-11
7.554e-10
2.321e-11
7.409e-10
2.755e-11
7.245e-10
3.135e-11
7.063e-10
3.459e-11
6.867e-10
3.726e-11
6.66e-10
3.937e-11
6.445e-10
4.093e-11
6.224e-10
4.197e-11
5.999e-10
4.252e-11
5.774e-10
4.262e-11
5.55e-10
4.232e-11
5.33e-10
4.167e-11
5.114e-10
4.071e-11
4.904e-10
3.949e-11
4.702e-10
3.806e-11
4.508e-10
3.646e-11
4.323e-10
3.474e-11
4.148e-10
3.293e-11
3.982e-10
3.107e-11
3.826e-10
2.919e-11
3.68e-10
2.731e-11
3.544e-10
2.546e-11
3.417e-10
2.365e-11
3.3e-10
2.19e-11
3.191e-10
2.022e-11
3.091e-10
1.862e-11
2.999e-10
1.71e-11
2.915e-10
1.566e-11
2.837e-10
1.432e-11
2.767e-10
1.306e-11
2.703e-10
1.189e-11
2.644e-10
1.08e-11
2.591e-10
9.794e-12
2.543e-10
8.867e-12
2.499e-10
8.014e-12
2.46e-10
7.232e-12
2.425e-10
6.516e-12
2.393e-10
5.862e-12
2.364e-10
5.266e-12
2.338e-10
4.724e-12
2.315e-10
4.232e-12
2.294e-10
3.787e-12
2.276e-10
3.384e-12
2.259e-10
3.022e-12
2.244e-10
2.696e-12
2.231e-10
2.405e-12
2.219e-10
2.146e-12
2.209e-10
1.918e-12
2.199e-10
1.718e-12
2.191e-10
1.547e-12
2.183e-10
1.404e-12
2.176e-10
1.289e-12
2.169e-10
1.203e-12
2.163e-10
1.148e-12
2.157e-10
1.126e-12
2.151e-10
1.141e-12
2.145e-10
1.195e-12
2.138e-10
1.289e-12
2.132e-10
1.409e-12
1.507e-12
9.752e-10
1.589e-10
9.93e-10
3.039e-10
9.728e-10
3.377e-10
9.269e-10
3.19e-10
8.69e-10
2.812e-10
8.084e-10
2.401e-10
7.503e-10
2.021e-10
6.971e-10
1.693e-10
6.496e-10
1.419e-10
6.078e-10
1.193e-10
5.714e-10
1.006e-10
5.398e-10
8.518e-11
5.124e-10
7.232e-11
4.887e-10
6.151e-11
4.684e-10
5.234e-11
4.509e-10
4.45e-11
4.359e-10
3.773e-11
4.232e-10
3.182e-11
4.125e-10
2.662e-11
4.037e-10
2.198e-11
3.965e-10
1.781e-11
3.908e-10
1.401e-11
3.866e-10
1.051e-11
3.837e-10
7.245e-12
3.82e-10
4.164e-12
3.815e-10
1.219e-12
3.822e-10
-1.631e-12
3.841e-10
-4.421e-12
3.871e-10
-7.183e-12
3.912e-10
-9.946e-12
3.965e-10
-1.273e-11
4.03e-10
-1.557e-11
4.106e-10
-1.846e-11
4.195e-10
-2.144e-11
4.296e-10
-2.451e-11
4.41e-10
-2.768e-11
4.538e-10
-3.095e-11
4.679e-10
-3.433e-11
4.834e-10
-3.779e-11
5.004e-10
-4.135e-11
5.188e-10
-4.496e-11
5.387e-10
-4.861e-11
5.601e-10
-5.226e-11
5.829e-10
-5.586e-11
6.071e-10
-5.936e-11
6.327e-10
-6.27e-11
6.595e-10
-6.58e-11
6.873e-10
-6.858e-11
7.161e-10
-7.094e-11
7.456e-10
-7.279e-11
7.756e-10
-7.402e-11
8.057e-10
-7.453e-11
8.357e-10
-7.422e-11
8.652e-10
-7.299e-11
8.938e-10
-7.077e-11
9.21e-10
-6.75e-11
9.464e-10
-6.314e-11
9.697e-10
-5.77e-11
9.903e-10
-5.12e-11
1.008e-09
-4.373e-11
1.022e-09
-3.541e-11
1.033e-09
-2.639e-11
1.04e-09
-1.687e-11
1.043e-09
-7.062e-12
1.042e-09
2.808e-12
1.037e-09
1.252e-11
1.028e-09
2.185e-11
1.016e-09
3.064e-11
1e-09
3.873e-11
9.817e-10
4.601e-11
9.606e-10
5.24e-11
9.374e-10
5.787e-11
9.122e-10
6.239e-11
8.856e-10
6.597e-11
8.579e-10
6.864e-11
8.295e-10
7.044e-11
8.005e-10
7.142e-11
7.715e-10
7.166e-11
7.426e-10
7.123e-11
7.141e-10
7.019e-11
6.861e-10
6.864e-11
6.59e-10
6.665e-11
6.327e-10
6.43e-11
6.075e-10
6.167e-11
5.835e-10
5.881e-11
5.606e-10
5.581e-11
5.389e-10
5.271e-11
5.186e-10
4.957e-11
4.994e-10
4.643e-11
4.816e-10
4.333e-11
4.649e-10
4.03e-11
4.495e-10
3.736e-11
4.352e-10
3.453e-11
4.22e-10
3.182e-11
4.098e-10
2.926e-11
3.986e-10
2.683e-11
3.884e-10
2.455e-11
3.79e-10
2.242e-11
3.705e-10
2.043e-11
3.627e-10
1.858e-11
3.556e-10
1.687e-11
3.492e-10
1.529e-11
3.434e-10
1.383e-11
3.381e-10
1.25e-11
3.334e-10
1.127e-11
3.291e-10
1.015e-11
3.252e-10
9.134e-12
3.217e-10
8.204e-12
3.186e-10
7.359e-12
3.158e-10
6.593e-12
3.133e-10
5.9e-12
3.11e-10
5.275e-12
3.09e-10
4.713e-12
3.072e-10
4.21e-12
3.056e-10
3.761e-12
3.041e-10
3.365e-12
3.028e-10
3.017e-12
3.017e-10
2.718e-12
3.006e-10
2.464e-12
2.997e-10
2.257e-12
2.988e-10
2.096e-12
2.979e-10
1.983e-12
2.971e-10
1.919e-12
2.964e-10
1.906e-12
2.956e-10
1.943e-12
2.949e-10
2.024e-12
2.942e-10
2.13e-12
2.212e-12
9.668e-10
1.296e-10
9.944e-10
2.762e-10
9.979e-10
3.343e-10
9.78e-10
3.388e-10
9.425e-10
3.167e-10
8.986e-10
2.839e-10
8.518e-10
2.489e-10
8.055e-10
2.155e-10
7.618e-10
1.856e-10
7.216e-10
1.595e-10
6.852e-10
1.37e-10
6.527e-10
1.177e-10
6.24e-10
1.011e-10
5.986e-10
8.684e-11
5.765e-10
7.45e-11
5.572e-10
6.377e-11
5.406e-10
5.437e-11
5.263e-10
4.606e-11
5.143e-10
3.867e-11
5.043e-10
3.202e-11
4.961e-10
2.599e-11
4.896e-10
2.046e-11
4.848e-10
1.534e-11
4.815e-10
1.055e-11
4.797e-10
5.998e-12
4.792e-10
1.636e-12
4.802e-10
-2.595e-12
4.825e-10
-6.745e-12
4.862e-10
-1.086e-11
4.912e-10
-1.498e-11
4.976e-10
-1.913e-11
5.054e-10
-2.336e-11
5.146e-10
-2.767e-11
5.253e-10
-3.211e-11
5.374e-10
-3.667e-11
5.511e-10
-4.138e-11
5.664e-10
-4.623e-11
5.833e-10
-5.124e-11
6.019e-10
-5.637e-11
6.222e-10
-6.162e-11
6.442e-10
-6.695e-11
6.679e-10
-7.233e-11
6.934e-10
-7.77e-11
7.205e-10
-8.3e-11
7.493e-10
-8.814e-11
7.796e-10
-9.303e-11
8.114e-10
-9.757e-11
8.444e-10
-1.016e-10
8.785e-10
-1.051e-10
9.135e-10
-1.077e-10
9.49e-10
-1.095e-10
9.846e-10
-1.102e-10
1.02e-09
-1.097e-10
1.055e-09
-1.079e-10
1.089e-09
-1.046e-10
1.121e-09
-9.97e-11
1.151e-09
-9.326e-11
1.179e-09
-8.522e-11
1.203e-09
-7.563e-11
1.224e-09
-6.462e-11
1.241e-09
-5.235e-11
1.253e-09
-3.905e-11
1.262e-09
-2.501e-11
1.265e-09
-1.054e-11
1.264e-09
4.01e-12
1.258e-09
1.833e-11
1.248e-09
3.21e-11
1.233e-09
4.506e-11
1.215e-09
5.701e-11
1.193e-09
6.777e-11
1.169e-09
7.723e-11
1.141e-09
8.533e-11
1.111e-09
9.205e-11
1.08e-09
9.738e-11
1.047e-09
1.014e-10
1.014e-09
1.041e-10
9.794e-10
1.056e-10
9.45e-10
1.061e-10
9.107e-10
1.055e-10
8.769e-10
1.04e-10
8.437e-10
1.018e-10
8.114e-10
9.894e-11
7.802e-10
9.553e-11
7.502e-10
9.168e-11
7.215e-10
8.752e-11
6.942e-10
8.312e-11
6.683e-10
7.857e-11
6.439e-10
7.396e-11
6.21e-10
6.933e-11
5.996e-10
6.476e-11
5.796e-10
6.028e-11
5.61e-10
5.593e-11
5.438e-10
5.175e-11
5.279e-10
4.774e-11
5.132e-10
4.393e-11
4.997e-10
4.033e-11
4.874e-10
3.694e-11
4.76e-10
3.376e-11
4.656e-10
3.079e-11
4.562e-10
2.803e-11
4.476e-10
2.548e-11
4.398e-10
2.311e-11
4.327e-10
2.094e-11
4.262e-10
1.893e-11
4.204e-10
1.71e-11
4.151e-10
1.542e-11
4.104e-10
1.388e-11
4.061e-10
1.248e-11
4.023e-10
1.121e-11
3.988e-10
1.005e-11
3.957e-10
9.006e-12
3.929e-10
8.061e-12
3.904e-10
7.21e-12
3.882e-10
6.447e-12
3.862e-10
5.766e-12
3.844e-10
5.162e-12
3.828e-10
4.631e-12
3.813e-10
4.17e-12
3.8e-10
3.777e-12
3.788e-10
3.45e-12
3.777e-10
3.188e-12
3.767e-10
2.993e-12
3.758e-10
2.863e-12
3.749e-10
2.798e-12
3.74e-10
2.795e-12
3.732e-10
2.842e-12
3.724e-10
2.919e-12
2.979e-12
9.592e-10
1.079e-10
9.875e-10
2.478e-10
1.003e-09
3.191e-10
1e-09
3.414e-10
9.825e-10
3.344e-10
9.545e-10
3.12e-10
9.204e-10
2.83e-10
8.837e-10
2.522e-10
8.468e-10
2.225e-10
8.112e-10
1.951e-10
7.778e-10
1.704e-10
7.47e-10
1.484e-10
7.191e-10
1.29e-10
6.94e-10
1.119e-10
6.717e-10
9.681e-11
6.52e-10
8.343e-11
6.349e-10
7.153e-11
6.2e-10
6.089e-11
6.074e-10
5.13e-11
5.968e-10
4.26e-11
5.882e-10
3.464e-11
5.814e-10
2.729e-11
5.763e-10
2.043e-11
5.728e-10
1.397e-11
5.71e-10
7.823e-12
5.707e-10
1.903e-12
5.72e-10
-3.857e-12
5.748e-10
-9.52e-12
5.791e-10
-1.514e-11
5.849e-10
-2.078e-11
5.922e-10
-2.647e-11
6.011e-10
-3.225e-11
6.116e-10
-3.816e-11
6.237e-10
-4.423e-11
6.375e-10
-5.048e-11
6.531e-10
-5.692e-11
6.704e-10
-6.355e-11
6.895e-10
-7.037e-11
7.105e-10
-7.737e-11
7.334e-10
-8.453e-11
7.583e-10
-9.179e-11
7.85e-10
-9.91e-11
8.137e-10
-1.064e-10
8.443e-10
-1.136e-10
8.767e-10
-1.206e-10
9.109e-10
-1.272e-10
9.466e-10
-1.333e-10
9.838e-10
-1.388e-10
1.022e-09
-1.434e-10
1.061e-09
-1.47e-10
1.101e-09
-1.494e-10
1.142e-09
-1.503e-10
1.181e-09
-1.496e-10
1.221e-09
-1.471e-10
1.259e-09
-1.426e-10
1.295e-09
-1.36e-10
1.329e-09
-1.272e-10
1.36e-09
-1.163e-10
1.388e-09
-1.032e-10
1.411e-09
-8.821e-11
1.43e-09
-7.149e-11
1.445e-09
-5.336e-11
1.454e-09
-3.422e-11
1.458e-09
-1.45e-11
1.456e-09
5.34e-12
1.45e-09
2.485e-11
1.438e-09
4.362e-11
1.422e-09
6.129e-11
1.402e-09
7.756e-11
1.377e-09
9.223e-11
1.349e-09
1.051e-10
1.318e-09
1.162e-10
1.285e-09
1.254e-10
1.25e-09
1.327e-10
1.213e-09
1.382e-10
1.175e-09
1.42e-10
1.137e-09
1.441e-10
1.098e-09
1.448e-10
1.059e-09
1.441e-10
1.021e-09
1.422e-10
9.839e-10
1.392e-10
9.475e-10
1.353e-10
9.122e-10
1.307e-10
8.784e-10
1.256e-10
8.459e-10
1.199e-10
8.151e-10
1.14e-10
7.858e-10
1.078e-10
7.582e-10
1.016e-10
7.323e-10
9.529e-11
7.08e-10
8.907e-11
6.853e-10
8.297e-11
6.642e-10
7.705e-11
6.446e-10
7.133e-11
6.264e-10
6.586e-11
6.097e-10
6.066e-11
5.943e-10
5.573e-11
5.802e-10
5.108e-11
5.672e-10
4.673e-11
5.553e-10
4.266e-11
5.445e-10
3.887e-11
5.346e-10
3.536e-11
5.256e-10
3.211e-11
5.174e-10
2.911e-11
5.1e-10
2.635e-11
5.033e-10
2.381e-11
4.972e-10
2.149e-11
4.917e-10
1.937e-11
4.868e-10
1.743e-11
4.823e-10
1.567e-11
4.783e-10
1.407e-11
4.747e-10
1.262e-11
4.714e-10
1.13e-11
4.685e-10
1.012e-11
4.659e-10
9.057e-12
4.636e-10
8.106e-12
4.615e-10
7.261e-12
4.596e-10
6.515e-12
4.579e-10
5.864e-12
4.564e-10
5.304e-12
4.55e-10
4.832e-12
4.537e-10
4.447e-12
4.526e-10
4.146e-12
4.515e-10
3.928e-12
4.505e-10
3.789e-12
4.496e-10
3.724e-12
4.487e-10
3.721e-12
4.479e-10
3.758e-12
3.795e-12
9.536e-10
9.184e-11
9.795e-10
2.22e-10
9.996e-10
2.99e-10
1.007e-09
3.335e-10
1.003e-09
3.391e-10
9.878e-10
3.27e-10
9.655e-10
3.052e-10
9.388e-10
2.79e-10
9.099e-10
2.514e-10
8.805e-10
2.245e-10
8.517e-10
1.991e-10
8.244e-10
1.758e-10
7.989e-10
1.545e-10
7.755e-10
1.353e-10
7.544e-10
1.18e-10
7.354e-10
1.024e-10
7.187e-10
8.825e-11
7.041e-10
7.546e-11
6.916e-10
6.381e-11
6.811e-10
5.312e-11
6.725e-10
4.326e-11
6.657e-10
3.408e-11
6.607e-10
2.546e-11
6.573e-10
1.729e-11
6.557e-10
9.478e-12
6.557e-10
1.924e-12
6.573e-10
-5.451e-12
6.605e-10
-1.272e-11
6.653e-10
-1.996e-11
6.717e-10
-2.722e-11
6.798e-10
-3.455e-11
6.896e-10
-4.202e-11
7.011e-10
-4.965e-11
7.143e-10
-5.748e-11
7.294e-10
-6.554e-11
7.463e-10
-7.385e-11
7.651e-10
-8.24e-11
7.86e-10
-9.119e-11
8.088e-10
-1.002e-10
8.337e-10
-1.094e-10
8.606e-10
-1.187e-10
8.897e-10
-1.282e-10
9.208e-10
-1.375e-10
9.54e-10
-1.468e-10
9.892e-10
-1.557e-10
1.026e-09
-1.642e-10
1.065e-09
-1.721e-10
1.105e-09
-1.791e-10
1.147e-09
-1.851e-10
1.19e-09
-1.897e-10
1.233e-09
-1.928e-10
1.277e-09
-1.94e-10
1.32e-09
-1.931e-10
1.363e-09
-1.898e-10
1.404e-09
-1.84e-10
1.444e-09
-1.756e-10
1.481e-09
-1.643e-10
1.515e-09
-1.502e-10
1.545e-09
-1.334e-10
1.571e-09
-1.14e-10
1.592e-09
-9.245e-11
1.607e-09
-6.904e-11
1.618e-09
-4.432e-11
1.622e-09
-1.883e-11
1.62e-09
6.804e-12
1.613e-09
3.2e-11
1.601e-09
5.623e-11
1.583e-09
7.901e-11
1.56e-09
9.999e-11
1.534e-09
1.189e-10
1.503e-09
1.355e-10
1.47e-09
1.498e-10
1.434e-09
1.616e-10
1.395e-09
1.711e-10
1.355e-09
1.782e-10
1.314e-09
1.831e-10
1.272e-09
1.859e-10
1.23e-09
1.868e-10
1.188e-09
1.86e-10
1.147e-09
1.836e-10
1.106e-09
1.798e-10
1.067e-09
1.749e-10
1.029e-09
1.69e-10
9.918e-10
1.624e-10
9.565e-10
1.552e-10
9.229e-10
1.476e-10
8.911e-10
1.397e-10
8.61e-10
1.316e-10
8.327e-10
1.236e-10
8.062e-10
1.156e-10
7.815e-10
1.077e-10
7.584e-10
1.001e-10
7.37e-10
9.274e-11
7.172e-10
8.568e-11
6.989e-10
7.897e-11
6.82e-10
7.26e-11
6.665e-10
6.66e-11
6.523e-10
6.097e-11
6.392e-10
5.57e-11
6.273e-10
5.079e-11
6.164e-10
4.624e-11
6.065e-10
4.202e-11
5.975e-10
3.812e-11
5.893e-10
3.454e-11
5.819e-10
3.124e-11
5.751e-10
2.822e-11
5.691e-10
2.545e-11
5.636e-10
2.293e-11
5.586e-10
2.063e-11
5.541e-10
1.853e-11
5.501e-10
1.664e-11
5.465e-10
1.492e-11
5.433e-10
1.337e-11
5.403e-10
1.197e-11
5.377e-10
1.072e-11
5.354e-10
9.606e-12
5.333e-10
8.62e-12
5.314e-10
7.755e-12
5.297e-10
7.005e-12
5.282e-10
6.367e-12
5.268e-10
5.836e-12
5.255e-10
5.409e-12
5.243e-10
5.083e-12
5.233e-10
4.853e-12
5.223e-10
4.71e-12
5.214e-10
4.643e-12
5.205e-10
4.631e-12
4.642e-12
9.498e-10
7.956e-11
9.725e-10
1.993e-10
9.939e-10
2.775e-10
1.008e-09
3.197e-10
1.012e-09
3.35e-10
1.007e-09
3.32e-10
9.944e-10
3.175e-10
9.768e-10
2.965e-10
9.559e-10
2.723e-10
9.332e-10
2.472e-10
9.099e-10
2.224e-10
8.87e-10
1.987e-10
8.65e-10
1.765e-10
8.443e-10
1.56e-10
8.253e-10
1.37e-10
8.079e-10
1.197e-10
7.924e-10
1.037e-10
7.788e-10
8.91e-11
7.67e-10
7.559e-11
7.571e-10
6.309e-11
7.489e-10
5.143e-11
7.425e-10
4.05e-11
7.378e-10
3.016e-11
7.348e-10
2.031e-11
7.334e-10
1.082e-11
7.337e-10
1.619e-12
7.357e-10
-7.402e-12
7.393e-10
-1.632e-11
7.445e-10
-2.522e-11
7.515e-10
-3.416e-11
7.601e-10
-4.32e-11
7.705e-10
-5.242e-11
7.827e-10
-6.184e-11
7.967e-10
-7.152e-11
8.127e-10
-8.147e-11
8.305e-10
-9.173e-11
8.504e-10
-1.023e-10
8.724e-10
-1.131e-10
8.965e-10
-1.243e-10
9.227e-10
-1.356e-10
9.511e-10
-1.472e-10
9.817e-10
-1.588e-10
1.014e-09
-1.703e-10
1.049e-09
-1.817e-10
1.086e-09
-1.928e-10
1.126e-09
-2.033e-10
1.166e-09
-2.13e-10
1.209e-09
-2.217e-10
1.253e-09
-2.291e-10
1.298e-09
-2.348e-10
1.344e-09
-2.386e-10
1.39e-09
-2.402e-10
1.436e-09
-2.391e-10
1.482e-09
-2.352e-10
1.526e-09
-2.281e-10
1.568e-09
-2.177e-10
1.607e-09
-2.038e-10
1.644e-09
-1.864e-10
1.676e-09
-1.656e-10
1.703e-09
-1.417e-10
1.726e-09
-1.149e-10
1.743e-09
-8.583e-11
1.753e-09
-5.51e-11
1.758e-09
-2.343e-11
1.756e-09
8.423e-12
1.749e-09
3.971e-11
1.735e-09
6.975e-11
1.716e-09
9.797e-11
1.692e-09
1.239e-10
1.664e-09
1.473e-10
1.632e-09
1.678e-10
1.596e-09
1.854e-10
1.558e-09
2e-10
1.517e-09
2.117e-10
1.474e-09
2.205e-10
1.431e-09
2.266e-10
1.387e-09
2.301e-10
1.342e-09
2.313e-10
1.298e-09
2.302e-10
1.254e-09
2.273e-10
1.211e-09
2.227e-10
1.17e-09
2.167e-10
1.129e-09
2.095e-10
1.09e-09
2.013e-10
1.053e-09
1.925e-10
1.017e-09
1.831e-10
9.838e-10
1.733e-10
9.52e-10
1.634e-10
9.221e-10
1.535e-10
8.941e-10
1.436e-10
8.679e-10
1.339e-10
8.435e-10
1.245e-10
8.209e-10
1.154e-10
7.999e-10
1.067e-10
7.804e-10
9.838e-11
7.625e-10
9.05e-11
7.461e-10
8.307e-11
7.309e-10
7.609e-11
7.171e-10
6.957e-11
7.044e-10
6.348e-11
6.928e-10
5.783e-11
6.822e-10
5.259e-11
6.726e-10
4.775e-11
6.639e-10
4.328e-11
6.559e-10
3.918e-11
6.487e-10
3.542e-11
6.422e-10
3.197e-11
6.363e-10
2.882e-11
6.31e-10
2.595e-11
6.262e-10
2.333e-11
6.219e-10
2.096e-11
6.18e-10
1.881e-11
6.145e-10
1.686e-11
6.114e-10
1.511e-11
6.085e-10
1.354e-11
6.06e-10
1.214e-11
6.037e-10
1.089e-11
6.017e-10
9.792e-12
5.999e-10
8.835e-12
5.982e-10
8.013e-12
5.967e-10
7.32e-12
5.954e-10
6.751e-12
5.942e-10
6.301e-12
5.931e-10
5.963e-12
5.921e-10
5.73e-12
5.911e-10
5.59e-12
5.902e-10
5.523e-12
5.505e-12
9.472e-10
6.99e-11
9.668e-10
1.796e-10
9.879e-10
2.565e-10
1.005e-09
3.03e-10
1.014e-09
3.253e-10
1.017e-09
3.297e-10
1.012e-09
3.219e-10
1.003e-09
3.062e-10
9.89e-10
2.859e-10
9.728e-10
2.633e-10
9.552e-10
2.4e-10
9.371e-10
2.168e-10
9.191e-10
1.945e-10
9.018e-10
1.733e-10
8.854e-10
1.534e-10
8.703e-10
1.348e-10
8.566e-10
1.174e-10
8.444e-10
1.013e-10
8.338e-10
8.62e-11
8.248e-10
7.209e-11
8.174e-10
5.882e-11
8.117e-10
4.627e-11
8.075e-10
3.431e-11
8.05e-10
2.284e-11
8.041e-10
1.175e-11
8.047e-10
9.32e-13
8.071e-10
-9.71e-12
8.11e-10
-2.027e-11
8.166e-10
-3.082e-11
8.239e-10
-4.145e-11
8.329e-10
-5.222e-11
8.437e-10
-6.32e-11
8.563e-10
-7.445e-11
8.708e-10
-8.599e-11
8.872e-10
-9.788e-11
9.056e-10
-1.101e-10
9.26e-10
-1.227e-10
9.486e-10
-1.357e-10
9.733e-10
-1.49e-10
1e-09
-1.626e-10
1.029e-09
-1.763e-10
1.061e-09
-1.902e-10
1.095e-09
-2.04e-10
1.13e-09
-2.176e-10
1.169e-09
-2.309e-10
1.209e-09
-2.434e-10
1.251e-09
-2.551e-10
1.295e-09
-2.656e-10
1.34e-09
-2.745e-10
1.387e-09
-2.815e-10
1.434e-09
-2.861e-10
1.482e-09
-2.881e-10
1.53e-09
-2.87e-10
1.577e-09
-2.824e-10
1.623e-09
-2.741e-10
1.667e-09
-2.617e-10
1.709e-09
-2.452e-10
1.747e-09
-2.244e-10
1.781e-09
-1.995e-10
1.81e-09
-1.707e-10
1.833e-09
-1.385e-10
1.851e-09
-1.035e-10
1.862e-09
-6.639e-11
1.867e-09
-2.818e-11
1.865e-09
1.024e-11
1.857e-09
4.792e-11
1.843e-09
8.405e-11
1.823e-09
1.179e-10
1.797e-09
1.49e-10
1.768e-09
1.77e-10
1.734e-09
2.015e-10
1.697e-09
2.225e-10
1.657e-09
2.4e-10
1.615e-09
2.54e-10
1.571e-09
2.645e-10
1.526e-09
2.717e-10
1.48e-09
2.759e-10
1.434e-09
2.773e-10
1.388e-09
2.76e-10
1.343e-09
2.725e-10
1.299e-09
2.67e-10
1.255e-09
2.598e-10
1.214e-09
2.512e-10
1.174e-09
2.415e-10
1.135e-09
2.309e-10
1.099e-09
2.196e-10
1.064e-09
2.08e-10
1.031e-09
1.962e-10
1e-09
1.843e-10
9.714e-10
1.725e-10
9.444e-10
1.609e-10
9.193e-10
1.496e-10
8.959e-10
1.388e-10
8.743e-10
1.283e-10
8.542e-10
1.184e-10
8.357e-10
1.09e-10
8.187e-10
1.001e-10
8.031e-10
9.173e-11
7.888e-10
8.391e-11
7.756e-10
7.661e-11
7.636e-10
6.983e-11
7.527e-10
6.354e-11
7.427e-10
5.772e-11
7.336e-10
5.236e-11
7.254e-10
4.743e-11
7.179e-10
4.29e-11
7.111e-10
3.875e-11
7.05e-10
3.496e-11
6.994e-10
3.149e-11
6.944e-10
2.834e-11
6.899e-10
2.547e-11
6.858e-10
2.287e-11
6.822e-10
2.052e-11
6.789e-10
1.84e-11
6.759e-10
1.649e-11
6.733e-10
1.478e-11
6.709e-10
1.326e-11
6.688e-10
1.192e-11
6.669e-10
1.074e-11
6.652e-10
9.726e-12
6.636e-10
8.859e-12
6.622e-10
8.136e-12
6.61e-10
7.55e-12
6.599e-10
7.096e-12
6.588e-10
6.763e-12
6.579e-10
6.542e-12
6.57e-10
6.417e-12
6.369e-12
9.453e-10
6.206e-11
9.624e-10
1.625e-10
9.824e-10
2.365e-10
1e-09
2.851e-10
1.014e-09
3.121e-10
1.021e-09
3.223e-10
1.023e-09
3.201e-10
1.02e-09
3.094e-10
1.012e-09
2.931e-10
1.002e-09
2.735e-10
9.901e-10
2.521e-10
9.768e-10
2.302e-10
9.63e-10
2.083e-10
9.492e-10
1.871e-10
9.359e-10
1.667e-10
9.234e-10
1.473e-10
9.119e-10
1.29e-10
9.015e-10
1.116e-10
8.925e-10
9.53e-11
8.847e-10
7.984e-11
8.784e-10
6.516e-11
8.735e-10
5.117e-11
8.7e-10
3.775e-11
8.681e-10
2.479e-11
8.676e-10
1.219e-11
8.687e-10
-1.633e-13
8.714e-10
-1.236e-11
8.756e-10
-2.449e-11
8.815e-10
-3.666e-11
8.889e-10
-4.894e-11
8.981e-10
-6.141e-11
9.091e-10
-7.413e-11
9.218e-10
-8.717e-11
9.364e-10
-1.006e-10
9.529e-10
-1.144e-10
9.713e-10
-1.286e-10
9.919e-10
-1.433e-10
1.015e-09
-1.583e-10
1.039e-09
-1.738e-10
1.066e-09
-1.896e-10
1.096e-09
-2.056e-10
1.127e-09
-2.217e-10
1.161e-09
-2.379e-10
1.197e-09
-2.538e-10
1.236e-09
-2.692e-10
1.276e-09
-2.839e-10
1.318e-09
-2.976e-10
1.363e-09
-3.099e-10
1.409e-09
-3.204e-10
1.456e-09
-3.287e-10
1.504e-09
-3.344e-10
1.553e-09
-3.369e-10
1.602e-09
-3.358e-10
1.65e-09
-3.307e-10
1.697e-09
-3.212e-10
1.742e-09
-3.069e-10
1.785e-09
-2.878e-10
1.824e-09
-2.636e-10
1.859e-09
-2.345e-10
1.889e-09
-2.008e-10
1.914e-09
-1.629e-10
1.932e-09
-1.217e-10
1.944e-09
-7.8e-11
1.948e-09
-3.295e-11
1.946e-09
1.229e-11
1.938e-09
5.661e-11
1.923e-09
9.899e-11
1.902e-09
1.386e-10
1.876e-09
1.75e-10
1.845e-09
2.075e-10
1.811e-09
2.361e-10
1.773e-09
2.605e-10
1.732e-09
2.808e-10
1.689e-09
2.97e-10
1.644e-09
3.092e-10
1.598e-09
3.176e-10
1.552e-09
3.224e-10
1.505e-09
3.239e-10
1.459e-09
3.225e-10
1.413e-09
3.183e-10
1.368e-09
3.119e-10
1.325e-09
3.034e-10
1.282e-09
2.934e-10
1.242e-09
2.82e-10
1.203e-09
2.696e-10
1.166e-09
2.565e-10
1.131e-09
2.43e-10
1.098e-09
2.291e-10
1.067e-09
2.153e-10
1.038e-09
2.016e-10
1.011e-09
1.881e-10
9.856e-10
1.75e-10
9.621e-10
1.623e-10
9.403e-10
1.502e-10
9.201e-10
1.386e-10
9.015e-10
1.276e-10
8.844e-10
1.172e-10
8.686e-10
1.075e-10
8.542e-10
9.837e-11
8.409e-10
8.986e-11
8.288e-10
8.194e-11
8.177e-10
7.46e-11
8.076e-10
6.781e-11
7.985e-10
6.155e-11
7.901e-10
5.578e-11
7.825e-10
5.048e-11
7.757e-10
4.563e-11
7.694e-10
4.118e-11
7.638e-10
3.712e-11
7.587e-10
3.343e-11
7.541e-10
3.006e-11
7.5e-10
2.701e-11
7.463e-10
2.424e-11
7.429e-10
2.175e-11
7.399e-10
1.95e-11
7.372e-10
1.748e-11
7.348e-10
1.569e-11
7.326e-10
1.409e-11
7.307e-10
1.269e-11
7.289e-10
1.147e-11
7.274e-10
1.042e-11
7.26e-10
9.531e-12
7.247e-10
8.804e-12
7.236e-10
8.225e-12
7.226e-10
7.788e-12
7.216e-10
7.481e-12
7.208e-10
7.295e-12
7.217e-12
9.44e-10
5.553e-11
9.59e-10
1.475e-10
9.777e-10
2.179e-10
9.959e-10
2.668e-10
1.011e-09
2.968e-10
1.022e-09
3.113e-10
1.029e-09
3.138e-10
1.03e-09
3.075e-10
1.029e-09
2.95e-10
1.024e-09
2.784e-10
1.017e-09
2.593e-10
1.008e-09
2.389e-10
9.982e-10
2.18e-10
9.881e-10
1.971e-10
9.78e-10
1.768e-10
9.682e-10
1.57e-10
9.591e-10
1.381e-10
9.508e-10
1.2e-10
9.434e-10
1.027e-10
9.371e-10
8.613e-11
9.32e-10
7.029e-11
9.281e-10
5.506e-11
9.255e-10
4.036e-11
9.242e-10
2.607e-11
9.243e-10
1.209e-11
9.258e-10
-1.665e-12
9.287e-10
-1.53e-11
9.332e-10
-2.892e-11
9.391e-10
-4.262e-11
9.466e-10
-5.647e-11
9.558e-10
-7.055e-11
9.666e-10
-8.495e-11
9.792e-10
-9.972e-11
9.935e-10
-1.149e-10
1.01e-09
-1.306e-10
1.028e-09
-1.467e-10
1.048e-09
-1.634e-10
1.07e-09
-1.805e-10
1.095e-09
-1.981e-10
1.121e-09
-2.161e-10
1.15e-09
-2.343e-10
1.181e-09
-2.528e-10
1.214e-09
-2.711e-10
1.25e-09
-2.893e-10
1.287e-09
-3.07e-10
1.327e-09
-3.239e-10
1.369e-09
-3.396e-10
1.413e-09
-3.538e-10
1.459e-09
-3.66e-10
1.506e-09
-3.758e-10
1.554e-09
-3.825e-10
1.603e-09
-3.856e-10
1.652e-09
-3.847e-10
1.7e-09
-3.792e-10
1.748e-09
-3.686e-10
1.793e-09
-3.526e-10
1.836e-09
-3.309e-10
1.876e-09
-3.034e-10
1.912e-09
-2.701e-10
1.942e-09
-2.314e-10
1.967e-09
-1.878e-10
1.986e-09
-1.402e-10
1.998e-09
-8.972e-11
2.002e-09
-3.762e-11
2e-09
1.465e-11
1.991e-09
6.573e-11
1.975e-09
1.144e-10
1.954e-09
1.599e-10
1.928e-09
2.014e-10
1.897e-09
2.385e-10
1.862e-09
2.71e-10
1.824e-09
2.987e-10
1.783e-09
3.217e-10
1.74e-09
3.401e-10
1.695e-09
3.539e-10
1.649e-09
3.633e-10
1.603e-09
3.687e-10
1.557e-09
3.704e-10
1.51e-09
3.686e-10
1.465e-09
3.638e-10
1.42e-09
3.564e-10
1.377e-09
3.467e-10
1.335e-09
3.351e-10
1.295e-09
3.221e-10
1.257e-09
3.079e-10
1.22e-09
2.929e-10
1.186e-09
2.774e-10
1.153e-09
2.617e-10
1.123e-09
2.459e-10
1.094e-09
2.302e-10
1.067e-09
2.148e-10
1.043e-09
1.999e-10
1.019e-09
1.854e-10
9.98e-10
1.716e-10
9.781e-10
1.584e-10
9.598e-10
1.459e-10
9.43e-10
1.341e-10
9.275e-10
1.23e-10
9.132e-10
1.126e-10
9.002e-10
1.029e-10
8.883e-10
9.387e-11
8.773e-10
8.55e-11
8.674e-10
7.776e-11
8.583e-10
7.061e-11
8.501e-10
6.402e-11
8.426e-10
5.797e-11
8.358e-10
5.242e-11
8.297e-10
4.734e-11
8.241e-10
4.27e-11
8.19e-10
3.847e-11
8.145e-10
3.461e-11
8.104e-10
3.111e-11
8.067e-10
2.794e-11
8.034e-10
2.507e-11
8.004e-10
2.249e-11
7.977e-10
2.016e-11
7.953e-10
1.809e-11
7.931e-10
1.624e-11
7.912e-10
1.461e-11
7.895e-10
1.318e-11
7.88e-10
1.195e-11
7.866e-10
1.09e-11
7.854e-10
1.003e-11
7.843e-10
9.326e-12
7.833e-10
8.781e-12
7.824e-10
8.388e-12
7.815e-10
8.141e-12
8.032e-12
9.431e-10
4.997e-11
9.564e-10
1.342e-10
9.737e-10
2.006e-10
9.917e-10
2.488e-10
1.008e-09
2.804e-10
1.021e-09
2.979e-10
1.031e-09
3.041e-10
1.037e-09
3.015e-10
1.04e-09
2.925e-10
1.039e-09
2.788e-10
1.036e-09
2.621e-10
1.032e-09
2.434e-10
1.026e-09
2.238e-10
1.02e-09
2.037e-10
1.013e-09
1.837e-10
1.006e-09
1.64e-10
9.99e-10
1.448e-10
9.928e-10
1.262e-10
9.873e-10
1.082e-10
9.825e-10
9.087e-11
9.787e-10
7.412e-11
9.759e-10
5.788e-11
9.741e-10
4.209e-11
9.736e-10
2.665e-11
9.742e-10
1.147e-11
9.761e-10
-3.541e-12
9.792e-10
-1.848e-11
9.838e-10
-3.346e-11
9.897e-10
-4.855e-11
9.971e-10
-6.385e-11
1.006e-09
-7.945e-11
1.016e-09
-9.542e-11
1.029e-09
-1.118e-10
1.042e-09
-1.287e-10
1.058e-09
-1.461e-10
1.075e-09
-1.641e-10
1.095e-09
-1.827e-10
1.116e-09
-2.018e-10
1.139e-09
-2.214e-10
1.165e-09
-2.415e-10
1.192e-09
-2.619e-10
1.222e-09
-2.825e-10
1.254e-09
-3.032e-10
1.288e-09
-3.236e-10
1.325e-09
-3.435e-10
1.363e-09
-3.625e-10
1.404e-09
-3.803e-10
1.447e-09
-3.965e-10
1.491e-09
-4.104e-10
1.537e-09
-4.216e-10
1.584e-09
-4.295e-10
1.632e-09
-4.334e-10
1.68e-09
-4.328e-10
1.727e-09
-4.27e-10
1.774e-09
-4.155e-10
1.82e-09
-3.979e-10