/*--------------------------------*- C++ -*----------------------------------*\
  =========                 |
  \\      /  F ield         | OpenFOAM: The Open Source CFD Toolbox
   \\    /   O peration     | Website:  https://openfoam.org
    \\  /    A nd           | Version:  7
     \\/     M anipulation  |
\*---------------------------------------------------------------------------*/
FoamFile
{
    version     2.0;
    format      ascii;
    class       volVectorField;
    location    "1499.99947342098903";
    object      U;
}
// * * * * * * * * * * * * * * * * * * * * * * * * * * * * * * * * * * * * * //

dimensions      [0 1 -1 0 0 0 0];

internalField   nonuniform List<vector> 
4096
(
(0.001039 0.0001611 0)
(0.0007463 0.0001314 0)
(0.0005302 8.474e-05 0)
(0.0003919 5.358e-05 0)
(0.0003036 3.466e-05 0)
(0.0002457 2.328e-05 0)
(0.0002061 1.632e-05 0)
(0.0001778 1.194e-05 0)
(0.0001568 9.051e-06 0)
(0.0001407 7.062e-06 0)
(0.000128 5.633e-06 0)
(0.0001178 4.57e-06 0)
(0.0001095 3.753e-06 0)
(0.0001026 3.11e-06 0)
(9.692e-05 2.592e-06 0)
(9.216e-05 2.167e-06 0)
(8.818e-05 1.812e-06 0)
(8.486e-05 1.511e-06 0)
(8.21e-05 1.252e-06 0)
(7.982e-05 1.025e-06 0)
(7.797e-05 8.253e-07 0)
(7.65e-05 6.456e-07 0)
(7.537e-05 4.821e-07 0)
(7.456e-05 3.31e-07 0)
(7.404e-05 1.895e-07 0)
(7.379e-05 5.488e-08 0)
(7.381e-05 -7.495e-08 0)
(7.409e-05 -2.019e-07 0)
(7.462e-05 -3.276e-07 0)
(7.54e-05 -4.535e-07 0)
(7.643e-05 -5.809e-07 0)
(7.773e-05 -7.11e-07 0)
(7.928e-05 -8.447e-07 0)
(8.111e-05 -9.828e-07 0)
(8.322e-05 -1.126e-06 0)
(8.562e-05 -1.275e-06 0)
(8.832e-05 -1.429e-06 0)
(9.134e-05 -1.59e-06 0)
(9.469e-05 -1.756e-06 0)
(9.837e-05 -1.928e-06 0)
(0.0001024 -2.104e-06 0)
(0.0001068 -2.283e-06 0)
(0.0001115 -2.464e-06 0)
(0.0001166 -2.643e-06 0)
(0.0001221 -2.82e-06 0)
(0.0001279 -2.991e-06 0)
(0.0001341 -3.151e-06 0)
(0.0001405 -3.296e-06 0)
(0.0001472 -3.423e-06 0)
(0.0001542 -3.526e-06 0)
(0.0001613 -3.598e-06 0)
(0.0001685 -3.636e-06 0)
(0.0001758 -3.633e-06 0)
(0.000183 -3.584e-06 0)
(0.0001901 -3.484e-06 0)
(0.0001969 -3.331e-06 0)
(0.0002034 -3.123e-06 0)
(0.0002093 -2.858e-06 0)
(0.0002147 -2.538e-06 0)
(0.0002194 -2.168e-06 0)
(0.0002234 -1.752e-06 0)
(0.0002264 -1.301e-06 0)
(0.0002285 -8.229e-07 0)
(0.0002297 -3.304e-07 0)
(0.0002299 1.646e-07 0)
(0.000229 6.503e-07 0)
(0.0002273 1.116e-06 0)
(0.0002246 1.551e-06 0)
(0.0002211 1.949e-06 0)
(0.0002169 2.304e-06 0)
(0.0002119 2.613e-06 0)
(0.0002064 2.874e-06 0)
(0.0002005 3.086e-06 0)
(0.0001942 3.25e-06 0)
(0.0001875 3.368e-06 0)
(0.0001807 3.442e-06 0)
(0.0001738 3.477e-06 0)
(0.0001669 3.474e-06 0)
(0.0001599 3.439e-06 0)
(0.0001531 3.376e-06 0)
(0.0001465 3.287e-06 0)
(0.00014 3.179e-06 0)
(0.0001338 3.054e-06 0)
(0.0001278 2.916e-06 0)
(0.0001221 2.77e-06 0)
(0.0001167 2.617e-06 0)
(0.0001116 2.462e-06 0)
(0.0001069 2.305e-06 0)
(0.0001024 2.15e-06 0)
(9.827e-05 1.998e-06 0)
(9.442e-05 1.85e-06 0)
(9.087e-05 1.708e-06 0)
(8.759e-05 1.572e-06 0)
(8.457e-05 1.443e-06 0)
(8.181e-05 1.321e-06 0)
(7.928e-05 1.206e-06 0)
(7.698e-05 1.099e-06 0)
(7.488e-05 9.993e-07 0)
(7.297e-05 9.068e-07 0)
(7.124e-05 8.212e-07 0)
(6.968e-05 7.424e-07 0)
(6.827e-05 6.7e-07 0)
(6.7e-05 6.036e-07 0)
(6.585e-05 5.428e-07 0)
(6.482e-05 4.875e-07 0)
(6.389e-05 4.37e-07 0)
(6.307e-05 3.912e-07 0)
(6.232e-05 3.497e-07 0)
(6.166e-05 3.121e-07 0)
(6.107e-05 2.782e-07 0)
(6.055e-05 2.476e-07 0)
(6.008e-05 2.201e-07 0)
(5.966e-05 1.956e-07 0)
(5.929e-05 1.737e-07 0)
(5.897e-05 1.542e-07 0)
(5.868e-05 1.372e-07 0)
(5.842e-05 1.224e-07 0)
(5.818e-05 1.099e-07 0)
(5.797e-05 9.957e-08 0)
(5.778e-05 9.159e-08 0)
(5.76e-05 8.613e-08 0)
(5.743e-05 8.361e-08 0)
(5.727e-05 8.476e-08 0)
(5.709e-05 9.097e-08 0)
(5.69e-05 1.049e-07 0)
(5.666e-05 1.309e-07 0)
(5.635e-05 1.739e-07 0)
(5.595e-05 2.259e-07 0)
(0.001209 0.0003128 0)
(0.001154 0.0003282 0)
(0.00101 0.000248 0)
(0.0008613 0.0001771 0)
(0.0007345 0.0001262 0)
(0.0006327 9.144e-05 0)
(0.0005526 6.788e-05 0)
(0.0004895 5.173e-05 0)
(0.0004394 4.037e-05 0)
(0.0003991 3.215e-05 0)
(0.0003663 2.603e-05 0)
(0.0003393 2.134e-05 0)
(0.0003169 1.767e-05 0)
(0.0002983 1.473e-05 0)
(0.0002826 1.234e-05 0)
(0.0002694 1.036e-05 0)
(0.0002583 8.688e-06 0)
(0.000249 7.264e-06 0)
(0.0002413 6.032e-06 0)
(0.0002348 4.952e-06 0)
(0.0002296 3.994e-06 0)
(0.0002254 3.13e-06 0)
(0.0002222 2.343e-06 0)
(0.0002199 1.614e-06 0)
(0.0002183 9.3e-07 0)
(0.0002176 2.792e-07 0)
(0.0002177 -3.485e-07 0)
(0.0002184 -9.62e-07 0)
(0.0002199 -1.569e-06 0)
(0.0002221 -2.177e-06 0)
(0.000225 -2.79e-06 0)
(0.0002286 -3.416e-06 0)
(0.000233 -4.057e-06 0)
(0.0002381 -4.718e-06 0)
(0.000244 -5.402e-06 0)
(0.0002507 -6.111e-06 0)
(0.0002582 -6.846e-06 0)
(0.0002667 -7.608e-06 0)
(0.000276 -8.394e-06 0)
(0.0002862 -9.203e-06 0)
(0.0002974 -1.003e-05 0)
(0.0003095 -1.087e-05 0)
(0.0003226 -1.171e-05 0)
(0.0003366 -1.255e-05 0)
(0.0003516 -1.337e-05 0)
(0.0003675 -1.416e-05 0)
(0.0003843 -1.489e-05 0)
(0.0004019 -1.556e-05 0)
(0.0004201 -1.613e-05 0)
(0.0004389 -1.659e-05 0)
(0.0004582 -1.691e-05 0)
(0.0004777 -1.706e-05 0)
(0.0004972 -1.702e-05 0)
(0.0005166 -1.677e-05 0)
(0.0005355 -1.628e-05 0)
(0.0005537 -1.555e-05 0)
(0.0005709 -1.456e-05 0)
(0.0005868 -1.332e-05 0)
(0.0006012 -1.182e-05 0)
(0.0006137 -1.01e-05 0)
(0.0006241 -8.166e-06 0)
(0.0006322 -6.07e-06 0)
(0.0006379 -3.854e-06 0)
(0.000641 -1.571e-06 0)
(0.0006416 7.244e-07 0)
(0.0006395 2.979e-06 0)
(0.0006349 5.143e-06 0)
(0.0006279 7.173e-06 0)
(0.0006187 9.034e-06 0)
(0.0006075 1.07e-05 0)
(0.0005945 1.216e-05 0)
(0.0005799 1.339e-05 0)
(0.000564 1.44e-05 0)
(0.0005471 1.519e-05 0)
(0.0005294 1.577e-05 0)
(0.0005111 1.614e-05 0)
(0.0004924 1.633e-05 0)
(0.0004737 1.634e-05 0)
(0.000455 1.62e-05 0)
(0.0004365 1.592e-05 0)
(0.0004183 1.553e-05 0)
(0.0004007 1.504e-05 0)
(0.0003836 1.447e-05 0)
(0.0003673 1.384e-05 0)
(0.0003516 1.317e-05 0)
(0.0003368 1.246e-05 0)
(0.0003227 1.174e-05 0)
(0.0003095 1.101e-05 0)
(0.0002971 1.028e-05 0)
(0.0002856 9.571e-06 0)
(0.0002748 8.877e-06 0)
(0.0002649 8.206e-06 0)
(0.0002556 7.564e-06 0)
(0.0002472 6.953e-06 0)
(0.0002394 6.375e-06 0)
(0.0002322 5.83e-06 0)
(0.0002257 5.32e-06 0)
(0.0002197 4.844e-06 0)
(0.0002143 4.402e-06 0)
(0.0002093 3.993e-06 0)
(0.0002048 3.615e-06 0)
(0.0002008 3.267e-06 0)
(0.0001971 2.948e-06 0)
(0.0001938 2.655e-06 0)
(0.0001908 2.388e-06 0)
(0.0001881 2.145e-06 0)
(0.0001857 1.923e-06 0)
(0.0001836 1.722e-06 0)
(0.0001816 1.539e-06 0)
(0.0001799 1.375e-06 0)
(0.0001783 1.226e-06 0)
(0.000177 1.092e-06 0)
(0.0001757 9.722e-07 0)
(0.0001746 8.652e-07 0)
(0.0001736 7.703e-07 0)
(0.0001728 6.868e-07 0)
(0.000172 6.142e-07 0)
(0.0001713 5.524e-07 0)
(0.0001707 5.012e-07 0)
(0.0001701 4.609e-07 0)
(0.0001695 4.324e-07 0)
(0.000169 4.169e-07 0)
(0.0001685 4.166e-07 0)
(0.000168 4.354e-07 0)
(0.0001675 4.791e-07 0)
(0.0001669 5.562e-07 0)
(0.0001663 6.708e-07 0)
(0.0001657 7.904e-07 0)
(0.001226 0.0002775 0)
(0.001243 0.0004027 0)
(0.001194 0.0003664 0)
(0.001102 0.0002982 0)
(0.0009998 0.0002345 0)
(0.0009017 0.000183 0)
(0.0008144 0.0001437 0)
(0.0007394 0.0001141 0)
(0.0006757 9.175e-05 0)
(0.0006221 7.471e-05 0)
(0.0005769 6.148e-05 0)
(0.0005387 5.104e-05 0)
(0.0005064 4.267e-05 0)
(0.0004789 3.585e-05 0)
(0.0004556 3.021e-05 0)
(0.0004358 2.547e-05 0)
(0.000419 2.145e-05 0)
(0.0004048 1.8e-05 0)
(0.0003929 1.499e-05 0)
(0.000383 1.233e-05 0)
(0.0003749 9.964e-06 0)
(0.0003684 7.824e-06 0)
(0.0003634 5.864e-06 0)
(0.0003598 4.046e-06 0)
(0.0003574 2.337e-06 0)
(0.0003563 7.087e-07 0)
(0.0003564 -8.635e-07 0)
(0.0003576 -2.401e-06 0)
(0.0003599 -3.921e-06 0)
(0.0003633 -5.442e-06 0)
(0.0003679 -6.977e-06 0)
(0.0003736 -8.539e-06 0)
(0.0003804 -1.014e-05 0)
(0.0003884 -1.179e-05 0)
(0.0003977 -1.349e-05 0)
(0.0004082 -1.524e-05 0)
(0.00042 -1.706e-05 0)
(0.0004331 -1.894e-05 0)
(0.0004477 -2.088e-05 0)
(0.0004636 -2.287e-05 0)
(0.000481 -2.49e-05 0)
(0.0004998 -2.696e-05 0)
(0.0005201 -2.902e-05 0)
(0.0005419 -3.106e-05 0)
(0.000565 -3.305e-05 0)
(0.0005896 -3.495e-05 0)
(0.0006155 -3.672e-05 0)
(0.0006425 -3.832e-05 0)
(0.0006706 -3.969e-05 0)
(0.0006995 -4.077e-05 0)
(0.000729 -4.15e-05 0)
(0.0007588 -4.183e-05 0)
(0.0007887 -4.169e-05 0)
(0.0008183 -4.104e-05 0)
(0.0008472 -3.982e-05 0)
(0.000875 -3.8e-05 0)
(0.0009012 -3.556e-05 0)
(0.0009255 -3.251e-05 0)
(0.0009473 -2.885e-05 0)
(0.0009664 -2.464e-05 0)
(0.0009823 -1.993e-05 0)
(0.0009947 -1.484e-05 0)
(0.001003 -9.45e-06 0)
(0.001008 -3.902e-06 0)
(0.001009 1.68e-06 0)
(0.001006 7.165e-06 0)
(0.0009991 1.244e-05 0)
(0.0009886 1.739e-05 0)
(0.0009746 2.194e-05 0)
(0.0009576 2.603e-05 0)
(0.0009379 2.961e-05 0)
(0.0009157 3.266e-05 0)
(0.0008916 3.517e-05 0)
(0.0008658 3.714e-05 0)
(0.0008387 3.859e-05 0)
(0.0008108 3.956e-05 0)
(0.0007823 4.006e-05 0)
(0.0007535 4.014e-05 0)
(0.0007248 3.985e-05 0)
(0.0006963 3.922e-05 0)
(0.0006684 3.83e-05 0)
(0.0006412 3.714e-05 0)
(0.0006148 3.578e-05 0)
(0.0005895 3.426e-05 0)
(0.0005652 3.263e-05 0)
(0.0005422 3.092e-05 0)
(0.0005203 2.916e-05 0)
(0.0004997 2.739e-05 0)
(0.0004804 2.562e-05 0)
(0.0004623 2.387e-05 0)
(0.0004455 2.217e-05 0)
(0.0004299 2.052e-05 0)
(0.0004154 1.894e-05 0)
(0.000402 1.743e-05 0)
(0.0003898 1.6e-05 0)
(0.0003785 1.465e-05 0)
(0.0003681 1.338e-05 0)
(0.0003587 1.22e-05 0)
(0.00035 1.11e-05 0)
(0.0003422 1.008e-05 0)
(0.0003351 9.141e-06 0)
(0.0003286 8.272e-06 0)
(0.0003227 7.473e-06 0)
(0.0003174 6.741e-06 0)
(0.0003126 6.071e-06 0)
(0.0003083 5.459e-06 0)
(0.0003044 4.902e-06 0)
(0.0003009 4.395e-06 0)
(0.0002978 3.936e-06 0)
(0.000295 3.52e-06 0)
(0.0002925 3.144e-06 0)
(0.0002902 2.806e-06 0)
(0.0002882 2.502e-06 0)
(0.0002864 2.231e-06 0)
(0.0002848 1.989e-06 0)
(0.0002834 1.777e-06 0)
(0.0002821 1.592e-06 0)
(0.000281 1.433e-06 0)
(0.0002799 1.3e-06 0)
(0.000279 1.195e-06 0)
(0.0002781 1.116e-06 0)
(0.0002772 1.068e-06 0)
(0.0002765 1.053e-06 0)
(0.0002757 1.075e-06 0)
(0.0002749 1.139e-06 0)
(0.0002741 1.25e-06 0)
(0.0002733 1.399e-06 0)
(0.0002725 1.529e-06 0)
(0.001224 0.0002275 0)
(0.00126 0.0004003 0)
(0.001258 0.0004193 0)
(0.001216 0.0003789 0)
(0.001149 0.0003229 0)
(0.001074 0.0002685 0)
(0.0009976 0.0002214 0)
(0.0009263 0.0001826 0)
(0.0008619 0.0001513 0)
(0.0008048 0.000126 0)
(0.0007547 0.0001055 0)
(0.0007112 8.879e-05 0)
(0.0006734 7.504e-05 0)
(0.0006407 6.359e-05 0)
(0.0006126 5.396e-05 0)
(0.0005883 4.577e-05 0)
(0.0005675 3.873e-05 0)
(0.0005498 3.261e-05 0)
(0.0005349 2.724e-05 0)
(0.0005224 2.247e-05 0)
(0.0005121 1.819e-05 0)
(0.0005039 1.43e-05 0)
(0.0004976 1.073e-05 0)
(0.000493 7.4e-06 0)
(0.00049 4.262e-06 0)
(0.0004887 1.265e-06 0)
(0.0004888 -1.634e-06 0)
(0.0004905 -4.47e-06 0)
(0.0004936 -7.277e-06 0)
(0.0004981 -1.008e-05 0)
(0.0005042 -1.292e-05 0)
(0.0005117 -1.58e-05 0)
(0.0005207 -1.874e-05 0)
(0.0005312 -2.177e-05 0)
(0.0005434 -2.49e-05 0)
(0.0005572 -2.812e-05 0)
(0.0005727 -3.146e-05 0)
(0.0005899 -3.49e-05 0)
(0.0006088 -3.843e-05 0)
(0.0006297 -4.206e-05 0)
(0.0006523 -4.575e-05 0)
(0.0006769 -4.948e-05 0)
(0.0007033 -5.321e-05 0)
(0.0007315 -5.69e-05 0)
(0.0007616 -6.049e-05 0)
(0.0007935 -6.391e-05 0)
(0.000827 -6.709e-05 0)
(0.0008619 -6.995e-05 0)
(0.0008982 -7.238e-05 0)
(0.0009355 -7.429e-05 0)
(0.0009736 -7.556e-05 0)
(0.001012 -7.61e-05 0)
(0.001051 -7.58e-05 0)
(0.001089 -7.457e-05 0)
(0.001126 -7.231e-05 0)
(0.001161 -6.898e-05 0)
(0.001195 -6.453e-05 0)
(0.001226 -5.897e-05 0)
(0.001254 -5.233e-05 0)
(0.001279 -4.47e-05 0)
(0.001299 -3.618e-05 0)
(0.001315 -2.696e-05 0)
(0.001326 -1.722e-05 0)
(0.001333 -7.181e-06 0)
(0.001334 2.917e-06 0)
(0.00133 1.285e-05 0)
(0.001321 2.239e-05 0)
(0.001308 3.138e-05 0)
(0.00129 3.964e-05 0)
(0.001268 4.708e-05 0)
(0.001243 5.36e-05 0)
(0.001215 5.918e-05 0)
(0.001184 6.378e-05 0)
(0.001151 6.742e-05 0)
(0.001116 7.012e-05 0)
(0.00108 7.194e-05 0)
(0.001043 7.292e-05 0)
(0.001006 7.314e-05 0)
(0.000969 7.267e-05 0)
(0.0009323 7.159e-05 0)
(0.0008961 6.998e-05 0)
(0.0008609 6.793e-05 0)
(0.0008267 6.551e-05 0)
(0.0007938 6.28e-05 0)
(0.0007622 5.987e-05 0)
(0.0007322 5.68e-05 0)
(0.0007037 5.362e-05 0)
(0.0006768 5.041e-05 0)
(0.0006515 4.72e-05 0)
(0.0006278 4.403e-05 0)
(0.0006057 4.093e-05 0)
(0.0005852 3.793e-05 0)
(0.0005662 3.504e-05 0)
(0.0005486 3.228e-05 0)
(0.0005323 2.967e-05 0)
(0.0005174 2.72e-05 0)
(0.0005037 2.488e-05 0)
(0.0004912 2.271e-05 0)
(0.0004797 2.068e-05 0)
(0.0004693 1.88e-05 0)
(0.0004598 1.706e-05 0)
(0.0004511 1.546e-05 0)
(0.0004433 1.398e-05 0)
(0.0004362 1.263e-05 0)
(0.0004298 1.139e-05 0)
(0.000424 1.025e-05 0)
(0.0004187 9.216e-06 0)
(0.000414 8.274e-06 0)
(0.0004098 7.418e-06 0)
(0.000406 6.643e-06 0)
(0.0004026 5.942e-06 0)
(0.0003996 5.31e-06 0)
(0.0003968 4.742e-06 0)
(0.0003944 4.233e-06 0)
(0.0003922 3.781e-06 0)
(0.0003902 3.381e-06 0)
(0.0003885 3.031e-06 0)
(0.0003869 2.73e-06 0)
(0.0003855 2.476e-06 0)
(0.0003842 2.27e-06 0)
(0.000383 2.112e-06 0)
(0.0003819 2.004e-06 0)
(0.0003808 1.949e-06 0)
(0.0003798 1.95e-06 0)
(0.0003789 2.008e-06 0)
(0.0003779 2.12e-06 0)
(0.000377 2.265e-06 0)
(0.0003761 2.38e-06 0)
(0.001219 0.0001846 0)
(0.001255 0.0003712 0)
(0.001275 0.0004301 0)
(0.001265 0.000421 0)
(0.001229 0.0003827 0)
(0.001178 0.0003354 0)
(0.00112 0.0002886 0)
(0.001061 0.0002463 0)
(0.001003 0.0002096 0)
(0.0009494 0.0001784 0)
(0.0009004 0.0001521 0)
(0.0008563 0.0001298 0)
(0.0008171 0.000111 0)
(0.0007825 9.494e-05 0)
(0.0007521 8.118e-05 0)
(0.0007256 6.93e-05 0)
(0.0007026 5.894e-05 0)
(0.0006828 4.985e-05 0)
(0.000666 4.178e-05 0)
(0.0006519 3.456e-05 0)
(0.0006402 2.803e-05 0)
(0.0006308 2.206e-05 0)
(0.0006236 1.655e-05 0)
(0.0006184 1.139e-05 0)
(0.0006151 6.503e-06 0)
(0.0006137 1.827e-06 0)
(0.000614 -2.704e-06 0)
(0.0006161 -7.146e-06 0)
(0.00062 -1.155e-05 0)
(0.0006256 -1.595e-05 0)
(0.0006329 -2.039e-05 0)
(0.0006419 -2.491e-05 0)
(0.0006528 -2.953e-05 0)
(0.0006655 -3.427e-05 0)
(0.0006801 -3.916e-05 0)
(0.0006967 -4.42e-05 0)
(0.0007152 -4.94e-05 0)
(0.0007358 -5.476e-05 0)
(0.0007586 -6.027e-05 0)
(0.0007834 -6.59e-05 0)
(0.0008105 -7.162e-05 0)
(0.0008397 -7.74e-05 0)
(0.0008712 -8.318e-05 0)
(0.0009049 -8.887e-05 0)
(0.0009406 -9.44e-05 0)
(0.0009785 -9.967e-05 0)
(0.001018 -0.0001046 0)
(0.00106 -0.0001089 0)
(0.001103 -0.0001126 0)
(0.001147 -0.0001155 0)
(0.001192 -0.0001175 0)
(0.001237 -0.0001182 0)
(0.001283 -0.0001177 0)
(0.001328 -0.0001157 0)
(0.001372 -0.0001122 0)
(0.001414 -0.000107 0)
(0.001454 -0.0001001 0)
(0.001491 -9.146e-05 0)
(0.001524 -8.117e-05 0)
(0.001553 -6.935e-05 0)
(0.001577 -5.616e-05 0)
(0.001596 -4.188e-05 0)
(0.00161 -2.68e-05 0)
(0.001617 -1.127e-05 0)
(0.001619 4.364e-06 0)
(0.001614 1.974e-05 0)
(0.001604 3.453e-05 0)
(0.001588 4.845e-05 0)
(0.001567 6.127e-05 0)
(0.001541 7.281e-05 0)
(0.001512 8.296e-05 0)
(0.001478 9.165e-05 0)
(0.001442 9.884e-05 0)
(0.001403 0.0001045 0)
(0.001361 0.0001088 0)
(0.001319 0.0001117 0)
(0.001276 0.0001133 0)
(0.001232 0.0001137 0)
(0.001188 0.0001131 0)
(0.001144 0.0001115 0)
(0.001101 0.0001091 0)
(0.001059 0.000106 0)
(0.001019 0.0001023 0)
(0.0009794 9.814e-05 0)
(0.0009419 9.365e-05 0)
(0.000906 8.891e-05 0)
(0.000872 8.402e-05 0)
(0.0008398 7.906e-05 0)
(0.0008096 7.409e-05 0)
(0.0007812 6.918e-05 0)
(0.0007547 6.437e-05 0)
(0.00073 5.971e-05 0)
(0.0007071 5.521e-05 0)
(0.0006859 5.092e-05 0)
(0.0006663 4.684e-05 0)
(0.0006483 4.298e-05 0)
(0.0006317 3.935e-05 0)
(0.0006166 3.595e-05 0)
(0.0006027 3.278e-05 0)
(0.00059 2.983e-05 0)
(0.0005784 2.71e-05 0)
(0.0005679 2.458e-05 0)
(0.0005583 2.225e-05 0)
(0.0005497 2.012e-05 0)
(0.0005418 1.816e-05 0)
(0.0005347 1.637e-05 0)
(0.0005283 1.473e-05 0)
(0.0005226 1.324e-05 0)
(0.0005174 1.188e-05 0)
(0.0005127 1.065e-05 0)
(0.0005085 9.54e-06 0)
(0.0005047 8.535e-06 0)
(0.0005013 7.631e-06 0)
(0.0004983 6.82e-06 0)
(0.0004956 6.097e-06 0)
(0.0004932 5.457e-06 0)
(0.000491 4.895e-06 0)
(0.000489 4.408e-06 0)
(0.0004872 3.994e-06 0)
(0.0004856 3.652e-06 0)
(0.0004842 3.382e-06 0)
(0.0004828 3.184e-06 0)
(0.0004816 3.061e-06 0)
(0.0004804 3.011e-06 0)
(0.0004793 3.032e-06 0)
(0.0004782 3.115e-06 0)
(0.0004772 3.231e-06 0)
(0.0004762 3.322e-06 0)
(0.001214 0.000152 0)
(0.001246 0.0003354 0)
(0.001274 0.0004181 0)
(0.001282 0.0004353 0)
(0.001269 0.0004167 0)
(0.00124 0.0003814 0)
(0.0012 0.0003404 0)
(0.001155 0.0002994 0)
(0.001108 0.0002612 0)
(0.001061 0.000227 0)
(0.001017 0.0001967 0)
(0.0009759 0.0001703 0)
(0.0009383 0.0001473 0)
(0.0009044 0.0001272 0)
(0.000874 0.0001096 0)
(0.0008472 9.421e-05 0)
(0.0008236 8.058e-05 0)
(0.0008031 6.845e-05 0)
(0.0007856 5.758e-05 0)
(0.0007707 4.776e-05 0)
(0.0007584 3.88e-05 0)
(0.0007485 3.056e-05 0)
(0.0007409 2.29e-05 0)
(0.0007354 1.569e-05 0)
(0.0007321 8.845e-06 0)
(0.0007307 2.265e-06 0)
(0.0007314 -4.129e-06 0)
(0.0007339 -1.041e-05 0)
(0.0007385 -1.664e-05 0)
(0.0007449 -2.288e-05 0)
(0.0007533 -2.918e-05 0)
(0.0007637 -3.559e-05 0)
(0.0007761 -4.214e-05 0)
(0.0007906 -4.886e-05 0)
(0.0008072 -5.578e-05 0)
(0.000826 -6.291e-05 0)
(0.000847 -7.026e-05 0)
(0.0008703 -7.783e-05 0)
(0.000896 -8.56e-05 0)
(0.0009241 -9.353e-05 0)
(0.0009547 -0.0001016 0)
(0.0009877 -0.0001097 0)
(0.001023 -0.0001178 0)
(0.001061 -0.0001258 0)
(0.001101 -0.0001336 0)
(0.001144 -0.0001409 0)
(0.001189 -0.0001478 0)
(0.001235 -0.0001539 0)
(0.001284 -0.000159 0)
(0.001334 -0.0001631 0)
(0.001384 -0.0001657 0)
(0.001435 -0.0001668 0)
(0.001487 -0.000166 0)
(0.001537 -0.0001632 0)
(0.001587 -0.0001582 0)
(0.001634 -0.0001508 0)
(0.001679 -0.0001411 0)
(0.001721 -0.0001289 0)
(0.001758 -0.0001145 0)
(0.001791 -9.781e-05 0)
(0.001819 -7.925e-05 0)
(0.00184 -5.914e-05 0)
(0.001855 -3.791e-05 0)
(0.001863 -1.603e-05 0)
(0.001865 5.984e-06 0)
(0.00186 2.764e-05 0)
(0.001849 4.846e-05 0)
(0.001831 6.807e-05 0)
(0.001807 8.612e-05 0)
(0.001778 0.0001024 0)
(0.001745 0.0001167 0)
(0.001707 0.000129 0)
(0.001666 0.0001391 0)
(0.001622 0.0001472 0)
(0.001576 0.0001533 0)
(0.001528 0.0001575 0)
(0.00148 0.0001598 0)
(0.00143 0.0001605 0)
(0.001381 0.0001597 0)
(0.001332 0.0001576 0)
(0.001283 0.0001542 0)
(0.001236 0.0001499 0)
(0.00119 0.0001448 0)
(0.001146 0.000139 0)
(0.001104 0.0001328 0)
(0.001063 0.0001261 0)
(0.001025 0.0001193 0)
(0.0009882 0.0001123 0)
(0.0009539 0.0001054 0)
(0.0009217 9.845e-05 0)
(0.0008917 9.168e-05 0)
(0.0008636 8.511e-05 0)
(0.0008376 7.877e-05 0)
(0.0008134 7.271e-05 0)
(0.0007911 6.693e-05 0)
(0.0007706 6.147e-05 0)
(0.0007517 5.633e-05 0)
(0.0007343 5.151e-05 0)
(0.0007184 4.701e-05 0)
(0.0007039 4.282e-05 0)
(0.0006906 3.894e-05 0)
(0.0006785 3.534e-05 0)
(0.0006675 3.203e-05 0)
(0.0006576 2.898e-05 0)
(0.0006485 2.618e-05 0)
(0.0006403 2.362e-05 0)
(0.0006329 2.128e-05 0)
(0.0006263 1.914e-05 0)
(0.0006202 1.72e-05 0)
(0.0006148 1.544e-05 0)
(0.0006099 1.384e-05 0)
(0.0006055 1.239e-05 0)
(0.0006016 1.109e-05 0)
(0.0005981 9.923e-06 0)
(0.0005949 8.878e-06 0)
(0.0005921 7.951e-06 0)
(0.0005895 7.133e-06 0)
(0.0005872 6.422e-06 0)
(0.0005851 5.812e-06 0)
(0.0005833 5.3e-06 0)
(0.0005816 4.887e-06 0)
(0.0005801 4.569e-06 0)
(0.0005786 4.346e-06 0)
(0.0005773 4.216e-06 0)
(0.0005761 4.172e-06 0)
(0.0005749 4.201e-06 0)
(0.0005738 4.273e-06 0)
(0.0005728 4.336e-06 0)
(0.00121 0.0001279 0)
(0.001237 0.0003007 0)
(0.001267 0.0003955 0)
(0.001285 0.0004319 0)
(0.001287 0.000431 0)
(0.001274 0.000409 0)
(0.00125 0.0003764 0)
(0.001219 0.00034 0)
(0.001183 0.0003033 0)
(0.001146 0.0002685 0)
(0.001109 0.0002365 0)
(0.001073 0.0002075 0)
(0.001039 0.0001815 0)
(0.001008 0.0001582 0)
(0.0009791 0.0001375 0)
(0.0009535 0.0001189 0)
(0.0009306 0.0001023 0)
(0.0009106 8.726e-05 0)
(0.0008933 7.367e-05 0)
(0.0008786 6.126e-05 0)
(0.0008663 4.985e-05 0)
(0.0008564 3.927e-05 0)
(0.0008489 2.937e-05 0)
(0.0008435 2.001e-05 0)
(0.0008403 1.107e-05 0)
(0.0008393 2.45e-06 0)
(0.0008403 -5.957e-06 0)
(0.0008433 -1.424e-05 0)
(0.0008485 -2.246e-05 0)
(0.0008557 -3.072e-05 0)
(0.000865 -3.905e-05 0)
(0.0008764 -4.753e-05 0)
(0.00089 -5.62e-05 0)
(0.0009058 -6.51e-05 0)
(0.000924 -7.425e-05 0)
(0.0009444 -8.369e-05 0)
(0.0009673 -9.34e-05 0)
(0.0009927 -0.0001034 0)
(0.001021 -0.0001137 0)
(0.001051 -0.0001241 0)
(0.001084 -0.0001347 0)
(0.00112 -0.0001454 0)
(0.001159 -0.0001561 0)
(0.0012 -0.0001666 0)
(0.001244 -0.0001768 0)
(0.00129 -0.0001865 0)
(0.001338 -0.0001955 0)
(0.001389 -0.0002035 0)
(0.001441 -0.0002103 0)
(0.001495 -0.0002155 0)
(0.00155 -0.000219 0)
(0.001606 -0.0002204 0)
(0.001662 -0.0002193 0)
(0.001717 -0.0002156 0)
(0.001771 -0.0002091 0)
(0.001823 -0.0001994 0)
(0.001872 -0.0001866 0)
(0.001917 -0.0001705 0)
(0.001958 -0.0001514 0)
(0.001994 -0.0001294 0)
(0.002024 -0.0001049 0)
(0.002047 -7.834e-05 0)
(0.002064 -5.026e-05 0)
(0.002073 -2.133e-05 0)
(0.002075 7.772e-06 0)
(0.00207 3.639e-05 0)
(0.002057 6.39e-05 0)
(0.002037 8.979e-05 0)
(0.002012 0.0001136 0)
(0.00198 0.0001351 0)
(0.001944 0.000154 0)
(0.001903 0.0001702 0)
(0.001858 0.0001837 0)
(0.001811 0.0001944 0)
(0.00176 0.0002025 0)
(0.001708 0.000208 0)
(0.001655 0.0002112 0)
(0.001602 0.0002122 0)
(0.001548 0.0002112 0)
(0.001495 0.0002085 0)
(0.001442 0.0002042 0)
(0.001391 0.0001985 0)
(0.001341 0.0001919 0)
(0.001293 0.0001843 0)
(0.001247 0.0001761 0)
(0.001203 0.0001674 0)
(0.001161 0.0001584 0)
(0.001121 0.0001492 0)
(0.001084 0.0001401 0)
(0.001049 0.000131 0)
(0.001016 0.000122 0)
(0.0009855 0.0001134 0)
(0.0009571 0.000105 0)
(0.0009307 9.699e-05 0)
(0.0009063 8.936e-05 0)
(0.0008838 8.213e-05 0)
(0.000863 7.532e-05 0)
(0.000844 6.893e-05 0)
(0.0008265 6.295e-05 0)
(0.0008106 5.739e-05 0)
(0.000796 5.222e-05 0)
(0.0007827 4.744e-05 0)
(0.0007705 4.303e-05 0)
(0.0007595 3.897e-05 0)
(0.0007495 3.523e-05 0)
(0.0007405 3.181e-05 0)
(0.0007323 2.869e-05 0)
(0.0007249 2.583e-05 0)
(0.0007182 2.323e-05 0)
(0.0007122 2.087e-05 0)
(0.0007067 1.872e-05 0)
(0.0007018 1.678e-05 0)
(0.0006975 1.503e-05 0)
(0.0006935 1.346e-05 0)
(0.00069 1.205e-05 0)
(0.0006868 1.079e-05 0)
(0.000684 9.686e-06 0)
(0.0006814 8.716e-06 0)
(0.0006791 7.878e-06 0)
(0.000677 7.168e-06 0)
(0.0006752 6.581e-06 0)
(0.0006735 6.115e-06 0)
(0.0006719 5.767e-06 0)
(0.0006705 5.531e-06 0)
(0.0006692 5.398e-06 0)
(0.000668 5.353e-06 0)
(0.0006668 5.369e-06 0)
(0.0006657 5.399e-06 0)
(0.001208 0.0001097 0)
(0.00123 0.0002696 0)
(0.001258 0.000369 0)
(0.001281 0.000418 0)
(0.001292 0.0004314 0)
(0.001292 0.0004218 0)
(0.001281 0.0003986 0)
(0.001262 0.0003683 0)
(0.001237 0.0003352 0)
(0.001209 0.0003019 0)
(0.00118 0.0002698 0)
(0.00115 0.0002397 0)
(0.001121 0.0002119 0)
(0.001094 0.0001864 0)
(0.001069 0.0001632 0)
(0.001045 0.0001421 0)
(0.001024 0.0001229 0)
(0.001006 0.0001053 0)
(0.0009893 8.922e-05 0)
(0.0009754 7.437e-05 0)
(0.0009638 6.06e-05 0)
(0.0009545 4.773e-05 0)
(0.0009473 3.56e-05 0)
(0.0009424 2.406e-05 0)
(0.0009396 1.299e-05 0)
(0.000939 2.267e-06 0)
(0.0009404 -8.226e-06 0)
(0.0009439 -1.859e-05 0)
(0.0009496 -2.891e-05 0)
(0.0009574 -3.928e-05 0)
(0.0009674 -4.977e-05 0)
(0.0009796 -6.044e-05 0)
(0.000994 -7.135e-05 0)
(0.001011 -8.256e-05 0)
(0.00103 -9.409e-05 0)
(0.001052 -0.000106 0)
(0.001076 -0.0001182 0)
(0.001103 -0.0001308 0)
(0.001132 -0.0001437 0)
(0.001164 -0.0001568 0)
(0.001199 -0.0001702 0)
(0.001237 -0.0001836 0)
(0.001278 -0.000197 0)
(0.001321 -0.0002102 0)
(0.001367 -0.000223 0)
(0.001416 -0.0002352 0)
(0.001467 -0.0002464 0)
(0.00152 -0.0002565 0)
(0.001576 -0.0002651 0)
(0.001633 -0.0002717 0)
(0.001691 -0.0002761 0)
(0.00175 -0.0002779 0)
(0.001809 -0.0002766 0)
(0.001867 -0.000272 0)
(0.001925 -0.0002638 0)
(0.00198 -0.0002517 0)
(0.002032 -0.0002356 0)
(0.002081 -0.0002154 0)
(0.002124 -0.0001914 0)
(0.002163 -0.0001636 0)
(0.002195 -0.0001327 0)
(0.00222 -9.912e-05 0)
(0.002238 -6.363e-05 0)
(0.002247 -2.705e-05 0)
(0.002249 9.745e-06 0)
(0.002243 4.589e-05 0)
(0.00223 8.062e-05 0)
(0.002209 0.0001133 0)
(0.002181 0.0001433 0)
(0.002148 0.0001703 0)
(0.002109 0.0001941 0)
(0.002066 0.0002145 0)
(0.002018 0.0002315 0)
(0.001968 0.000245 0)
(0.001914 0.0002552 0)
(0.001859 0.0002622 0)
(0.001803 0.0002663 0)
(0.001747 0.0002676 0)
(0.00169 0.0002664 0)
(0.001633 0.000263 0)
(0.001578 0.0002576 0)
(0.001524 0.0002506 0)
(0.001471 0.0002422 0)
(0.00142 0.0002328 0)
(0.001372 0.0002225 0)
(0.001325 0.0002116 0)
(0.001281 0.0002003 0)
(0.001239 0.0001888 0)
(0.001199 0.0001773 0)
(0.001162 0.0001659 0)
(0.001128 0.0001546 0)
(0.001095 0.0001437 0)
(0.001065 0.0001332 0)
(0.001037 0.0001231 0)
(0.001011 0.0001135 0)
(0.0009875 0.0001044 0)
(0.0009655 9.579e-05 0)
(0.0009453 8.772e-05 0)
(0.0009267 8.017e-05 0)
(0.0009097 7.314e-05 0)
(0.0008942 6.66e-05 0)
(0.00088 6.055e-05 0)
(0.0008671 5.496e-05 0)
(0.0008554 4.981e-05 0)
(0.0008447 4.507e-05 0)
(0.000835 4.073e-05 0)
(0.0008262 3.675e-05 0)
(0.0008183 3.312e-05 0)
(0.0008111 2.981e-05 0)
(0.0008046 2.68e-05 0)
(0.0007988 2.406e-05 0)
(0.0007935 2.158e-05 0)
(0.0007888 1.935e-05 0)
(0.0007845 1.733e-05 0)
(0.0007807 1.553e-05 0)
(0.0007773 1.391e-05 0)
(0.0007742 1.249e-05 0)
(0.0007715 1.123e-05 0)
(0.000769 1.014e-05 0)
(0.0007668 9.203e-06 0)
(0.0007648 8.42e-06 0)
(0.000763 7.782e-06 0)
(0.0007613 7.286e-06 0)
(0.0007598 6.922e-06 0)
(0.0007585 6.682e-06 0)
(0.0007572 6.549e-06 0)
(0.000756 6.498e-06 0)
(0.0007549 6.494e-06 0)
(0.001206 9.565e-05 0)
(0.001225 0.0002425 0)
(0.001251 0.0003418 0)
(0.001275 0.0003986 0)
(0.001292 0.0004226 0)
(0.0013 0.0004235 0)
(0.001298 0.0004092 0)
(0.001289 0.0003858 0)
(0.001275 0.0003573 0)
(0.001256 0.0003267 0)
(0.001234 0.0002959 0)
(0.001211 0.000266 0)
(0.001188 0.0002375 0)
(0.001165 0.0002107 0)
(0.001144 0.0001859 0)
(0.001124 0.0001628 0)
(0.001105 0.0001416 0)
(0.001089 0.0001218 0)
(0.001074 0.0001035 0)
(0.001062 8.651e-05 0)
(0.001051 7.056e-05 0)
(0.001043 5.553e-05 0)
(0.001036 4.126e-05 0)
(0.001032 2.762e-05 0)
(0.00103 1.445e-05 0)
(0.00103 1.633e-06 0)
(0.001032 -1.095e-05 0)
(0.001036 -2.342e-05 0)
(0.001042 -3.586e-05 0)
(0.00105 -4.839e-05 0)
(0.00106 -6.107e-05 0)
(0.001073 -7.4e-05 0)
(0.001088 -8.722e-05 0)
(0.001105 -0.0001008 0)
(0.001125 -0.0001148 0)
(0.001147 -0.0001292 0)
(0.001172 -0.000144 0)
(0.0012 -0.0001593 0)
(0.00123 -0.0001749 0)
(0.001263 -0.0001908 0)
(0.001299 -0.000207 0)
(0.001338 -0.0002233 0)
(0.001379 -0.0002396 0)
(0.001424 -0.0002556 0)
(0.001471 -0.0002711 0)
(0.001521 -0.0002859 0)
(0.001574 -0.0002996 0)
(0.001629 -0.0003118 0)
(0.001686 -0.0003223 0)
(0.001745 -0.0003304 0)
(0.001806 -0.0003358 0)
(0.001867 -0.0003381 0)
(0.001928 -0.0003367 0)
(0.001989 -0.0003313 0)
(0.002048 -0.0003214 0)
(0.002106 -0.0003068 0)
(0.002161 -0.0002874 0)
(0.002211 -0.0002629 0)
(0.002257 -0.0002337 0)
(0.002298 -0.0001999 0)
(0.002331 -0.0001622 0)
(0.002358 -0.0001211 0)
(0.002376 -7.776e-05 0)
(0.002386 -3.303e-05 0)
(0.002388 1.194e-05 0)
(0.002382 5.608e-05 0)
(0.002368 9.843e-05 0)
(0.002346 0.0001382 0)
(0.002317 0.0001747 0)
(0.002282 0.0002075 0)
(0.002241 0.0002364 0)
(0.002196 0.0002611 0)
(0.002146 0.0002816 0)
(0.002094 0.000298 0)
(0.002039 0.0003104 0)
(0.001982 0.0003189 0)
(0.001924 0.0003239 0)
(0.001865 0.0003255 0)
(0.001806 0.000324 0)
(0.001748 0.0003199 0)
(0.001691 0.0003134 0)
(0.001635 0.000305 0)
(0.00158 0.0002948 0)
(0.001528 0.0002834 0)
(0.001478 0.0002709 0)
(0.00143 0.0002577 0)
(0.001384 0.000244 0)
(0.001341 0.0002301 0)
(0.0013 0.0002161 0)
(0.001262 0.0002023 0)
(0.001226 0.0001887 0)
(0.001193 0.0001754 0)
(0.001162 0.0001627 0)
(0.001133 0.0001504 0)
(0.001106 0.0001387 0)
(0.001082 0.0001277 0)
(0.001059 0.0001172 0)
(0.001038 0.0001074 0)
(0.001019 9.822e-05 0)
(0.001001 8.966e-05 0)
(0.0009851 8.17e-05 0)
(0.0009704 7.432e-05 0)
(0.000957 6.75e-05 0)
(0.0009448 6.121e-05 0)
(0.0009338 5.543e-05 0)
(0.0009237 5.012e-05 0)
(0.0009146 4.526e-05 0)
(0.0009063 4.082e-05 0)
(0.0008988 3.676e-05 0)
(0.0008921 3.307e-05 0)
(0.000886 2.972e-05 0)
(0.0008805 2.668e-05 0)
(0.0008755 2.393e-05 0)
(0.0008711 2.145e-05 0)
(0.0008671 1.922e-05 0)
(0.0008635 1.723e-05 0)
(0.0008603 1.546e-05 0)
(0.0008574 1.39e-05 0)
(0.0008548 1.253e-05 0)
(0.0008525 1.135e-05 0)
(0.0008504 1.035e-05 0)
(0.0008486 9.527e-06 0)
(0.0008469 8.865e-06 0)
(0.0008453 8.358e-06 0)
(0.000844 7.996e-06 0)
(0.0008427 7.764e-06 0)
(0.0008415 7.641e-06 0)
(0.0008404 7.6e-06 0)
(0.001205 8.445e-05 0)
(0.001221 0.000219 0)
(0.001245 0.0003155 0)
(0.001269 0.0003764 0)
(0.001289 0.0004079 0)
(0.001302 0.0004173 0)
(0.001308 0.0004109 0)
(0.001307 0.000394 0)
(0.0013 0.0003706 0)
(0.001289 0.0003436 0)
(0.001275 0.000315 0)
(0.001259 0.0002861 0)
(0.001241 0.0002578 0)
(0.001224 0.0002306 0)
(0.001207 0.0002048 0)
(0.00119 0.0001805 0)
(0.001175 0.0001577 0)
(0.001161 0.0001363 0)
(0.001148 0.0001162 0)
(0.001137 9.723e-05 0)
(0.001128 7.935e-05 0)
(0.001121 6.236e-05 0)
(0.001116 4.612e-05 0)
(0.001112 3.048e-05 0)
(0.001111 1.532e-05 0)
(0.001111 4.92e-07 0)
(0.001114 -1.412e-05 0)
(0.001118 -2.865e-05 0)
(0.001125 -4.319e-05 0)
(0.001133 -5.785e-05 0)
(0.001144 -7.272e-05 0)
(0.001157 -8.789e-05 0)
(0.001172 -0.0001034 0)
(0.001189 -0.0001194 0)
(0.001209 -0.0001358 0)
(0.001231 -0.0001528 0)
(0.001256 -0.0001702 0)
(0.001284 -0.0001882 0)
(0.001314 -0.0002066 0)
(0.001348 -0.0002254 0)
(0.001384 -0.0002444 0)
(0.001423 -0.0002636 0)
(0.001464 -0.0002828 0)
(0.001509 -0.0003017 0)
(0.001557 -0.00032 0)
(0.001607 -0.0003375 0)
(0.00166 -0.0003538 0)
(0.001716 -0.0003683 0)
(0.001774 -0.0003807 0)
(0.001834 -0.0003905 0)
(0.001895 -0.0003971 0)
(0.001957 -0.0004 0)
(0.002019 -0.0003986 0)
(0.002081 -0.0003924 0)
(0.002142 -0.000381 0)
(0.002201 -0.0003639 0)
(0.002258 -0.0003411 0)
(0.00231 -0.0003123 0)
(0.002357 -0.0002777 0)
(0.002399 -0.0002377 0)
(0.002434 -0.0001929 0)
(0.002461 -0.0001441 0)
(0.00248 -9.241e-05 0)
(0.002491 -3.912e-05 0)
(0.002493 1.442e-05 0)
(0.002486 6.69e-05 0)
(0.002471 0.0001171 0)
(0.002448 0.0001642 0)
(0.002418 0.0002074 0)
(0.002382 0.0002461 0)
(0.00234 0.0002801 0)
(0.002294 0.0003092 0)
(0.002243 0.0003333 0)
(0.002189 0.0003526 0)
(0.002133 0.0003671 0)
(0.002075 0.0003772 0)
(0.002016 0.0003829 0)
(0.001957 0.0003848 0)
(0.001897 0.000383 0)
(0.001838 0.0003782 0)
(0.00178 0.0003705 0)
(0.001723 0.0003605 0)
(0.001668 0.0003485 0)
(0.001616 0.000335 0)
(0.001565 0.0003203 0)