/*--------------------------------*- C++ -*----------------------------------*\
  =========                 |
  \\      /  F ield         | OpenFOAM: The Open Source CFD Toolbox
   \\    /   O peration     | Website:  https://openfoam.org
    \\  /    A nd           | Version:  7
     \\/     M anipulation  |
\*---------------------------------------------------------------------------*/
FoamFile
{
    version     2.0;
    format      ascii;
    class       volScalarField;
    location    "1499.99947342098903";
    object      Y.K;
}
// * * * * * * * * * * * * * * * * * * * * * * * * * * * * * * * * * * * * * //

dimensions      [0 0 0 0 0 0 0];

internalField   nonuniform List<scalar> 
4096
(
1.529e-71
1.364e-69
-4.713e-70
6.564e-70
-2.215e-70
-5.074e-70
2.209e-70
1.629e-70
-9.211e-71
-1.893e-71
3.192e-70
-4.498e-69
6.271e-68
-8.458e-67
1.136e-65
-1.427e-64
1.719e-63
-2.02e-62
2.227e-61
-2.429e-60
2.561e-59
-2.61e-58
2.593e-57
-2.489e-56
2.301e-55
-2.039e-54
1.671e-53
-1.289e-52
9.433e-52
-6.464e-51
3.565e-50
-1.662e-49
-1.934e-49
1.575e-47
-2.434e-46
2.865e-45
-2.967e-44
2.728e-43
-2.355e-42
1.947e-41
-1.503e-40
1.083e-39
-7.352e-39
4.633e-38
-2.687e-37
1.382e-36
-6.3e-36
2.357e-35
-6.376e-35
1.432e-34
-5.347e-34
1.346e-32
-1.252e-31
1.169e-30
-6.69e-30
4.151e-29
-1.372e-28
7.721e-28
-1.158e-27
1.466e-26
9.407e-27
2.73e-25
9.475e-25
2.367e-24
1.884e-23
5.775e-23
1.668e-22
1.183e-21
5.308e-21
7.346e-20
1.068e-18
3.075e-18
6.539e-18
1.234e-17
2.184e-17
3.707e-17
6.092e-17
9.75e-17
1.525e-16
2.334e-16
3.505e-16
5.169e-16
7.494e-16
1.069e-15
1.503e-15
2.082e-15
2.848e-15
3.846e-15
5.134e-15
6.778e-15
8.858e-15
1.147e-14
1.471e-14
1.871e-14
2.362e-14
2.96e-14
3.683e-14
4.555e-14
5.598e-14
6.843e-14
8.32e-14
1.007e-13
1.212e-13
1.453e-13
1.736e-13
2.064e-13
2.447e-13
2.889e-13
3.401e-13
3.991e-13
4.67e-13
5.448e-13
6.339e-13
7.357e-13
8.517e-13
9.837e-13
1.134e-12
1.304e-12
1.496e-12
1.713e-12
1.957e-12
2.231e-12
2.539e-12
2.88e-12
3.254e-12
3.651e-12
4.044e-12
4.353e-12
-4.54e-69
2.397e-68
-3.087e-68
4.754e-69
2.17e-68
-1.922e-68
5.483e-70
1.113e-68
-2.252e-69
-2.378e-69
1.768e-68
-2.571e-67
3.434e-66
-4.77e-65
6.315e-64
-7.935e-63
9.512e-62
-1.095e-60
1.215e-59
-1.307e-58
1.366e-57
-1.388e-56
1.371e-55
-1.312e-54
1.207e-53
-1.066e-52
8.726e-52
-6.752e-51
4.968e-50
-3.422e-49
1.928e-48
-9.733e-48
2.299e-50
7.156e-46
-1.197e-44
1.4e-43
-1.448e-42
1.349e-41
-1.168e-40
9.495e-40
-7.298e-39
5.238e-38
-3.544e-37
2.23e-36
-1.293e-35
6.739e-35
-3.114e-34
1.189e-33
-3.318e-33
7.685e-33
-1.525e-32
5.978e-31
-4.634e-30
4.878e-29
-2.696e-28
1.838e-27
-5.497e-27
3.483e-26
-3.284e-26
6.844e-25
8.906e-25
1.322e-23
4.639e-23
1.25e-22
8.464e-22
2.625e-21
7.286e-21
4.422e-20
1.526e-19
9.749e-19
2.727e-18
5.812e-18
1.104e-17
1.962e-17
3.334e-17
5.479e-17
8.756e-17
1.366e-16
2.086e-16
3.123e-16
4.59e-16
6.636e-16
9.442e-16
1.324e-15
1.831e-15
2.5e-15
3.372e-15
4.497e-15
5.935e-15
7.755e-15
1.004e-14
1.289e-14
1.64e-14
2.072e-14
2.6e-14
3.239e-14
4.011e-14
4.938e-14
6.045e-14
7.362e-14
8.922e-14
1.076e-13
1.293e-13
1.546e-13
1.843e-13
2.187e-13
2.588e-13
3.051e-13
3.587e-13
4.204e-13
4.912e-13
5.725e-13
6.655e-13
7.716e-13
8.926e-13
1.03e-12
1.186e-12
1.363e-12
1.563e-12
1.789e-12
2.043e-12
2.329e-12
2.649e-12
3.007e-12
3.402e-12
3.834e-12
4.289e-12
4.72e-12
1.018e-67
-7.092e-67
1.786e-66
-2.413e-66
1.704e-66
-2.901e-67
-5.885e-67
5.404e-67
8.898e-68
-1.802e-67
9.457e-67
-1.413e-65
1.824e-64
-2.514e-63
3.308e-62
-4.124e-61
4.905e-60
-5.599e-59
6.167e-58
-6.582e-57
6.829e-56
-6.894e-55
6.768e-54
-6.443e-53
5.911e-52
-5.203e-51
4.267e-50
-3.324e-49
2.473e-48
-1.728e-47
1.014e-46
-5.747e-46
9.109e-46
2.6e-44
-5.008e-43
6.05e-42
-6.354e-41
5.948e-40
-5.158e-39
4.195e-38
-3.226e-37
2.309e-36
-1.563e-35
9.861e-35
-5.757e-34
3.041e-33
-1.445e-32
5.744e-32
-1.702e-31
4.186e-31
-3.118e-32
2.187e-29
-1.083e-28
1.735e-27
-8.699e-27
7.452e-26
-1.782e-25
1.471e-24
2.04e-25
3.027e-23
7.022e-23
6.441e-22
2.222e-21
6.36e-21
3.599e-20
1.096e-19
2.86e-19
1.336e-18
3.542e-18
7.378e-18
1.39e-17
2.466e-17
4.187e-17
6.864e-17
1.092e-16
1.691e-16
2.558e-16
3.784e-16
5.487e-16
7.812e-16
1.094e-15
1.508e-15
2.049e-15
2.749e-15
3.645e-15
4.781e-15
6.21e-15
7.992e-15
1.02e-14
1.292e-14
1.625e-14
2.031e-14
2.523e-14
3.116e-14
3.828e-14
4.679e-14
5.694e-14
6.899e-14
8.323e-14
1e-13
1.198e-13
1.429e-13
1.699e-13
2.014e-13
2.379e-13
2.803e-13
3.293e-13
3.858e-13
4.508e-13
5.255e-13
6.11e-13
7.088e-13
8.204e-13
9.474e-13
1.092e-12
1.256e-12
1.441e-12
1.651e-12
1.888e-12
2.155e-12
2.454e-12
2.791e-12
3.168e-12
3.589e-12
4.058e-12
4.578e-12
5.151e-12
5.795e-12
-1.669e-66
1.327e-65
-4.687e-65
1.018e-64
-1.446e-64
1.364e-64
-7.922e-65
1.732e-65
1.057e-65
-9.569e-66
4.822e-65
-7.474e-64
9.09e-63
-1.235e-61
1.607e-60
-1.979e-59
2.324e-58
-2.619e-57
2.85e-56
-3.007e-55
3.087e-54
-3.088e-53
3.007e-52
-2.845e-51
2.6e-50
-2.285e-49
1.883e-48
-1.483e-47
1.122e-46
-8.031e-46
5.006e-45
-3.108e-44
1.041e-43
5.281e-43
-1.643e-41
2.16e-40
-2.35e-39
2.235e-38
-1.951e-37
1.597e-36
-1.235e-35
8.824e-35
-5.998e-34
3.811e-33
-2.257e-32
1.221e-31
-6.075e-31
2.572e-30
-8.388e-30
2.49e-29
1.181e-29
5.874e-28
8.991e-28
4.791e-26
-1.469e-25
2.657e-24
-3.098e-24
5.582e-23
8.66e-23
1.189e-21
4.412e-21
2.881e-20
9.515e-20
2.745e-19
1.202e-18
3.372e-18
7.433e-18
1.485e-17
2.785e-17
4.974e-17
8.519e-17
1.406e-16
2.245e-16
3.476e-16
5.232e-16
7.677e-16
1.1e-15
1.542e-15
2.12e-15
2.863e-15
3.805e-15
4.982e-15
6.439e-15
8.225e-15
1.04e-14
1.303e-14
1.618e-14
1.997e-14
2.447e-14
2.983e-14
3.618e-14
4.369e-14
5.254e-14
6.295e-14
7.519e-14
8.952e-14
1.063e-13
1.259e-13
1.487e-13
1.752e-13
2.061e-13
2.418e-13
2.83e-13
3.307e-13
3.856e-13
4.488e-13
5.213e-13
6.044e-13
6.994e-13
8.079e-13
9.315e-13
1.072e-12
1.232e-12
1.413e-12
1.618e-12
1.85e-12
2.111e-12
2.405e-12
2.736e-12
3.108e-12
3.524e-12
3.989e-12
4.509e-12
5.088e-12
5.731e-12
6.446e-12
7.246e-12
8.255e-12
2.366e-65
-2.043e-64
8.93e-64
-2.593e-63
5.282e-63
-7.841e-63
8.584e-63
-6.771e-63
3.517e-63
-9.73e-64
2.644e-63
-3.856e-62
4.246e-61
-5.63e-60
7.184e-59
-8.672e-58
9.982e-57
-1.104e-55
1.179e-54
-1.223e-53
1.236e-52
-1.22e-51
1.175e-50
-1.102e-49
1.003e-48
-8.808e-48
7.31e-47
-5.852e-46
4.532e-45
-3.347e-44
2.244e-43
-1.525e-42
7.454e-42
-1.052e-41
-3.322e-40
5.82e-39
-6.843e-38
6.783e-37
-6.022e-36
5.011e-35
-3.933e-34
2.804e-33
-1.921e-32
1.234e-31
-7.471e-31
4.181e-30
-2.232e-29
1.035e-28
-3.861e-28
1.489e-27
-2.881e-28
1.986e-26
2.3e-25
6.998e-25
3.326e-24
8.36e-23
6.916e-23
1.836e-21
7.499e-21
5.211e-20
2.119e-19
9.974e-19
3.114e-18
7.667e-18
1.697e-17
3.499e-17
6.808e-17
1.259e-16
2.223e-16
3.761e-16
6.116e-16
9.59e-16
1.454e-15
2.135e-15
3.048e-15
4.237e-15
5.751e-15
7.638e-15
9.947e-15
1.273e-14
1.604e-14
1.994e-14
2.449e-14
2.977e-14
3.587e-14
4.29e-14
5.098e-14
6.025e-14
7.09e-14
8.313e-14
9.716e-14
1.133e-13
1.318e-13
1.531e-13
1.776e-13
2.057e-13
2.38e-13
2.752e-13
3.179e-13
3.668e-13
4.229e-13
4.873e-13
5.609e-13
6.451e-13
7.412e-13
8.509e-13
9.758e-13
1.118e-12
1.279e-12
1.463e-12
1.67e-12
1.905e-12
2.17e-12
2.469e-12
2.806e-12
3.185e-12
3.61e-12
4.087e-12
4.621e-12
5.218e-12
5.883e-12
6.625e-12
7.449e-12
8.363e-12
9.375e-12
1.049e-11
1.174e-11
1.344e-11
-3.081e-64
2.808e-63
-1.423e-62
5.077e-62
-1.331e-61
2.657e-61
-4.121e-61
4.986e-61
-4.613e-61
3.052e-61
3.388e-62
-1.922e-60
1.846e-59
-2.352e-58
2.912e-57
-3.41e-56
3.811e-55
-4.097e-54
4.264e-53
-4.318e-52
4.27e-51
-4.133e-50
3.918e-49
-3.633e-48
3.284e-47
-2.883e-46
2.417e-45
-1.973e-44
1.572e-43
-1.205e-42
8.767e-42
-5.792e-41
3.767e-40
-1.615e-39
1.585e-39
7.137e-38
-1.33e-36
1.516e-35
-1.399e-34
1.219e-33
-9.929e-33
7.007e-32
-4.845e-31
3.145e-30
-1.955e-29
1.143e-28
-6.766e-28
3.545e-27
-1.533e-26
8.088e-26
-8.247e-26
1.667e-24
1.265e-23
1.312e-23
4.485e-22
2.391e-21
1.099e-20
8.503e-20
3.786e-19
1.834e-18
6.137e-18
1.637e-17
3.921e-17
8.716e-17
1.817e-16
3.573e-16
6.656e-16
1.178e-15
1.989e-15
3.211e-15
4.973e-15
7.412e-15
1.066e-14
1.484e-14
2.006e-14
2.639e-14
3.387e-14
4.255e-14
5.242e-14
6.349e-14
7.578e-14
8.932e-14
1.042e-13
1.204e-13
1.382e-13
1.577e-13
1.792e-13
2.028e-13
2.291e-13
2.583e-13
2.91e-13
3.276e-13
3.689e-13
4.153e-13
4.678e-13
5.273e-13
5.947e-13
6.711e-13
7.579e-13
8.564e-13
9.683e-13
1.095e-12
1.239e-12
1.403e-12
1.588e-12
1.798e-12
2.035e-12
2.304e-12
2.607e-12
2.948e-12
3.333e-12
3.766e-12
4.253e-12
4.799e-12
5.411e-12
6.097e-12
6.862e-12
7.717e-12
8.669e-12
9.729e-12
1.091e-11
1.221e-11
1.366e-11
1.525e-11
1.701e-11
1.895e-11
2.109e-11
2.414e-11
3.795e-63
-3.586e-62
2.023e-61
-8.436e-61
2.683e-60
-6.707e-60
1.345e-59
-2.18e-59
2.842e-59
-2.921e-59
2.46e-59
-9.276e-59
7.413e-58
-8.838e-57
1.046e-55
-1.173e-54
1.258e-53
-1.301e-52
1.306e-51
-1.28e-50
1.228e-49
-1.158e-48
1.073e-47
-9.781e-47
8.75e-46
-7.664e-45
6.491e-44
-5.417e-43
4.452e-42
-3.56e-41
2.744e-40
-2.009e-39
1.378e-38
-8.524e-38
4.449e-37
-1.501e-36
-4.081e-36
1.374e-34
-1.883e-33
2.012e-32
-1.822e-31
1.267e-30
-8.778e-30
5.657e-29
-3.586e-28
2.165e-27
-1.463e-26
9.113e-26
-4.325e-25
3.008e-24
-4.756e-24
1.134e-22
2.582e-22
1.827e-21
2.45e-20
1.287e-19
5.836e-19
3.023e-18
1.101e-17
3.246e-17
8.614e-17
2.115e-16
4.842e-16
1.038e-15
2.089e-15
3.96e-15
7.088e-15
1.202e-14
1.939e-14
2.983e-14
4.392e-14
6.211e-14
8.464e-14
1.115e-13
1.425e-13
1.771e-13
2.147e-13
2.548e-13
2.966e-13
3.397e-13
3.838e-13
4.287e-13
4.746e-13
5.215e-13
5.701e-13
6.207e-13
6.742e-13
7.312e-13
7.928e-13
8.599e-13
9.337e-13
1.015e-12
1.106e-12
1.207e-12
1.321e-12
1.449e-12
1.593e-12
1.755e-12
1.939e-12
2.145e-12
2.379e-12
2.642e-12
2.94e-12
3.275e-12
3.653e-12
4.078e-12
4.557e-12
5.096e-12
5.7e-12
6.379e-12
7.14e-12
7.992e-12
8.946e-12
1.001e-11
1.12e-11
1.252e-11
1.4e-11
1.563e-11
1.745e-11
1.946e-11
2.169e-11
2.414e-11
2.685e-11
2.984e-11
3.311e-11
3.67e-11
4.063e-11
4.641e-11
-4.482e-62
4.337e-61
-2.652e-60
1.25e-59
-4.644e-59
1.393e-58
-3.436e-58
7.032e-58
-1.19e-57
1.627e-57
-1.634e-57
-2.128e-57
2.619e-56
-2.891e-55
3.214e-54
-3.4e-53
3.457e-52
-3.401e-51
3.259e-50
-3.057e-49
2.818e-48
-2.561e-47
2.298e-46
-2.039e-45
1.789e-44
-1.552e-43
1.321e-42
-1.124e-41
9.544e-41
-7.971e-40
6.496e-39
-5.119e-38
3.906e-37
-2.828e-36
1.916e-35
-1.204e-34
6.468e-34
-2.487e-33
9.932e-34
9.289e-32
-1.179e-30
1.018e-29
-9.194e-29
5.371e-28
-3.696e-27
2.057e-26
-1.305e-25
7.782e-25
-2.678e-24
3.705e-23
1.616e-23
2.895e-21
6.009e-21
1.282e-19
9.973e-19
4.554e-18
1.668e-17
5.462e-17
1.641e-16
4.563e-16
1.176e-15
2.819e-15
6.288e-15
1.309e-14
2.546e-14
4.647e-14
7.981e-14
1.295e-13
1.99e-13
2.912e-13
4.068e-13
5.45e-13
7.024e-13
8.744e-13
1.055e-12
1.237e-12
1.416e-12
1.585e-12
1.743e-12
1.887e-12
2.018e-12
2.137e-12
2.246e-12
2.347e-12
2.445e-12
2.542e-12
2.641e-12
2.746e-12
2.86e-12
2.986e-12
3.127e-12
3.286e-12
3.467e-12
3.672e-12
3.905e-12
4.17e-12
4.471e-12
4.813e-12
5.2e-12
5.638e-12
6.132e-12
6.69e-12
7.319e-12
8.027e-12
8.823e-12
9.717e-12
1.072e-11
1.184e-11
1.31e-11
1.451e-11
1.607e-11
1.782e-11
1.977e-11
2.194e-11
2.435e-11
2.703e-11
3e-11
3.328e-11
3.691e-11
4.091e-11
4.532e-11
5.017e-11
5.55e-11
6.134e-11
6.773e-11
7.472e-11
8.227e-11
9.367e-11
5.094e-61
-5.01e-60
3.26e-59
-1.696e-58
7.163e-58
-2.506e-57
7.371e-57
-1.839e-56
3.886e-56
-6.882e-56
1.017e-55
-1.8e-55
8.504e-55
-7.877e-54
8.041e-53
-7.928e-52
7.569e-51
-7.02e-50
6.361e-49
-5.656e-48
4.953e-47
-4.281e-46
3.661e-45
-3.102e-44
2.611e-43
-2.19e-42
1.825e-41
-1.557e-40
1.351e-39
-1.177e-38
1.008e-37
-8.474e-37
7.17e-36
-5.851e-35
4.592e-34
-3.505e-33
2.287e-32
-1.464e-31
7.395e-31
-3.525e-30
1.673e-29
-3.284e-29
-1.208e-28
5.427e-28
-1.257e-26
6.463e-26
-4.242e-25
3.77e-24
2.902e-23
3.591e-22
8.266e-21
6.208e-20
5.296e-19
3.781e-18
1.797e-17
7.027e-17
2.475e-16
8.003e-16
2.384e-15
6.55e-15
1.662e-14
3.899e-14
8.473e-14
1.709e-13
3.208e-13
5.623e-13
9.242e-13
1.43e-12
2.091e-12
2.902e-12
3.84e-12
4.865e-12
5.921e-12
6.958e-12
7.915e-12
8.748e-12
9.44e-12
9.968e-12
1.035e-11
1.06e-11
1.074e-11
1.079e-11
1.077e-11
1.072e-11
1.066e-11
1.059e-11
1.054e-11
1.052e-11
1.054e-11
1.061e-11
1.072e-11
1.09e-11
1.115e-11
1.147e-11
1.187e-11
1.235e-11
1.293e-11
1.361e-11
1.439e-11
1.53e-11
1.633e-11
1.751e-11
1.885e-11
2.036e-11
2.206e-11
2.398e-11
2.612e-11
2.852e-11
3.12e-11
3.419e-11
3.752e-11
4.122e-11
4.533e-11
4.989e-11
5.494e-11
6.053e-11
6.67e-11
7.35e-11
8.099e-11
8.923e-11
9.828e-11
1.082e-10
1.19e-10
1.309e-10
1.438e-10
1.579e-10
1.729e-10
1.961e-10
-5.56e-60
5.528e-59
-3.778e-58
2.131e-57
-1.004e-56
4.011e-56
-1.377e-55
4.089e-55
-1.05e-54
2.297e-54
-4.054e-54
2.892e-54
1.551e-53
-1.654e-52
1.568e-51
-1.447e-50
1.301e-49
-1.134e-48
9.671e-48
-8.117e-47
6.72e-46
-5.488e-45
4.419e-44
-3.499e-43
2.715e-42
-2.071e-41
1.528e-40
-1.222e-39
9.152e-39
-7.21e-38
5.912e-37
-4.959e-36
4.737e-35
-4.342e-34
3.807e-33
-3.183e-32
2.412e-31
-1.865e-30
1.328e-29
-9.254e-29
6.048e-28
-3.649e-27
2.115e-26
-1.014e-25
4.01e-25
-1.249e-24
7.758e-25
1.04e-22
3.613e-22
3.716e-20
3.108e-19
2.565e-18
1.43e-17
6.61e-17
2.76e-16
1.056e-15
3.709e-15
1.195e-14
3.536e-14
9.597e-14
2.393e-13
5.485e-13
1.158e-12
2.258e-12
4.077e-12
6.846e-12
1.074e-11
1.58e-11
2.192e-11
2.881e-11
3.601e-11
4.311e-11
4.944e-11
5.482e-11
5.865e-11
6.102e-11
6.212e-11
6.177e-11
6.07e-11
5.892e-11
5.664e-11
5.407e-11
5.141e-11
4.879e-11
4.633e-11
4.408e-11
4.21e-11
4.04e-11
3.899e-11
3.788e-11
3.705e-11
3.652e-11
3.624e-11
3.632e-11
3.661e-11
3.717e-11
3.802e-11
3.917e-11
4.06e-11
4.235e-11
4.443e-11
4.686e-11
4.966e-11
5.287e-11
5.651e-11
6.062e-11
6.525e-11
7.044e-11
7.625e-11
8.272e-11
8.992e-11
9.791e-11
1.068e-10
1.166e-10
1.274e-10
1.393e-10
1.525e-10
1.669e-10
1.828e-10
2.001e-10
2.192e-10
2.399e-10
2.626e-10
2.873e-10
3.141e-10
3.432e-10
3.74e-10
4.222e-10
5.786e-59
-5.789e-58
4.114e-57
-2.486e-56
1.286e-55
-5.778e-55
2.277e-54
-7.93e-54
2.443e-53
-6.607e-53
1.539e-52
-3.051e-52
6.604e-52
-2.934e-51
2.56e-50
-2.221e-49
1.838e-48
-1.457e-47
1.154e-46
-9.185e-46
7.349e-45
-5.893e-44
4.724e-43
-3.747e-42
2.903e-41
-2.171e-40
1.467e-39
-1.18e-38
4.975e-38
-8.105e-38
-1.244e-36
2.155e-35
-1.926e-34
1.641e-33
-1.416e-32
1.038e-31
-7.311e-31
2.844e-30
-2.05e-30
-1.255e-28
1.921e-27
-2.017e-26
1.76e-25
-1.414e-24
9.798e-24
-6.575e-23
4.884e-22
-9.645e-22
9.914e-20
1.136e-18
7.592e-18
4.215e-17
2.116e-16
9.733e-16
4.101e-15
1.581e-14
5.568e-14
1.79e-13
5.252e-13
1.406e-12
3.437e-12
7.68e-12
1.572e-11
2.953e-11
5.111e-11
8.193e-11
1.222e-10
1.706e-10
2.24e-10
2.783e-10
3.279e-10
3.709e-10
3.992e-10
4.182e-10
4.174e-10
4.1e-10
3.945e-10
3.725e-10
3.465e-10
3.187e-10
2.908e-10
2.642e-10
2.395e-10
2.173e-10
1.976e-10
1.804e-10
1.657e-10
1.533e-10
1.429e-10
1.343e-10
1.274e-10
1.22e-10
1.178e-10
1.149e-10
1.131e-10
1.122e-10
1.126e-10
1.136e-10
1.156e-10
1.185e-10
1.222e-10
1.269e-10
1.326e-10
1.392e-10
1.469e-10
1.557e-10
1.657e-10
1.77e-10
1.896e-10
2.038e-10
2.195e-10
2.37e-10
2.563e-10
2.777e-10
3.013e-10
3.272e-10
3.557e-10
3.869e-10
4.211e-10
4.584e-10
4.992e-10
5.436e-10
5.919e-10
6.442e-10
7.01e-10
7.624e-10
8.27e-10
9.288e-10
-5.665e-58
5.683e-57
-4.168e-56
2.669e-55
-1.5e-54
7.481e-54
-3.342e-53
1.347e-52
-4.905e-52
1.602e-51
-4.576e-51
1.059e-50
-1.096e-50
-3.763e-50
3.997e-49
-2.096e-48
1.043e-47
-4.616e-47
2.694e-46
-2.045e-45
1.761e-44
-1.647e-43
1.737e-42
-1.917e-41
2.157e-40
-2.427e-39
2.364e-38
-2.148e-37
1.8e-36
-1.43e-35
1.038e-34
-7.103e-34
5.057e-33
-1.811e-32
1.779e-32
7.501e-31
-1.209e-29
1.33e-28
-1.24e-27
1.041e-26
-8.059e-26
5.844e-25
-4.003e-24
2.565e-23
-1.576e-22
1.004e-21
-3.036e-21
1.863e-19
2.334e-18
1.711e-17
1.055e-16
5.895e-16
3.015e-15
1.41e-14
6.012e-14
2.334e-13
8.234e-13
2.637e-12
7.659e-12
2.018e-11
4.824e-11
1.048e-10
2.071e-10
3.738e-10
6.18e-10
9.425e-10
1.333e-09
1.76e-09
2.183e-09
2.556e-09
2.833e-09
3.034e-09
3.032e-09
2.973e-09
2.834e-09
2.631e-09
2.391e-09
2.136e-09
1.883e-09
1.645e-09
1.43e-09
1.239e-09
1.074e-09
9.336e-10
8.154e-10
7.168e-10
6.351e-10
5.677e-10
5.125e-10
4.675e-10
4.311e-10
4.018e-10
3.787e-10
3.607e-10
3.473e-10
3.377e-10
3.318e-10
3.286e-10
3.293e-10
3.321e-10
3.375e-10
3.455e-10
3.561e-10
3.692e-10
3.85e-10
4.035e-10
4.249e-10
4.493e-10
4.769e-10
5.079e-10
5.425e-10
5.809e-10
6.235e-10
6.706e-10
7.224e-10
7.794e-10
8.418e-10
9.102e-10
9.848e-10
1.066e-09
1.155e-09
1.251e-09
1.355e-09
1.468e-09
1.59e-09
1.722e-09
1.859e-09
2.077e-09
5.112e-57
-5.122e-56
3.851e-55
-2.591e-54
1.566e-53
-8.577e-53
4.296e-52
-1.983e-51
8.477e-51
-3.354e-50
1.216e-49
-3.919e-49
1.027e-48
-6.901e-49
-9.473e-48
8.495e-47
-4.922e-46
2.972e-45
-1.609e-44
9.956e-44
-8.195e-43
8.102e-42
-7.954e-41
7.543e-40
-6.559e-39
4.884e-38
-3.733e-37
2.256e-36
-7.22e-36
-1.2e-35
6.233e-34
-8.843e-33
9.661e-32
-9.28e-31
8.197e-30
-6.793e-29
5.338e-28
-4.001e-27
2.87e-26
-1.973e-25
1.304e-24
-8.247e-24
5.025e-23
-2.913e-22
1.738e-21
-6.263e-21
2.93e-19
4.036e-18
3.26e-17
2.237e-16
1.396e-15
7.98e-15
4.164e-14
1.978e-13
8.53e-13
3.331e-12
1.175e-11
3.741e-11
1.074e-10
2.777e-10
6.474e-10
1.362e-09
2.592e-09
4.474e-09
7.038e-09
1.017e-08
1.359e-08
1.693e-08
1.982e-08
2.179e-08
2.275e-08
2.245e-08
2.149e-08
1.99e-08
1.79e-08
1.57e-08
1.351e-08
1.145e-08
9.597e-09
7.991e-09
6.631e-09
5.502e-09
4.576e-09
3.825e-09
3.22e-09
2.734e-09
2.344e-09
2.032e-09
1.783e-09
1.583e-09
1.423e-09
1.295e-09
1.194e-09
1.114e-09
1.051e-09
1.004e-09
9.69e-10
9.451e-10
9.305e-10
9.257e-10
9.29e-10
9.389e-10
9.559e-10
9.799e-10
1.011e-09
1.049e-09
1.094e-09
1.146e-09
1.206e-09
1.274e-09
1.35e-09
1.434e-09
1.529e-09
1.633e-09
1.748e-09
1.874e-09
2.012e-09
2.162e-09
2.327e-09
2.506e-09
2.7e-09
2.911e-09
3.138e-09
3.384e-09
3.649e-09
3.934e-09
4.23e-09
4.702e-09
-4.119e-56
4.107e-55
-3.146e-54
2.206e-53
-1.419e-52
8.438e-52
-4.677e-51
2.437e-50
-1.203e-49
5.653e-49
-2.536e-48
1.08e-47
-4.288e-47
1.492e-46
-3.625e-46
-9.865e-46
2.209e-44
-1.826e-43
1.461e-42
-1.068e-41
7.203e-41
-4.466e-40
2.533e-39
-1.162e-38
1.967e-38
3.325e-37
-5.621e-36
6.318e-35
-6.106e-34
5.428e-33
-4.562e-32
3.672e-31
-2.851e-30
2.142e-29
-1.562e-28
1.105e-27
-7.6e-27
5.074e-26
-3.287e-25
2.067e-24
-1.255e-23
7.441e-23
-4.186e-22
2.441e-21
-9.495e-21
3.79e-19
5.75e-18
5.128e-17
3.925e-16
2.743e-15
1.757e-14
1.028e-13
5.467e-13
2.635e-12
1.147e-11
4.496e-11
1.583e-10
4.999e-10
1.414e-09
3.579e-09
8.11e-09
1.647e-08
3.004e-08
4.937e-08
7.356e-08
1.003e-07
1.262e-07
1.486e-07
1.636e-07
1.671e-07
1.631e-07
1.532e-07
1.385e-07
1.211e-07
1.03e-07
8.571e-08
7.006e-08
5.654e-08
4.524e-08
3.604e-08
2.868e-08
2.287e-08
1.833e-08
1.48e-08
1.205e-08
9.923e-09
8.267e-09
6.976e-09
5.966e-09
5.174e-09
4.549e-09
4.056e-09
3.666e-09
3.359e-09
3.117e-09
2.929e-09
2.785e-09
2.678e-09
2.603e-09
2.556e-09
2.529e-09
2.533e-09
2.552e-09
2.59e-09
2.646e-09
2.72e-09
2.813e-09
2.923e-09
3.051e-09
3.198e-09
3.365e-09
3.552e-09
3.761e-09
3.992e-09
4.247e-09
4.526e-09
4.833e-09
5.167e-09
5.532e-09
5.927e-09
6.356e-09
6.82e-09
7.32e-09
7.859e-09
8.438e-09
9.061e-09
9.702e-09
1.073e-08
2.838e-55
-2.808e-54
2.179e-53
-1.579e-52
1.069e-51
-6.797e-51
4.095e-50
-2.356e-49
1.307e-48
-7.056e-48
3.75e-47
-1.985e-46
1.06e-45
-5.787e-45
3.261e-44
-1.909e-43
1.161e-42
-7.305e-42
4.726e-41
-3.125e-40
2.104e-39
-1.44e-38
1.003e-37
-7.117e-37
5.165e-36
-3.773e-35
2.744e-34
-1.987e-33
1.429e-32
-1.018e-31
7.176e-31
-4.993e-30
3.425e-29
-2.312e-28
1.533e-27
-9.981e-27
6.367e-26
-3.974e-25
2.425e-24
-1.441e-23
8.432e-23
-4.67e-22
2.718e-21
-1.094e-20
3.974e-19
6.638e-18
6.533e-17
5.578e-16
4.368e-15
3.141e-14
2.064e-13
1.234e-12
6.678e-12
3.259e-11
1.428e-10
5.605e-10
1.964e-09
6.133e-09
1.703e-08
4.203e-08
9.219e-08
1.799e-07
3.129e-07
4.873e-07
6.847e-07
8.774e-07
1.039e-06
1.164e-06
1.164e-06
1.128e-06
1.046e-06
9.281e-07
7.938e-07
6.581e-07
5.319e-07
4.214e-07
3.289e-07
2.54e-07
1.95e-07
1.494e-07
1.145e-07
8.824e-08
6.845e-08
5.36e-08
4.244e-08
3.403e-08
2.766e-08
2.281e-08
1.909e-08
1.623e-08
1.401e-08
1.227e-08
1.091e-08
9.846e-09
9.007e-09
8.351e-09
7.84e-09
7.45e-09
7.159e-09
6.953e-09
6.821e-09
6.74e-09
6.745e-09
6.788e-09
6.877e-09
7.014e-09
7.196e-09
7.424e-09
7.696e-09
8.014e-09
8.378e-09
8.789e-09
9.25e-09
9.762e-09
1.033e-08
1.095e-08
1.163e-08
1.238e-08
1.318e-08
1.406e-08
1.501e-08
1.604e-08
1.714e-08
1.833e-08
1.96e-08
2.097e-08
2.236e-08
2.462e-08
-1.587e-54
1.558e-53
-1.219e-52
9.048e-52
-6.36e-51
4.252e-50
-2.717e-49
1.669e-48
-9.915e-48
5.723e-47
-3.226e-46
1.782e-45
-9.689e-45
5.202e-44
-2.771e-43
1.476e-42
-7.95e-42
4.404e-41
-2.562e-40
1.594e-39
-1.068e-38
7.646e-38
-5.736e-37
4.42e-36
-3.461e-35
2.622e-34
-1.929e-33
1.39e-32
-9.835e-32
6.839e-31
-4.679e-30
3.15e-29
-2.087e-28
1.361e-27
-8.72e-27
5.492e-26
-3.396e-25
2.06e-24
-1.224e-23
7.164e-23
-3.961e-22
2.37e-21
-9.685e-21
3.335e-19
6.121e-18
6.638e-17
6.312e-16
5.53e-15
4.461e-14
3.295e-13
2.217e-12
1.35e-11
7.413e-11
3.65e-10
1.605e-09
6.281e-09
2.181e-08
6.702e-08
1.818e-07
4.352e-07
9.187e-07
1.712e-06
2.827e-06
4.15e-06
5.474e-06
6.569e-06
7.453e-06
7.463e-06
7.204e-06
6.62e-06
5.804e-06
4.885e-06
3.972e-06
3.14e-06
2.426e-06
1.842e-06
1.381e-06
1.027e-06
7.61e-07
5.637e-07
4.191e-07
3.135e-07
2.367e-07
1.807e-07
1.398e-07
1.097e-07
8.736e-08
7.071e-08
5.817e-08
4.865e-08
4.136e-08
3.573e-08
3.136e-08
2.795e-08
2.527e-08
2.317e-08
2.154e-08
2.027e-08
1.93e-08
1.858e-08
1.807e-08
1.775e-08
1.755e-08
1.757e-08
1.769e-08
1.791e-08
1.826e-08
1.872e-08
1.929e-08
1.997e-08
2.076e-08
2.166e-08
2.268e-08
2.381e-08
2.507e-08
2.645e-08
2.796e-08
2.962e-08
3.142e-08
3.336e-08
3.547e-08
3.774e-08
4.018e-08
4.28e-08
4.56e-08
4.86e-08
5.166e-08
5.661e-08
7.035e-54
-6.806e-53
5.339e-52
-4.038e-51
2.933e-50
-2.052e-49
1.39e-48
-9.172e-48
5.931e-47
-3.785e-46
2.398e-45
-1.516e-44
9.593e-44
-6.09e-43
3.88e-42
-2.479e-41
1.587e-40
-1.016e-39
6.508e-39
-4.171e-38
2.664e-37
-1.702e-36
1.088e-35
-6.972e-35
4.484e-34
-2.874e-33
1.836e-32
-1.169e-31
7.413e-31
-4.676e-30
2.932e-29
-1.826e-28
1.128e-27
-6.903e-27
4.183e-26
-2.506e-25
1.482e-24
-8.645e-24
4.979e-23
-2.766e-22
1.706e-21
-6.611e-21
2.22e-19
4.463e-18
5.318e-17
5.612e-16
5.484e-15
4.95e-14
4.103e-13
3.104e-12
2.129e-11
1.317e-10
7.298e-10
3.607e-09
1.582e-08
6.135e-08
2.096e-07
6.292e-07
1.655e-06
3.811e-06
7.687e-06
1.36e-05
2.118e-05
2.918e-05
3.601e-05
4.114e-05
4.217e-05
4.073e-05
3.735e-05
3.258e-05
2.72e-05
2.188e-05
1.706e-05
1.297e-05
9.658e-06
7.085e-06
5.142e-06
3.709e-06
2.671e-06
1.926e-06
1.397e-06
1.021e-06
7.547e-07
5.649e-07
4.29e-07
3.31e-07
2.596e-07
2.071e-07
1.681e-07
1.389e-07
1.168e-07
9.981e-08
8.673e-08
7.658e-08
6.864e-08
6.243e-08
5.756e-08
5.376e-08
5.083e-08
4.86e-08
4.697e-08
4.583e-08
4.512e-08
4.477e-08
4.487e-08
4.521e-08
4.584e-08
4.674e-08
4.792e-08
4.936e-08
5.107e-08
5.303e-08
5.527e-08
5.777e-08
6.055e-08
6.362e-08
6.699e-08
7.066e-08
7.465e-08
7.898e-08
8.364e-08
8.867e-08
9.407e-08
9.985e-08
1.06e-07
1.126e-07
1.193e-07
1.302e-07
-1.915e-53
1.891e-52
-1.502e-51
1.144e-50
-8.327e-50
5.8e-49
-3.865e-48
2.463e-47
-1.5e-46
8.705e-46
-4.801e-45
2.498e-44
-1.211e-43
5.32e-43
-1.986e-42
4.971e-42
7.007e-42
-2.181e-40
1.979e-39
-1.901e-38
7.772e-38
-2.62e-37
-2.701e-37
1.79e-35
-2.41e-34
2.326e-33
-1.946e-32
1.506e-31
-1.108e-30
7.855e-30
-5.409e-29
3.637e-28
-2.395e-27
1.548e-26
-9.837e-26
6.148e-25
-3.781e-24
2.291e-23
-1.355e-22
8.404e-22
-2.687e-21
1.155e-19
2.551e-18
3.334e-17
3.888e-16
4.217e-15
4.242e-14
3.933e-13
3.337e-12
2.574e-11
1.792e-10
1.118e-09
6.218e-09
3.062e-08
1.328e-07
5.055e-07
1.681e-06
4.872e-06
1.227e-05
2.69e-05
5.131e-05
8.545e-05
0.0001249
0.000161
0.0001883
0.0001994
0.0001937
0.0001789
0.0001568
0.0001312
0.0001055
8.206e-05
6.205e-05
4.584e-05
3.325e-05
2.379e-05
1.687e-05
1.19e-05
8.391e-06
5.936e-06
4.227e-06
3.039e-06
2.212e-06
1.633e-06
1.224e-06
9.331e-07
7.24e-07
5.72e-07
4.602e-07
3.771e-07
3.145e-07
2.669e-07
2.304e-07
2.022e-07
1.802e-07
1.629e-07
1.494e-07
1.388e-07
1.306e-07
1.243e-07
1.195e-07
1.161e-07
1.138e-07
1.124e-07
1.121e-07
1.125e-07
1.136e-07
1.153e-07
1.177e-07
1.208e-07
1.245e-07
1.287e-07
1.336e-07
1.392e-07
1.453e-07
1.521e-07
1.596e-07
1.677e-07
1.766e-07
1.861e-07
1.965e-07
2.076e-07
2.195e-07
2.322e-07
2.458e-07
2.603e-07
2.75e-07
2.988e-07
8.641e-53
-7.822e-52
5.965e-51
-4.587e-50
3.519e-49
-2.68e-48
2.016e-47
-1.493e-46
1.085e-45
-7.729e-45
5.4e-44
-3.702e-43
2.493e-42
-1.653e-41
1.08e-40
-6.975e-40
4.455e-39
-2.82e-38
1.771e-37
-1.105e-36
6.853e-36
-4.229e-35
2.598e-34
-1.589e-33
9.673e-33
-5.853e-32
3.521e-31
-2.106e-30
1.253e-29
-7.411e-29
4.359e-28
-2.55e-27
1.483e-26
-8.575e-26
4.929e-25
-2.816e-24
1.599e-23
-8.998e-23
5.178e-22
-2.269e-21
3.453e-20
1.107e-18
1.627e-17
2.091e-16
2.504e-15
2.792e-14
2.881e-13
2.731e-12
2.362e-11
1.848e-10
1.298e-09
8.115e-09
4.488e-08
2.179e-07
9.242e-07
3.405e-06
1.086e-05
2.989e-05
7.097e-05
0.0001459
0.0002595
0.0004035
0.0005512
0.0006695
0.000746
0.0007349
0.0006902
0.0006148
0.0005221
0.0004255
0.0003346
0.0002553
0.0001897
0.0001379
9.856e-05
6.951e-05
4.86e-05
3.384e-05
2.356e-05
1.647e-05
1.16e-05
8.257e-06
5.954e-06
4.358e-06
3.243e-06
2.456e-06
1.894e-06
1.489e-06
1.192e-06
9.722e-07
8.077e-07
6.83e-07
5.875e-07
5.138e-07
4.564e-07
4.115e-07
3.762e-07
3.485e-07
3.269e-07
3.101e-07
2.973e-07
2.879e-07
2.813e-07
2.773e-07
2.75e-07
2.755e-07
2.773e-07
2.807e-07
2.857e-07
2.921e-07
3e-07
3.093e-07
3.201e-07
3.322e-07
3.458e-07
3.608e-07
3.773e-07
3.954e-07
4.149e-07
4.361e-07
4.589e-07
4.834e-07
5.097e-07
5.377e-07
5.675e-07
5.993e-07
6.313e-07
6.833e-07
2.676e-52
-2.63e-51
2.11e-50
-1.646e-49
1.242e-48
-9.079e-48
6.432e-47
-4.423e-46
2.96e-45
-1.931e-44
1.233e-43
-7.73e-43
4.774e-42
-2.917e-41
1.77e-40
-1.071e-39
6.483e-39
-3.943e-38
2.415e-37
-1.493e-36
9.323e-36
-5.882e-35
3.747e-34
-2.409e-33
1.557e-32
-1.001e-31
6.387e-31
-4.044e-30
2.544e-29
-1.59e-28
9.882e-28
-6.108e-27
3.756e-26
-2.298e-25
1.4e-24
-8.491e-24
5.13e-23
-3.069e-22
1.922e-21
-7.256e-21
2.416e-19
5.979e-18
8.739e-17
1.149e-15
1.411e-14
1.611e-13
1.699e-12
1.64e-11
1.437e-10
1.134e-09
7.975e-09
4.957e-08
2.699e-07
1.277e-06
5.218e-06
1.83e-05
5.492e-05
0.0001408
0.0003095
0.000586
0.0009593
0.001383
0.001773
0.002066
0.002131
0.002053
0.001876
0.001635
0.001368
0.001104
0.0008639
0.0006568
0.0004868
0.000353
0.0002515
0.0001768
0.0001231
8.534e-05
5.916e-05
4.118e-05
2.889e-05
2.049e-05
1.472e-05
1.075e-05
7.982e-06
6.035e-06
4.649e-06
3.65e-06
2.92e-06
2.381e-06
1.977e-06
1.671e-06
1.437e-06
1.256e-06
1.115e-06
1.005e-06
9.183e-07
8.5e-07
7.964e-07
7.547e-07
7.226e-07
6.988e-07
6.816e-07
6.709e-07
6.632e-07
6.636e-07
6.667e-07
6.734e-07
6.837e-07
6.974e-07
7.145e-07
7.349e-07
7.585e-07
7.852e-07
8.151e-07
8.483e-07
8.848e-07
9.246e-07
9.677e-07
1.014e-06
1.065e-06
1.119e-06
1.176e-06
1.237e-06
1.303e-06
1.372e-06
1.441e-06
1.554e-06
-7.415e-52
6.842e-51
-5.277e-50
4.063e-49
-3.097e-48
2.33e-47
-1.727e-46
1.259e-45
-9.008e-45
6.33e-44
-4.368e-43
2.961e-42
-1.973e-41
1.295e-40
-8.375e-40
5.347e-39
-3.374e-38
2.107e-37
-1.304e-36
8.007e-36
-4.882e-35
2.959e-34
-1.784e-33
1.071e-32
-6.395e-32
3.798e-31
-2.246e-30
1.323e-29
-7.773e-29
4.554e-28
-2.662e-27
1.554e-26
-9.063e-26
5.284e-25
-3.08e-24
1.798e-23
-1.047e-22
6.3e-22
-2.832e-21
5.366e-20
1.78e-18
2.865e-17
4.105e-16
5.511e-15
6.916e-14
8.055e-13
8.637e-12
8.449e-11
7.469e-10
5.905e-09
4.131e-08
2.53e-07
1.342e-06
6.106e-06
2.364e-05
7.743e-05
0.0002144
0.0005025
0.001006
0.001724
0.002589
0.003451
0.004271
0.00469
0.004609
0.004331
0.003887
0.003366
0.002829
0.002306
0.001826
0.001406
0.001054
0.0007725
0.0005551
0.0003928
0.0002751
0.0001915
0.0001332
9.299e-05
6.54e-05
4.651e-05
3.352e-05
2.454e-05
1.828e-05
1.387e-05
1.072e-05
8.442e-06
6.777e-06
5.543e-06
4.617e-06
3.914e-06
3.375e-06
2.957e-06
2.631e-06
2.375e-06
2.173e-06
2.014e-06
1.888e-06
1.791e-06
1.715e-06
1.658e-06
1.617e-06
1.591e-06
1.571e-06
1.571e-06
1.577e-06
1.591e-06
1.613e-06
1.642e-06
1.68e-06
1.725e-06
1.777e-06
1.836e-06
1.902e-06
1.975e-06
2.055e-06
2.143e-06
2.238e-06
2.34e-06
2.45e-06
2.568e-06
2.693e-06
2.827e-06
2.968e-06
3.118e-06
3.268e-06
3.511e-06
-1.32e-51
1.295e-50
-1.044e-49
8.246e-49
-6.338e-48
4.741e-47
-3.452e-46
2.449e-45
-1.695e-44
1.147e-43
-7.6e-43
4.946e-42
-3.169e-41
2.005e-40
-1.255e-39
7.799e-39
-4.82e-38
2.969e-37
-1.826e-36
1.123e-35
-6.92e-35
4.273e-34
-2.646e-33
1.644e-32
-1.024e-31
6.35e-31
-3.919e-30
2.41e-29
-1.477e-28
9.031e-28
-5.515e-27
3.367e-26
-2.056e-25
1.257e-24
-7.699e-24
4.733e-23
-2.905e-22
1.887e-21
-7.074e-21
2.637e-19
7.152e-18
1.149e-16
1.677e-15
2.296e-14
2.935e-13
3.475e-12
3.775e-11
3.726e-10
3.306e-09
2.605e-08
1.801e-07
1.077e-06
5.509e-06
2.379e-05
8.589e-05
0.0002581
0.0006474
0.001369
0.002471
0.003783
0.005381
0.006568
0.008453
0.009709
0.009225
0.007623
0.006377
0.005541
0.004784
0.003997
0.003243
0.002556
0.001959
0.001464
0.00107
0.0007692
0.0005458
0.0003845
0.0002702
0.0001904
0.0001351
9.693e-05
7.045e-05
5.201e-05
3.905e-05
2.985e-05
2.325e-05
1.845e-05
1.492e-05
1.229e-05
1.03e-05
8.783e-06
7.614e-06
6.705e-06
5.993e-06
5.432e-06
4.988e-06
4.637e-06
4.36e-06
4.143e-06
3.975e-06
3.849e-06
3.758e-06
3.7e-06
3.656e-06
3.656e-06
3.668e-06
3.699e-06
3.748e-06
3.814e-06
3.897e-06
3.997e-06
4.112e-06
4.242e-06
4.388e-06
4.549e-06
4.725e-06
4.917e-06
5.125e-06
5.348e-06
5.587e-06
5.842e-06
6.113e-06
6.4e-06
6.702e-06
7.022e-06
7.34e-06
7.854e-06
2.863e-51
-2.636e-50
2.031e-49
-1.563e-48
1.192e-47
-8.971e-47
6.654e-46
-4.856e-45
3.483e-44
-2.453e-43
1.697e-42
-1.153e-41
7.699e-41
-5.057e-40
3.269e-39
-2.083e-38
1.309e-37
-8.13e-37
4.992e-36
-3.034e-35
1.828e-34
-1.093e-33
6.492e-33
-3.835e-32
2.252e-31
-1.316e-30
7.673e-30
-4.466e-29
2.598e-28
-1.512e-27
8.815e-27
-5.153e-26
3.023e-25
-1.783e-24
1.058e-23
-6.308e-23
3.893e-22
-1.806e-21
4.251e-20
1.461e-18
2.556e-17
4.024e-16
5.967e-15
8.309e-14
1.078e-12
1.293e-11
1.419e-10
1.408e-09
1.249e-08
9.765e-08
6.63e-07
3.848e-06
1.88e-05
7.612e-05
0.0002528
0.0006863
0.001539
0.002928
0.004771
0.00657
0.009861
0.01031
0.01004
0.01057
0.01035
0.01
0.01041
0.009924
0.007545
0.006111
0.005064
0.004087
0.003207
0.002452
0.001832
0.001344
0.0009716
0.0006963
0.0004973
0.0003558
0.0002562
0.0001863
0.0001373
0.0001027
7.807e-05
6.042e-05
4.762e-05
3.822e-05
3.123e-05
2.598e-05
2.199e-05
1.892e-05
1.653e-05
1.467e-05
1.32e-05
1.204e-05
1.112e-05
1.038e-05