/*--------------------------------*- C++ -*----------------------------------*\
  =========                 |
  \\      /  F ield         | OpenFOAM: The Open Source CFD Toolbox
   \\    /   O peration     | Website:  https://openfoam.org
    \\  /    A nd           | Version:  7
     \\/     M anipulation  |
\*---------------------------------------------------------------------------*/
FoamFile
{
    version     2.0;
    format      ascii;
    class       volScalarField;
    location    "1619.99947342360838";
    object      p;
}
// * * * * * * * * * * * * * * * * * * * * * * * * * * * * * * * * * * * * * //

dimensions      [0 2 -2 0 0 0 0];

internalField   nonuniform List<scalar> 
4096
(
0.0005917
0.0004208
0.0003365
0.0002944
0.000271
0.0002571
0.0002482
0.0002421
0.0002377
0.0002344
0.0002319
0.0002299
0.0002282
0.0002268
0.0002257
0.0002247
0.0002238
0.000223
0.0002223
0.0002216
0.000221
0.0002204
0.0002199
0.0002194
0.0002189
0.0002184
0.0002179
0.0002174
0.0002169
0.0002165
0.000216
0.0002155
0.000215
0.0002144
0.0002139
0.0002133
0.0002126
0.0002119
0.0002112
0.0002103
0.0002094
0.0002084
0.0002072
0.0002059
0.0002045
0.0002028
0.0002009
0.0001988
0.0001965
0.0001938
0.0001909
0.0001876
0.0001839
0.0001799
0.0001755
0.0001707
0.0001656
0.00016
0.0001542
0.000148
0.0001415
0.0001349
0.000128
0.0001211
0.0001142
0.0001073
0.0001004
9.378e-05
8.732e-05
8.111e-05
7.518e-05
6.956e-05
6.427e-05
5.933e-05
5.473e-05
5.048e-05
4.657e-05
4.3e-05
3.974e-05
3.68e-05
3.414e-05
3.175e-05
2.96e-05
2.768e-05
2.597e-05
2.443e-05
2.307e-05
2.184e-05
2.074e-05
1.976e-05
1.886e-05
1.805e-05
1.731e-05
1.662e-05
1.598e-05
1.538e-05
1.482e-05
1.428e-05
1.376e-05
1.326e-05
1.277e-05
1.229e-05
1.182e-05
1.136e-05
1.09e-05
1.044e-05
9.976e-06
9.516e-06
9.056e-06
8.594e-06
8.13e-06
7.664e-06
7.196e-06
6.725e-06
6.251e-06
5.774e-06
5.293e-06
4.81e-06
4.324e-06
3.834e-06
3.342e-06
2.848e-06
2.352e-06
1.858e-06
1.367e-06
8.867e-07
4.309e-07
7.849e-08
0.0004472
0.0003834
0.0003337
0.0003016
0.0002807
0.0002664
0.0002564
0.000249
0.0002435
0.0002393
0.000236
0.0002333
0.0002311
0.0002293
0.0002278
0.0002265
0.0002253
0.0002243
0.0002233
0.0002225
0.0002217
0.000221
0.0002203
0.0002197
0.0002191
0.0002184
0.0002178
0.0002173
0.0002167
0.0002161
0.0002155
0.0002149
0.0002143
0.0002136
0.0002129
0.0002122
0.0002114
0.0002106
0.0002097
0.0002088
0.0002077
0.0002065
0.0002052
0.0002038
0.0002022
0.0002005
0.0001985
0.0001963
0.0001938
0.0001911
0.0001881
0.0001848
0.0001812
0.0001772
0.0001729
0.0001683
0.0001633
0.000158
0.0001523
0.0001464
0.0001403
0.0001339
0.0001274
0.0001208
0.0001142
0.0001077
0.0001012
9.484e-05
8.868e-05
8.273e-05
7.705e-05
7.163e-05
6.652e-05
6.171e-05
5.722e-05
5.305e-05
4.919e-05
4.564e-05
4.238e-05
3.94e-05
3.67e-05
3.424e-05
3.202e-05
3.001e-05
2.819e-05
2.655e-05
2.508e-05
2.374e-05
2.253e-05
2.142e-05
2.042e-05
1.95e-05
1.865e-05
1.786e-05
1.712e-05
1.643e-05
1.578e-05
1.516e-05
1.456e-05
1.399e-05
1.344e-05
1.29e-05
1.237e-05
1.185e-05
1.134e-05
1.084e-05
1.034e-05
9.84e-06
9.346e-06
8.854e-06
8.362e-06
7.872e-06
7.381e-06
6.89e-06
6.399e-06
5.906e-06
5.412e-06
4.917e-06
4.421e-06
3.923e-06
3.425e-06
2.926e-06
2.427e-06
1.931e-06
1.439e-06
9.552e-07
4.878e-07
1.021e-07
0.0003637
0.0003421
0.0003166
0.0002959
0.0002803
0.0002686
0.0002596
0.0002526
0.000247
0.0002426
0.0002389
0.000236
0.0002335
0.0002314
0.0002295
0.000228
0.0002266
0.0002254
0.0002243
0.0002233
0.0002224
0.0002215
0.0002207
0.0002199
0.0002192
0.0002185
0.0002178
0.0002171
0.0002164
0.0002157
0.000215
0.0002143
0.0002136
0.0002128
0.000212
0.0002112
0.0002103
0.0002093
0.0002083
0.0002072
0.0002061
0.0002048
0.0002034
0.0002018
0.0002001
0.0001983
0.0001962
0.0001939
0.0001915
0.0001887
0.0001857
0.0001824
0.0001788
0.0001749
0.0001707
0.0001661
0.0001613
0.0001561
0.0001507
0.000145
0.0001391
0.0001331
0.0001269
0.0001206
0.0001143
0.000108
0.0001018
9.574e-05
8.984e-05
8.414e-05
7.866e-05
7.344e-05
6.849e-05
6.382e-05
5.944e-05
5.535e-05
5.154e-05
4.801e-05
4.476e-05
4.177e-05
3.904e-05
3.653e-05
3.425e-05
3.216e-05
3.027e-05
2.854e-05
2.697e-05
2.553e-05
2.422e-05
2.301e-05
2.191e-05
2.089e-05
1.994e-05
1.906e-05
1.823e-05
1.746e-05
1.672e-05
1.602e-05
1.536e-05
1.472e-05
1.41e-05
1.35e-05
1.291e-05
1.235e-05
1.179e-05
1.124e-05
1.07e-05
1.017e-05
9.64e-06
9.118e-06
8.6e-06
8.085e-06
7.572e-06
7.061e-06
6.552e-06
6.043e-06
5.536e-06
5.029e-06
4.522e-06
4.015e-06
3.509e-06
3.003e-06
2.499e-06
1.996e-06
1.497e-06
1.004e-06
5.178e-07
1.058e-07
0.000319
0.0003119
0.0002986
0.0002854
0.0002745
0.0002658
0.0002586
0.0002528
0.0002479
0.0002438
0.0002403
0.0002373
0.0002348
0.0002326
0.0002307
0.000229
0.0002275
0.0002262
0.000225
0.0002239
0.0002229
0.0002219
0.000221
0.0002201
0.0002193
0.0002185
0.0002177
0.0002169
0.0002161
0.0002154
0.0002146
0.0002138
0.0002129
0.0002121
0.0002112
0.0002103
0.0002093
0.0002082
0.0002071
0.0002059
0.0002047
0.0002033
0.0002018
0.0002002
0.0001984
0.0001965
0.0001943
0.000192
0.0001895
0.0001867
0.0001837
0.0001804
0.0001769
0.000173
0.0001689
0.0001644
0.0001597
0.0001547
0.0001495
0.000144
0.0001383
0.0001324
0.0001264
0.0001204
0.0001143
0.0001082
0.0001023
9.641e-05
9.072e-05
8.521e-05
7.991e-05
7.485e-05
7.004e-05
6.549e-05
6.12e-05
5.718e-05
5.343e-05
4.994e-05
4.671e-05
4.372e-05
4.097e-05
3.843e-05
3.611e-05
3.397e-05
3.202e-05
3.023e-05
2.858e-05
2.707e-05
2.568e-05
2.44e-05
2.321e-05
2.211e-05
2.108e-05
2.012e-05
1.922e-05
1.837e-05
1.757e-05
1.68e-05
1.607e-05
1.537e-05
1.47e-05
1.405e-05
1.341e-05
1.28e-05
1.22e-05
1.161e-05
1.104e-05
1.047e-05
9.915e-06
9.366e-06
8.822e-06
8.284e-06
7.751e-06
7.222e-06
6.696e-06
6.173e-06
5.652e-06
5.134e-06
4.617e-06
4.101e-06
3.586e-06
3.073e-06
2.561e-06
2.05e-06
1.541e-06
1.035e-06
5.314e-07
1.027e-07
0.0002921
0.0002911
0.0002842
0.0002755
0.0002678
0.0002612
0.0002557
0.000251
0.0002469
0.0002434
0.0002403
0.0002376
0.0002353
0.0002332
0.0002313
0.0002296
0.0002281
0.0002267
0.0002254
0.0002243
0.0002232
0.0002222
0.0002212
0.0002202
0.0002193
0.0002185
0.0002176
0.0002167
0.0002159
0.000215
0.0002142
0.0002133
0.0002124
0.0002114
0.0002105
0.0002095
0.0002084
0.0002073
0.0002061
0.0002048
0.0002035
0.000202
0.0002005
0.0001988
0.0001969
0.000195
0.0001928
0.0001905
0.0001879
0.0001851
0.0001821
0.0001789
0.0001753
0.0001716
0.0001675
0.0001631
0.0001585
0.0001536
0.0001485
0.0001431
0.0001376
0.0001319
0.0001261
0.0001202
0.0001143
0.0001084
0.0001026
9.689e-05
9.135e-05
8.6e-05
8.085e-05
7.592e-05
7.122e-05
6.677e-05
6.257e-05
5.862e-05
5.492e-05
5.147e-05
4.826e-05
4.528e-05
4.252e-05
3.998e-05
3.763e-05
3.546e-05
3.347e-05
3.163e-05
2.993e-05
2.837e-05
2.692e-05
2.557e-05
2.432e-05
2.316e-05
2.207e-05
2.105e-05
2.008e-05
1.917e-05
1.831e-05
1.749e-05
1.671e-05
1.595e-05
1.523e-05
1.453e-05
1.386e-05
1.321e-05
1.257e-05
1.195e-05
1.134e-05
1.075e-05
1.016e-05
9.589e-06
9.024e-06
8.466e-06
7.914e-06
7.369e-06
6.828e-06
6.292e-06
5.759e-06
5.229e-06
4.702e-06
4.178e-06
3.655e-06
3.133e-06
2.613e-06
2.094e-06
1.575e-06
1.058e-06
5.397e-07
9.92e-08
0.0002747
0.0002763
0.0002729
0.0002672
0.0002615
0.0002565
0.0002521
0.0002484
0.0002451
0.0002422
0.0002396
0.0002372
0.0002351
0.0002331
0.0002314
0.0002297
0.0002283
0.0002269
0.0002256
0.0002244
0.0002233
0.0002223
0.0002212
0.0002203
0.0002193
0.0002184
0.0002175
0.0002166
0.0002157
0.0002147
0.0002138
0.0002129
0.0002119
0.0002109
0.0002099
0.0002088
0.0002077
0.0002065
0.0002053
0.0002039
0.0002025
0.000201
0.0001994
0.0001977
0.0001958
0.0001938
0.0001916
0.0001892
0.0001867
0.0001839
0.0001809
0.0001777
0.0001742
0.0001705
0.0001664
0.0001622
0.0001576
0.0001528
0.0001478
0.0001425
0.0001371
0.0001315
0.0001258
0.00012
0.0001142
0.0001084
0.0001028
9.72e-05
9.179e-05
8.655e-05
8.151e-05
7.669e-05
7.209e-05
6.772e-05
6.359e-05
5.97e-05
5.605e-05
5.263e-05
4.945e-05
4.648e-05
4.373e-05
4.119e-05
3.883e-05
3.665e-05
3.463e-05
3.276e-05
3.103e-05
2.942e-05
2.793e-05
2.654e-05
2.525e-05
2.403e-05
2.289e-05
2.182e-05
2.081e-05
1.985e-05
1.894e-05
1.807e-05
1.724e-05
1.645e-05
1.569e-05
1.495e-05
1.424e-05
1.356e-05
1.289e-05
1.224e-05
1.16e-05
1.099e-05
1.038e-05
9.784e-06
9.199e-06
8.624e-06
8.057e-06
7.497e-06
6.943e-06
6.395e-06
5.852e-06
5.313e-06
4.777e-06
4.244e-06
3.714e-06
3.185e-06
2.657e-06
2.13e-06
1.603e-06
1.076e-06
5.463e-07
9.663e-08
0.0002628
0.0002653
0.000264
0.0002604
0.0002562
0.0002522
0.0002487
0.0002456
0.0002429
0.0002405
0.0002383
0.0002362
0.0002344
0.0002326
0.000231
0.0002295
0.0002281
0.0002268
0.0002256
0.0002244
0.0002233
0.0002223
0.0002212
0.0002202
0.0002192
0.0002183
0.0002173
0.0002164
0.0002154
0.0002145
0.0002135
0.0002125
0.0002115
0.0002105
0.0002094
0.0002083
0.0002071
0.0002059
0.0002046
0.0002032
0.0002018
0.0002002
0.0001986
0.0001968
0.0001949
0.0001929
0.0001907
0.0001883
0.0001858
0.000183
0.00018
0.0001768
0.0001734
0.0001697
0.0001657
0.0001615
0.000157
0.0001523
0.0001473
0.0001421
0.0001367
0.0001312
0.0001255
0.0001198
0.0001141
0.0001084
0.0001028
9.736e-05
9.204e-05
8.689e-05
8.194e-05
7.719e-05
7.267e-05
6.836e-05
6.429e-05
6.045e-05
5.684e-05
5.346e-05
5.03e-05
4.736e-05
4.463e-05
4.209e-05
3.973e-05
3.754e-05
3.551e-05
3.363e-05
3.188e-05
3.025e-05
2.873e-05
2.731e-05
2.598e-05
2.473e-05
2.355e-05
2.244e-05
2.139e-05
2.04e-05
1.945e-05
1.855e-05
1.768e-05
1.686e-05
1.606e-05
1.53e-05
1.456e-05
1.384e-05
1.315e-05
1.248e-05
1.182e-05
1.118e-05
1.056e-05
9.945e-06
9.345e-06
8.755e-06
8.175e-06
7.603e-06
7.039e-06
6.481e-06
5.929e-06
5.382e-06
4.839e-06
4.299e-06
3.762e-06
3.227e-06
2.694e-06
2.16e-06
1.627e-06
1.091e-06
5.527e-07
9.555e-08
0.0002542
0.0002569
0.0002568
0.0002546
0.0002516
0.0002484
0.0002456
0.000243
0.0002407
0.0002387
0.0002368
0.000235
0.0002334
0.0002319
0.0002305
0.0002291
0.0002278
0.0002266
0.0002254
0.0002243
0.0002232
0.0002221
0.0002211
0.0002201
0.0002191
0.0002182
0.0002172
0.0002162
0.0002152
0.0002143
0.0002133
0.0002123
0.0002112
0.0002101
0.000209
0.0002079
0.0002067
0.0002054
0.0002041
0.0002027
0.0002012
0.0001996
0.000198
0.0001962
0.0001943
0.0001923
0.0001901
0.0001877
0.0001851
0.0001824
0.0001795
0.0001763
0.0001729
0.0001692
0.0001653
0.0001611
0.0001566
0.000152
0.000147
0.0001418
0.0001365
0.000131
0.0001254
0.0001197
0.000114
0.0001084
0.0001028
9.739e-05
9.213e-05
8.704e-05
8.215e-05
7.746e-05
7.299e-05
6.874e-05
6.471e-05
6.091e-05
5.733e-05
5.398e-05
5.085e-05
4.793e-05
4.521e-05
4.269e-05
4.034e-05
3.816e-05
3.613e-05
3.424e-05
3.248e-05
3.084e-05
2.931e-05
2.787e-05
2.652e-05
2.525e-05
2.405e-05
2.291e-05
2.183e-05
2.081e-05
1.984e-05
1.891e-05
1.802e-05
1.717e-05
1.635e-05
1.556e-05
1.48e-05
1.407e-05
1.335e-05
1.266e-05
1.199e-05
1.133e-05
1.069e-05
1.007e-05
9.456e-06
8.856e-06
8.265e-06
7.684e-06
7.112e-06
6.547e-06
5.988e-06
5.435e-06
4.886e-06
4.342e-06
3.8e-06
3.261e-06
2.722e-06
2.185e-06
1.646e-06
1.105e-06
5.595e-07
9.621e-08
0.0002477
0.0002504
0.000251
0.0002497
0.0002476
0.0002451
0.0002428
0.0002406
0.0002386
0.0002369
0.0002353
0.0002337
0.0002323
0.000231
0.0002297
0.0002285
0.0002273
0.0002262
0.0002251
0.000224
0.000223
0.0002219
0.0002209
0.00022
0.000219
0.000218
0.000217
0.0002161
0.0002151
0.0002141
0.0002131
0.000212
0.000211
0.0002099
0.0002088
0.0002076
0.0002064
0.0002051
0.0002038
0.0002024
0.0002009
0.0001993
0.0001976
0.0001958
0.0001939
0.0001919
0.0001897
0.0001874
0.0001848
0.0001821
0.0001792
0.000176
0.0001726
0.000169
0.0001651
0.0001609
0.0001565
0.0001518
0.0001469
0.0001417
0.0001364
0.0001309
0.0001252
0.0001195
0.0001138
0.0001082
0.0001027
9.728e-05
9.206e-05
8.701e-05
8.215e-05
7.75e-05
7.307e-05
6.884e-05
6.485e-05
6.107e-05
5.753e-05
5.42e-05
5.11e-05
4.82e-05
4.551e-05
4.3e-05
4.067e-05
3.85e-05
3.649e-05
3.461e-05
3.285e-05
3.121e-05
2.968e-05
2.823e-05
2.687e-05
2.559e-05
2.438e-05
2.323e-05
2.213e-05
2.11e-05
2.011e-05
1.916e-05
1.825e-05
1.738e-05
1.655e-05
1.574e-05
1.497e-05
1.422e-05
1.349e-05
1.279e-05
1.21e-05
1.144e-05
1.079e-05
1.015e-05
9.532e-06
8.924e-06
8.327e-06
7.739e-06
7.161e-06
6.591e-06
6.028e-06
5.471e-06
4.919e-06
4.371e-06
3.826e-06
3.284e-06
2.743e-06
2.203e-06
1.661e-06
1.117e-06
5.67e-07
9.878e-08
0.0002427
0.0002452
0.0002462
0.0002456
0.0002441
0.0002422
0.0002403
0.0002385
0.0002368
0.0002352
0.0002338
0.0002325
0.0002312
0.00023
0.0002289
0.0002278
0.0002267
0.0002257
0.0002247
0.0002237
0.0002227
0.0002217
0.0002207
0.0002198
0.0002188
0.0002179
0.0002169
0.0002159
0.000215
0.000214
0.000213
0.0002119
0.0002109
0.0002098
0.0002086
0.0002074
0.0002062
0.0002049
0.0002036
0.0002022
0.0002007
0.0001991
0.0001975
0.0001957
0.0001938
0.0001918
0.0001896
0.0001873
0.0001848
0.0001821
0.0001792
0.0001761
0.0001727
0.0001691
0.0001652
0.000161
0.0001566
0.0001519
0.000147
0.0001418
0.0001364
0.0001308
0.0001251
0.0001194
0.0001137
0.000108
0.0001025
9.706e-05
9.183e-05
8.68e-05
8.196e-05
7.732e-05
7.29e-05
6.869e-05
6.471e-05
6.095e-05
5.743e-05
5.413e-05
5.105e-05
4.818e-05
4.551e-05
4.303e-05
4.073e-05
3.859e-05
3.66e-05
3.474e-05
3.3e-05
3.137e-05
2.984e-05
2.84e-05
2.704e-05
2.576e-05
2.454e-05
2.339e-05
2.229e-05
2.125e-05
2.025e-05
1.929e-05
1.838e-05
1.75e-05
1.666e-05
1.584e-05
1.506e-05
1.43e-05
1.357e-05
1.286e-05
1.216e-05
1.149e-05
1.084e-05
1.02e-05
9.571e-06
8.958e-06
8.357e-06
7.767e-06
7.186e-06
6.613e-06
6.048e-06
5.489e-06
4.936e-06
4.387e-06
3.841e-06
3.298e-06
2.757e-06
2.215e-06
1.673e-06
1.127e-06
5.755e-07
1.034e-07
0.0002386
0.000241
0.0002421
0.000242
0.0002411
0.0002397
0.0002381
0.0002366
0.0002351
0.0002337
0.0002325
0.0002313
0.0002302
0.0002291
0.0002281
0.0002271
0.0002261
0.0002251
0.0002242
0.0002233
0.0002223
0.0002214
0.0002205
0.0002196
0.0002186
0.0002177
0.0002168
0.0002158
0.0002149
0.0002139
0.0002129
0.0002119
0.0002108
0.0002097
0.0002086
0.0002074
0.0002062
0.0002049
0.0002036
0.0002022
0.0002007
0.0001992
0.0001976
0.0001958
0.0001939
0.0001919
0.0001898
0.0001875
0.000185
0.0001824
0.0001795
0.0001764
0.000173
0.0001694
0.0001655
0.0001614
0.0001569
0.0001522
0.0001472
0.000142
0.0001365
0.0001309
0.0001251
0.0001192
0.0001134
0.0001077
0.0001021
9.67e-05
9.146e-05
8.641e-05
8.156e-05
7.692e-05
7.249e-05
6.828e-05
6.43e-05
6.055e-05
5.703e-05
5.375e-05
5.07e-05
4.786e-05
4.523e-05
4.279e-05
4.052e-05
3.841e-05
3.645e-05
3.462e-05
3.291e-05
3.131e-05
2.98e-05
2.838e-05
2.703e-05
2.576e-05
2.455e-05
2.341e-05
2.231e-05
2.127e-05
2.027e-05
1.932e-05
1.84e-05
1.752e-05
1.668e-05
1.586e-05
1.507e-05
1.431e-05
1.358e-05
1.286e-05
1.217e-05
1.15e-05
1.084e-05
1.02e-05
9.572e-06
8.958e-06
8.357e-06
7.766e-06
7.185e-06
6.612e-06
6.048e-06
5.489e-06
4.937e-06
4.389e-06
3.844e-06
3.303e-06
2.762e-06
2.222e-06
1.681e-06
1.136e-06
5.851e-07
1.101e-07
0.0002353
0.0002375
0.0002387
0.0002389
0.0002384
0.0002374
0.0002361
0.0002348
0.0002336
0.0002324
0.0002312
0.0002302
0.0002292
0.0002282
0.0002273
0.0002264
0.0002255
0.0002246
0.0002237
0.0002229
0.000222
0.0002211
0.0002203
0.0002194
0.0002185
0.0002176
0.0002167
0.0002158
0.0002148
0.0002139
0.0002129
0.0002119
0.0002109
0.0002098
0.0002087
0.0002075
0.0002063
0.0002051
0.0002038
0.0002024
0.000201
0.0001995
0.0001978
0.0001961
0.0001943
0.0001924
0.0001903
0.000188
0.0001856
0.000183
0.0001801
0.000177
0.0001737
0.0001701
0.0001662
0.000162
0.0001575
0.0001527
0.0001477
0.0001423
0.0001368
0.000131
0.0001251
0.0001191
0.0001132
0.0001074
0.0001017
9.621e-05
9.092e-05
8.583e-05
8.095e-05
7.627e-05
7.181e-05
6.758e-05
6.359e-05
5.984e-05
5.633e-05
5.307e-05
5.004e-05
4.724e-05
4.465e-05
4.226e-05
4.004e-05
3.798e-05
3.607e-05
3.428e-05
3.261e-05
3.104e-05
2.956e-05
2.817e-05
2.685e-05
2.56e-05
2.441e-05
2.327e-05
2.219e-05
2.116e-05
2.017e-05
1.923e-05
1.832e-05
1.745e-05
1.66e-05
1.579e-05
1.501e-05
1.426e-05
1.352e-05
1.281e-05
1.212e-05
1.145e-05
1.08e-05
1.016e-05
9.534e-06
8.924e-06
8.325e-06
7.737e-06
7.159e-06
6.589e-06
6.027e-06
5.472e-06
4.922e-06
4.377e-06
3.836e-06
3.297e-06
2.76e-06
2.223e-06
1.685e-06
1.143e-06
5.959e-07
1.19e-07
0.0002325
0.0002345
0.0002358
0.0002363
0.000236
0.0002353
0.0002344
0.0002333
0.0002322
0.0002312
0.0002301
0.0002292
0.0002283
0.0002274
0.0002266
0.0002257
0.0002249
0.0002241
0.0002233
0.0002225
0.0002217
0.0002209
0.00022
0.0002192
0.0002184
0.0002175
0.0002166
0.0002158
0.0002148
0.0002139
0.000213
0.000212
0.000211
0.0002099
0.0002089
0.0002078
0.0002066
0.0002054
0.0002041
0.0002028
0.0002014
0.0001999
0.0001983
0.0001967
0.0001949
0.000193
0.000191
0.0001888
0.0001864
0.0001838
0.000181
0.000178
0.0001747
0.0001711
0.0001672
0.0001629
0.0001584
0.0001535
0.0001484
0.0001429
0.0001372
0.0001312
0.0001251
0.000119
0.0001129
0.0001069
0.0001011
9.556e-05
9.02e-05
8.504e-05
8.009e-05
7.536e-05
7.085e-05
6.658e-05
6.255e-05
5.879e-05
5.529e-05
5.205e-05
4.907e-05
4.631e-05
4.378e-05
4.144e-05
3.929e-05
3.729e-05
3.544e-05
3.371e-05
3.209e-05
3.057e-05
2.913e-05
2.778e-05
2.649e-05
2.527e-05
2.411e-05
2.3e-05
2.195e-05
2.093e-05
1.996e-05
1.903e-05
1.814e-05
1.728e-05
1.645e-05
1.565e-05
1.488e-05
1.413e-05
1.341e-05
1.27e-05
1.202e-05
1.136e-05
1.071e-05
1.008e-05
9.46e-06
8.856e-06
8.263e-06
7.68e-06
7.107e-06
6.543e-06
5.986e-06
5.436e-06
4.892e-06
4.352e-06
3.816e-06
3.283e-06
2.751e-06
2.219e-06
1.686e-06
1.15e-06
6.08e-07
1.3e-07
0.0002302
0.0002321
0.0002334
0.000234
0.0002339
0.0002335
0.0002328
0.0002319
0.000231
0.0002301
0.0002292
0.0002283
0.0002275
0.0002267
0.0002259
0.0002251
0.0002244
0.0002236
0.0002229
0.0002221
0.0002214
0.0002206
0.0002198
0.0002191
0.0002183
0.0002175
0.0002166
0.0002158
0.0002149
0.000214
0.0002131
0.0002122
0.0002112
0.0002102
0.0002092
0.0002081
0.000207
0.0002058
0.0002046
0.0002033
0.000202
0.0002006
0.0001991
0.0001975
0.0001958
0.000194
0.000192
0.0001899
0.0001876
0.0001851
0.0001823
0.0001793
0.000176
0.0001724
0.0001685
0.0001642
0.0001596
0.0001546
0.0001493
0.0001437
0.0001378
0.0001316
0.0001253
0.0001189
0.0001125
0.0001064
0.0001004
9.473e-05
8.925e-05
8.399e-05
7.895e-05
7.412e-05
6.954e-05
6.521e-05
6.116e-05
5.738e-05
5.39e-05
5.069e-05
4.775e-05
4.506e-05
4.26e-05
4.034e-05
3.827e-05
3.635e-05
3.457e-05
3.291e-05
3.136e-05
2.99e-05
2.852e-05
2.722e-05
2.598e-05
2.48e-05
2.367e-05
2.26e-05
2.157e-05
2.059e-05
1.964e-05
1.873e-05
1.786e-05
1.702e-05
1.621e-05
1.543e-05
1.467e-05
1.394e-05
1.323e-05
1.254e-05
1.187e-05
1.122e-05
1.058e-05
9.959e-06
9.351e-06
8.756e-06
8.171e-06
7.597e-06
7.033e-06
6.476e-06
5.927e-06
5.384e-06
4.847e-06
4.314e-06
3.785e-06
3.259e-06
2.734e-06
2.21e-06
1.684e-06
1.155e-06
6.212e-07
1.431e-07
0.0002283
0.00023
0.0002313
0.0002319
0.0002321
0.0002319
0.0002314
0.0002307
0.0002299
0.0002291
0.0002283
0.0002275
0.0002268
0.000226
0.0002253
0.0002246
0.0002239
0.0002232
0.0002225
0.0002218
0.0002211
0.0002204
0.0002197
0.000219
0.0002182
0.0002174
0.0002167
0.0002159
0.000215
0.0002142
0.0002133
0.0002124
0.0002115
0.0002106
0.0002096
0.0002086
0.0002075
0.0002064
0.0002052
0.000204
0.0002027
0.0002014
0.0002
0.0001985
0.0001969
0.0001951
0.0001933
0.0001913
0.0001891
0.0001867
0.000184
0.0001811
0.0001778
0.0001742
0.0001703
0.000166
0.0001613
0.0001562
0.0001507
0.0001448
0.0001386
0.0001322
0.0001255
0.0001188
0.0001121
0.0001057
9.954e-05
9.367e-05
8.803e-05
8.262e-05
7.744e-05
7.25e-05
6.783e-05
6.343e-05
5.934e-05
5.556e-05
5.21e-05
4.894e-05
4.607e-05
4.347e-05
4.11e-05
3.894e-05
3.697e-05
3.515e-05
3.347e-05
3.189e-05
3.042e-05
2.904e-05
2.773e-05
2.649e-05
2.53e-05
2.418e-05
2.31e-05
2.207e-05
2.108e-05
2.013e-05
1.922e-05
1.834e-05
1.75e-05
1.668e-05
1.59e-05
1.514e-05
1.44e-05
1.369e-05
1.3e-05
1.233e-05
1.167e-05
1.103e-05
1.041e-05
9.804e-06
9.209e-06
8.626e-06
8.053e-06
7.49e-06
6.936e-06
6.389e-06
5.85e-06
5.316e-06
4.788e-06
4.265e-06
3.745e-06
3.227e-06
2.711e-06
2.195e-06
1.679e-06
1.16e-06
6.355e-07
1.581e-07
0.0002266
0.0002282
0.0002295
0.0002302
0.0002305
0.0002304
0.0002301
0.0002295
0.0002289
0.0002282
0.0002275
0.0002268
0.0002261
0.0002255
0.0002248
0.0002242
0.0002235
0.0002229
0.0002222
0.0002216
0.0002209
0.0002203
0.0002196
0.0002189
0.0002182
0.0002175
0.0002167
0.000216
0.0002152
0.0002144
0.0002136
0.0002128
0.0002119
0.000211
0.0002101
0.0002091
0.0002081
0.0002071
0.000206
0.0002049
0.0002037
0.0002024
0.0002011
0.0001997
0.0001982
0.0001966
0.0001948
0.000193
0.0001909
0.0001886
0.0001861
0.0001833
0.0001801
0.0001766
0.0001726
0.0001683
0.0001635
0.0001582
0.0001525
0.0001464
0.0001399
0.000133
0.0001259
0.0001187
0.0001116
0.0001048
9.839e-05
9.228e-05
8.642e-05
8.082e-05
7.546e-05
7.039e-05
6.561e-05
6.116e-05
5.705e-05
5.328e-05
4.986e-05
4.678e-05
4.401e-05
4.152e-05
3.928e-05
3.725e-05
3.54e-05
3.37e-05
3.213e-05
3.067e-05
2.929e-05
2.8e-05
2.677e-05
2.56e-05
2.448e-05
2.342e-05
2.24e-05
2.142e-05
2.048e-05
1.957e-05
1.87e-05
1.786e-05
1.705e-05
1.627e-05
1.551e-05
1.478e-05
1.407e-05
1.338e-05
1.271e-05
1.206e-05
1.143e-05
1.081e-05
1.021e-05
9.616e-06
9.037e-06
8.469e-06
7.91e-06
7.36e-06
6.819e-06
6.284e-06
5.757e-06
5.234e-06
4.717e-06
4.204e-06
3.695e-06
3.187e-06
2.682e-06
2.177e-06
1.671e-06
1.163e-06
6.509e-07
1.748e-07
0.0002252
0.0002267
0.0002279
0.0002287
0.0002291
0.0002291
0.0002289
0.0002285
0.000228
0.0002275
0.0002268
0.0002262
0.0002256
0.000225
0.0002244
0.0002238
0.0002232
0.0002226
0.000222
0.0002214
0.0002208
0.0002201
0.0002195
0.0002189
0.0002182
0.0002176
0.0002169
0.0002162
0.0002155
0.0002147
0.000214
0.0002132
0.0002124
0.0002115
0.0002107
0.0002098
0.0002089
0.0002079
0.0002069
0.0002058
0.0002047
0.0002036
0.0002024
0.0002011
0.0001997
0.0001983
0.0001967
0.000195
0.0001931
0.000191
0.0001886
0.0001859
0.0001829
0.0001795
0.0001756
0.0001713
0.0001664
0.000161
0.000155
0.0001486
0.0001416
0.0001343
0.0001266
0.0001187
0.000111
0.0001037
9.686e-05
9.041e-05
8.426e-05
7.84e-05
7.286e-05
6.765e-05
6.279e-05
5.83e-05
5.419e-05
5.047e-05
4.714e-05
4.418e-05
4.155e-05
3.921e-05
3.713e-05
3.526e-05
3.357e-05
3.202e-05
3.058e-05
2.925e-05
2.798e-05
2.679e-05
2.566e-05
2.457e-05
2.353e-05
2.254e-05
2.158e-05
2.066e-05
1.977e-05
1.892e-05
1.809e-05
1.73e-05
1.653e-05
1.578e-05
1.506e-05
1.437e-05
1.369e-05
1.303e-05
1.239e-05
1.176e-05
1.115e-05
1.055e-05
9.971e-06
9.399e-06
8.838e-06
8.287e-06
7.745e-06
7.211e-06
6.684e-06
6.164e-06
5.649e-06
5.14e-06
4.635e-06
4.134e-06
3.636e-06
3.141e-06
2.647e-06
2.154e-06
1.661e-06
1.166e-06
6.671e-07
1.93e-07
0.0002239
0.0002254
0.0002266
0.0002274
0.0002278
0.000228
0.0002279
0.0002276
0.0002272
0.0002268
0.0002262
0.0002257
0.0002251
0.0002246
0.000224
0.0002234
0.0002229
0.0002223
0.0002218
0.0002212
0.0002206
0.0002201
0.0002195
0.0002189
0.0002183
0.0002177
0.0002171
0.0002164
0.0002157
0.0002151
0.0002144
0.0002136
0.0002129
0.0002121
0.0002113
0.0002105
0.0002097
0.0002088
0.0002079
0.0002069
0.0002059
0.0002049
0.0002038
0.0002027
0.0002015
0.0002002
0.0001988
0.0001973
0.0001956
0.0001937
0.0001916
0.0001891
0.0001863
0.0001831
0.0001794
0.0001751
0.0001702
0.0001647
0.0001586
0.0001518
0.0001443
0.0001362
0.0001277
0.0001188
0.0001101
0.0001021
9.466e-05
8.775e-05
8.125e-05
7.513e-05
6.942e-05
6.412e-05
5.923e-05
5.476e-05
5.071e-05
4.71e-05
4.391e-05
4.111e-05
3.868e-05
3.654e-05
3.467e-05
3.3e-05
3.149e-05
3.011e-05
2.884e-05
2.764e-05
2.651e-05
2.543e-05
2.44e-05
2.342e-05
2.246e-05
2.155e-05
2.066e-05
1.981e-05
1.898e-05
1.819e-05
1.741e-05
1.667e-05
1.594e-05
1.524e-05
1.456e-05
1.39e-05
1.326e-05
1.263e-05
1.202e-05
1.142e-05
1.084e-05
1.027e-05
9.708e-06
9.158e-06
8.617e-06
8.085e-06
7.561e-06
7.044e-06
6.534e-06
6.029e-06
5.53e-06
5.034e-06
4.543e-06
4.056e-06
3.571e-06
3.089e-06
2.608e-06
2.128e-06
1.648e-06
1.167e-06
6.84e-07
2.125e-07
0.0002229
0.0002242
0.0002254
0.0002262
0.0002267
0.000227
0.000227
0.0002268
0.0002265
0.0002261
0.0002257
0.0002252
0.0002247
0.0002242
0.0002237
0.0002232
0.0002227
0.0002221
0.0002216
0.0002211
0.0002206
0.0002201
0.0002195
0.000219
0.0002184
0.0002179
0.0002173
0.0002167
0.0002161
0.0002155
0.0002148
0.0002142
0.0002135
0.0002128
0.0002121
0.0002113
0.0002106
0.0002098
0.000209
0.0002081
0.0002073
0.0002064
0.0002054
0.0002044
0.0002034
0.0002023
0.0002011
0.0001998
0.0001984
0.0001968
0.000195
0.0001929
0.0001904
0.0001874
0.000184
0.0001799
0.0001752
0.0001698
0.0001636
0.0001565
0.0001484
0.0001394
0.0001296
0.0001191
0.0001088
9.945e-05
9.123e-05
8.378e-05
7.695e-05
7.064e-05
6.487e-05
5.961e-05
5.48e-05
5.044e-05
4.655e-05
4.312e-05
4.014e-05
3.759e-05
3.541e-05
3.353e-05
3.191e-05
3.047e-05
2.919e-05
2.801e-05
2.691e-05
2.588e-05
2.489e-05
2.395e-05
2.303e-05
2.215e-05
2.129e-05
2.046e-05
1.966e-05
1.888e-05
1.812e-05
1.739e-05
1.667e-05
1.598e-05
1.531e-05
1.465e-05
1.402e-05
1.339e-05
1.279e-05
1.22e-05
1.162e-05
1.106e-05
1.05e-05
9.957e-06
9.422e-06
8.896e-06
8.378e-06
7.867e-06
7.363e-06
6.865e-06
6.372e-06
5.884e-06
5.4e-06
4.921e-06
4.444e-06
3.971e-06
3.501e-06
3.032e-06
2.565e-06
2.1e-06
1.634e-06
1.168e-06
7.014e-07
2.33e-07
0.000222
0.0002233
0.0002244
0.0002252
0.0002258
0.0002261
0.0002262
0.0002261
0.0002259
0.0002256
0.0002252
0.0002248
0.0002244
0.0002239
0.0002234
0.000223
0.0002225
0.000222
0.0002215
0.000221
0.0002206
0.0002201
0.0002196
0.0002191
0.0002186
0.0002181
0.0002175
0.000217
0.0002164
0.0002159
0.0002153
0.0002147
0.0002141
0.0002135
0.0002129
0.0002122
0.0002116
0.0002109
0.0002102
0.0002094
0.0002087
0.0002079
0.0002071
0.0002063
0.0002054
0.0002045
0.0002036
0.0002026
0.0002015
0.0002002
0.0001988
0.0001971
0.000195
0.0001925
0.0001895
0.0001859
0.0001816
0.0001766
0.0001707
0.0001637
0.0001553
0.0001452
0.0001334
0.0001198
0.0001062
9.477e-05
8.55e-05
7.755e-05
7.064e-05
6.446e-05
5.894e-05
5.396e-05
4.941e-05
4.532e-05
4.169e-05
3.855e-05
3.587e-05
3.363e-05
3.177e-05
3.021e-05
2.889e-05
2.773e-05
2.67e-05
2.574e-05
2.485e-05
2.399e-05
2.316e-05
2.235e-05
2.156e-05
2.079e-05
2.004e-05
1.93e-05
1.859e-05
1.788e-05
1.72e-05
1.653e-05
1.588e-05
1.525e-05
1.463e-05
1.402e-05
1.343e-05
1.286e-05
1.229e-05
1.174e-05
1.12e-05
1.067e-05
1.014e-05
9.628e-06
9.12e-06
8.62e-06
8.126e-06
7.637e-06
7.154e-06
6.675e-06
6.201e-06
5.731e-06
5.264e-06
4.801e-06
4.34e-06
3.882e-06
3.426e-06
2.972e-06
2.52e-06
2.069e-06
1.619e-06
1.169e-06
7.191e-07
2.54e-07
0.0002212
0.0002224
0.0002235
0.0002244
0.0002249
0.0002253
0.0002255
0.0002255
0.0002253
0.0002251
0.0002248
0.0002245
0.0002241
0.0002237
0.0002232
0.0002228
0.0002224
0.0002219
0.0002215
0.000221
0.0002206
0.0002201
0.0002197
0.0002192
0.0002188
0.0002183
0.0002178
0.0002173
0.0002168
0.0002163
0.0002158
0.0002153
0.0002148
0.0002143
0.0002137
0.0002131
0.0002126
0.000212
0.0002114
0.0002108
0.0002102
0.0002095
0.0002089
0.0002082
0.0002076
0.0002069
0.0002062
0.0002055
0.0002047
0.0002039
0.0002029
0.0002016
0.0002001
0.0001982
0.0001958
0.0001929
0.0001894
0.0001853
0.0001805
0.0001747
0.0001673
0.0001563
0.0001413
0.000121
0.0001003
8.571e-05
7.552e-05
6.765e-05
6.165e-05
5.617e-05
5.142e-05
4.713e-05
4.311e-05
3.945e-05
3.621e-05
3.344e-05
3.115e-05
2.93e-05
2.783e-05
2.664e-05
2.566e-05
2.482e-05
2.406e-05
2.335e-05
2.267e-05
2.2e-05
2.134e-05
2.068e-05
2.003e-05
1.938e-05
1.873e-05
1.809e-05
1.746e-05
1.685e-05
1.624e-05
1.564e-05
1.506e-05
1.448e-05
1.392e-05
1.337e-05
1.283e-05
1.23e-05
1.178e-05
1.127e-05
1.076e-05
1.026e-05
9.773e-06
9.288e-06
8.809e-06
8.335e-06
7.865e-06
7.4e-06
6.938e-06
6.48e-06
6.025e-06
5.573e-06
5.124e-06
4.677e-06
4.232e-06
3.789e-06
3.349e-06
2.91e-06
2.473e-06
2.037e-06
1.602e-06
1.169e-06
7.367e-07
2.754e-07
0.0002206
0.0002217
0.0002228
0.0002236
0.0002242
0.0002246
0.0002248
0.0002249
0.0002249
0.0002247
0.0002245
0.0002242
0.0002238
0.0002235
0.0002231
0.0002227
0.0002223
0.0002219
0.0002215
0.000221
0.0002206
0.0002202
0.0002198
0.0002194
0.000219
0.0002185
0.0002181
0.0002177
0.0002173
0.0002168
0.0002164
0.0002159
0.0002155
0.000215
0.0002146
0.0002141
0.0002136
0.0002131
0.0002126
0.0002121
0.0002117
0.0002112
0.0002107
0.0002102
0.0002098
0.0002093
0.0002089
0.0002085
0.0002081
0.0002076
0.0002071
0.0002064
0.0002055
0.0002042
0.0002026
0.0002005
0.0001981
0.0001955
0.0001929
0.0001892
0.0001837
0.000178
0.0001649
0.0001259
8.157e-05
6.525e-05
6.026e-05
5.601e-05
5.13e-05
4.58e-05
4.244e-05
3.93e-05
3.608e-05
3.301e-05
3.027e-05
2.795e-05
2.61e-05
2.47e-05
2.367e-05
2.29e-05
2.23e-05
2.18e-05
2.134e-05
2.09e-05
2.044e-05
1.996e-05
1.947e-05
1.897e-05
1.845e-05
1.792e-05
1.738e-05
1.685e-05
1.631e-05
1.578e-05
1.525e-05
1.473e-05
1.422e-05
1.371e-05
1.32e-05
1.271e-05
1.222e-05
1.173e-05
1.126e-05
1.078e-05
1.032e-05
9.856e-06
9.398e-06
8.944e-06
8.493e-06
8.046e-06
7.601e-06
7.159e-06
6.72e-06
6.283e-06
5.847e-06
5.414e-06
4.982e-06
4.552e-06
4.123e-06
3.696e-06
3.271e-06
2.847e-06
2.425e-06
2.004e-06
1.586e-06
1.169e-06
7.541e-07
2.967e-07
0.00022
0.0002211
0.0002221
0.000223
0.0002236
0.000224
0.0002243
0.0002244
0.0002244
0.0002243
0.0002241
0.0002239
0.0002236
0.0002233
0.0002229
0.0002226
0.0002222
0.0002218
0.0002215
0.0002211
0.0002207
0.0002203
0.0002199
0.0002196
0.0002192
0.0002188
0.0002184
0.0002181
0.0002177
0.0002173
0.0002169
0.0002166
0.0002162
0.0002158
0.0002154
0.000215
0.0002146
0.0002143
0.0002139
0.0002135
0.0002131
0.0002128
0.0002125
0.0002122
0.0002119
0.0002117
0.0002115
0.0002114
0.0002114
0.0002113
0.0002113
0.0002111
0.0002108
0.0002102
0.0002093
0.000208
0.0002066
0.0002055
0.0002042
0.0002054
0.0001964
0.0001449
0.0001344
0.0001174
9.354e-05
9.363e-05
9.092e-05
5.376e-05
3.859e-05
3.548e-05
3.378e-05
3.104e-05
2.876e-05
2.634e-05
2.411e-05
2.225e-05
2.087e-05
1.996e-05
1.941e-05
1.909e-05
1.89e-05
1.876e-05
1.861e-05
1.842e-05
1.819e-05
1.791e-05
1.759e-05
1.724e-05
1.686e-05
1.645e-05
1.603e-05
1.56e-05
1.516e-05
1.471e-05
1.427e-05
1.382e-05
1.337e-05
1.293e-05
1.248e-05
1.204e-05
1.16e-05
1.117e-05
1.074e-05
1.03e-05
9.876e-06
9.45e-06
9.025e-06
8.602e-06
8.18e-06
7.759e-06
7.34e-06
6.921e-06
6.504e-06
6.087e-06
5.671e-06
5.256e-06
4.841e-06
4.428e-06
4.015e-06
3.603e-06
3.193e-06
2.784e-06
2.377e-06
1.972e-06
1.569e-06
1.168e-06
7.71e-07
3.175e-07
0.0002195
0.0002206
0.0002216
0.0002224
0.0002231
0.0002235
0.0002238
0.000224
0.0002241
0.000224
0.0002239
0.0002237
0.0002234
0.0002232
0.0002228
0.0002225
0.0002222