/*--------------------------------*- C++ -*----------------------------------*\
  =========                 |
  \\      /  F ield         | OpenFOAM: The Open Source CFD Toolbox
   \\    /   O peration     | Website:  https://openfoam.org
    \\  /    A nd           | Version:  7
     \\/     M anipulation  |
\*---------------------------------------------------------------------------*/
FoamFile
{
    version     2.0;
    format      ascii;
    class       surfaceScalarField;
    location    "1619.99947342360838";
    object      phi;
}
// * * * * * * * * * * * * * * * * * * * * * * * * * * * * * * * * * * * * * //

dimensions      [0 3 -1 0 0 0 0];

internalField   nonuniform List<scalar> 
8032
(
6.857e-10
2.518e-10
4.804e-10
2.053e-10
3.48e-10
1.324e-10
2.643e-10
8.372e-11
2.101e-10
5.416e-11
1.738e-10
3.637e-11
1.482e-10
2.551e-11
1.296e-10
1.866e-11
1.154e-10
1.415e-11
1.044e-10
1.104e-11
9.559e-11
8.81e-12
8.844e-11
7.149e-12
8.257e-11
5.874e-12
7.77e-11
4.869e-12
7.364e-11
4.061e-12
7.024e-11
3.397e-12
6.74e-11
2.844e-12
6.502e-11
2.375e-12
6.305e-11
1.971e-12
6.143e-11
1.62e-12
6.012e-11
1.309e-12
5.909e-11
1.03e-12
5.832e-11
7.771e-13
5.777e-11
5.438e-13
5.745e-11
3.255e-13
5.733e-11
1.184e-13
5.741e-11
-8.089e-14
5.769e-11
-2.753e-13
5.815e-11
-4.675e-13
5.881e-11
-6.596e-13
5.967e-11
-8.537e-13
6.072e-11
-1.051e-12
6.197e-11
-1.254e-12
6.344e-11
-1.464e-12
6.512e-11
-1.681e-12
6.702e-11
-1.906e-12
6.916e-11
-2.141e-12
7.155e-11
-2.384e-12
7.418e-11
-2.636e-12
7.708e-11
-2.895e-12
8.024e-11
-3.162e-12
8.367e-11
-3.434e-12
8.738e-11
-3.708e-12
9.136e-11
-3.982e-12
9.561e-11
-4.251e-12
1.001e-10
-4.511e-12
1.049e-10
-4.756e-12
1.099e-10
-4.98e-12
1.15e-10
-5.176e-12
1.204e-10
-5.335e-12
1.258e-10
-5.451e-12
1.313e-10
-5.514e-12
1.369e-10
-5.515e-12
1.423e-10
-5.448e-12
1.476e-10
-5.304e-12
1.527e-10
-5.079e-12
1.575e-10
-4.769e-12
1.618e-10
-4.372e-12
1.657e-10
-3.892e-12
1.69e-10
-3.334e-12
1.718e-10
-2.706e-12
1.738e-10
-2.021e-12
1.751e-10
-1.296e-12
1.756e-10
-5.466e-13
1.754e-10
2.071e-13
1.745e-10
9.471e-13
1.728e-10
1.656e-12
1.705e-10
2.321e-12
1.676e-10
2.929e-12
1.641e-10
3.471e-12
1.601e-10
3.943e-12
1.558e-10
4.342e-12
1.511e-10
4.666e-12
1.462e-10
4.918e-12
1.411e-10
5.1e-12
1.359e-10
5.215e-12
1.306e-10
5.27e-12
1.254e-10
5.268e-12
1.201e-10
5.217e-12
1.15e-10
5.121e-12
1.1e-10
4.989e-12
1.052e-10
4.826e-12
1.006e-10
4.637e-12
9.615e-11
4.429e-12
9.194e-11
4.207e-12
8.796e-11
3.977e-12
8.422e-11
3.741e-12
8.072e-11
3.503e-12
7.745e-11
3.268e-12
7.441e-11
3.037e-12
7.16e-11
2.813e-12
6.9e-11
2.597e-12
6.661e-11
2.391e-12
6.442e-11
2.195e-12
6.241e-11
2.009e-12
6.057e-11
1.835e-12
5.89e-11
1.673e-12
5.738e-11
1.521e-12
5.6e-11
1.38e-12
5.475e-11
1.25e-12
5.362e-11
1.13e-12
5.26e-11
1.02e-12
5.168e-11
9.191e-13
5.085e-11
8.267e-13
5.011e-11
7.424e-13
4.944e-11
6.657e-13
4.885e-11
5.96e-13
4.832e-11
5.327e-13
4.784e-11
4.755e-13
4.742e-11
4.239e-13
4.704e-11
3.773e-13
4.67e-11
3.355e-13
4.641e-11
2.981e-13
4.614e-11
2.647e-13
4.591e-11
2.351e-13
4.57e-11
2.092e-13
4.551e-11
1.867e-13
4.534e-11
1.676e-13
4.519e-11
1.519e-13
4.505e-11
1.397e-13
4.492e-11
1.314e-13
4.479e-11
1.276e-13
4.466e-11
1.294e-13
4.452e-11
1.389e-13
4.436e-11
1.601e-13
4.416e-11
1.998e-13
4.39e-11
2.655e-13
3.45e-13
9.523e-10
2.37e-10
8.501e-10
3.075e-10
7.275e-10
2.55e-10
6.183e-10
1.929e-10
5.294e-10
1.431e-10
4.592e-10
1.065e-10
4.042e-10
8.057e-11
3.606e-10
6.219e-11
3.258e-10
4.896e-11
2.976e-10
3.923e-11
2.746e-10
3.189e-11
2.555e-10
2.624e-11
2.396e-10
2.178e-11
2.262e-10
1.82e-11
2.15e-10
1.527e-11
2.056e-10
1.284e-11
1.976e-10
1.079e-11
1.91e-10
9.045e-12
1.854e-10
7.531e-12
1.808e-10
6.204e-12
1.771e-10
5.026e-12
1.742e-10
3.966e-12
1.719e-10
3e-12
1.704e-10
2.107e-12
1.694e-10
1.271e-12
1.691e-10
4.768e-13
1.693e-10
-2.877e-13
1.7e-10
-1.033e-12
1.713e-10
-1.769e-12
1.732e-10
-2.504e-12
1.756e-10
-3.245e-12
1.785e-10
-3.999e-12
1.82e-10
-4.77e-12
1.861e-10
-5.564e-12
1.908e-10
-6.385e-12
1.962e-10
-7.234e-12
2.021e-10
-8.113e-12
2.088e-10
-9.024e-12
2.161e-10
-9.963e-12
2.241e-10
-1.093e-11
2.329e-10
-1.192e-11
2.424e-10
-1.292e-11
2.526e-10
-1.393e-11
2.635e-10
-1.493e-11
2.752e-10
-1.591e-11
2.875e-10
-1.685e-11
3.005e-10
-1.773e-11
3.141e-10
-1.853e-11
3.281e-10
-1.922e-11
3.426e-10
-1.978e-11
3.573e-10
-2.017e-11
3.721e-10
-2.037e-11
3.87e-10
-2.034e-11
4.016e-10
-2.005e-11
4.158e-10
-1.949e-11
4.293e-10
-1.864e-11
4.42e-10
-1.748e-11
4.537e-10
-1.601e-11
4.64e-10
-1.424e-11
4.729e-10
-1.22e-11
4.801e-10
-9.905e-12
4.855e-10
-7.411e-12
4.889e-10
-4.772e-12
4.904e-10
-2.049e-12
4.9e-10
6.932e-13
4.875e-10
3.389e-12
4.832e-10
5.98e-12
4.771e-10
8.413e-12
4.694e-10
1.065e-11
4.602e-10
1.265e-11
4.497e-10
1.44e-11
4.382e-10
1.589e-11
4.257e-10
1.712e-11
4.126e-10
1.808e-11
3.989e-10
1.878e-11
3.849e-10
1.924e-11
3.707e-10
1.948e-11
3.564e-10
1.951e-11
3.423e-10
1.936e-11
3.284e-10
1.904e-11
3.148e-10
1.859e-11
3.016e-10
1.801e-11
2.889e-10
1.734e-11
2.767e-10
1.66e-11
2.651e-10
1.58e-11
2.541e-10
1.496e-11
2.438e-10
1.41e-11
2.34e-10
1.323e-11
2.249e-10
1.237e-11
2.165e-10
1.152e-11
2.086e-10
1.069e-11
2.013e-10
9.884e-12
1.946e-10
9.116e-12
1.884e-10
8.383e-12
1.827e-10
7.69e-12
1.775e-10
7.037e-12
1.727e-10
6.424e-12
1.684e-10
5.853e-12
1.645e-10
5.321e-12
1.609e-10
4.828e-12
1.577e-10
4.374e-12
1.547e-10
3.955e-12
1.521e-10
3.57e-12
1.497e-10
3.217e-12
1.475e-10
2.895e-12
1.456e-10
2.601e-12
1.439e-10
2.333e-12
1.423e-10
2.09e-12
1.409e-10
1.87e-12
1.397e-10
1.671e-12
1.385e-10
1.491e-12
1.375e-10
1.329e-12
1.367e-10
1.184e-12
1.359e-10
1.054e-12
1.352e-10
9.391e-13
1.345e-10
8.379e-13
1.34e-10
7.499e-13
1.335e-10
6.748e-13
1.33e-10
6.126e-13
1.326e-10
5.635e-13
1.322e-10
5.283e-13
1.318e-10
5.086e-13
1.314e-10
5.065e-13
1.31e-10
5.257e-13
1.306e-10
5.713e-13
1.302e-10
6.493e-13
1.297e-10
7.587e-13
8.618e-13
9.779e-10
1.966e-10
9.637e-10
3.217e-10
9.013e-10
3.175e-10
8.212e-10
2.73e-10
7.409e-10
2.233e-10
6.679e-10
1.795e-10
6.045e-10
1.44e-10
5.506e-10
1.161e-10
5.051e-10
9.447e-11
4.668e-10
7.758e-11
4.344e-10
6.426e-11
4.07e-10
5.362e-11
3.838e-10
4.5e-11
3.641e-10
3.793e-11
3.473e-10
3.205e-11
3.33e-10
2.711e-11
3.209e-10
2.289e-11
3.107e-10
1.925e-11
3.022e-10
1.608e-11
2.951e-10
1.328e-11
2.893e-10
1.078e-11
2.848e-10
8.525e-12
2.813e-10
6.458e-12
2.789e-10
4.542e-12
2.774e-10
2.743e-12
2.769e-10
1.032e-12
2.772e-10
-6.182e-13
2.784e-10
-2.228e-12
2.804e-10
-3.818e-12
2.833e-10
-5.404e-12
2.871e-10
-7.002e-12
2.917e-10
-8.625e-12
2.972e-10
-1.029e-11
3.036e-10
-1.199e-11
3.11e-10
-1.375e-11
3.193e-10
-1.557e-11
3.287e-10
-1.745e-11
3.39e-10
-1.939e-11
3.505e-10
-2.139e-11
3.63e-10
-2.344e-11
3.766e-10
-2.553e-11
3.913e-10
-2.765e-11
4.072e-10
-2.977e-11
4.241e-10
-3.188e-11
4.421e-10
-3.393e-11
4.612e-10
-3.59e-11
4.812e-10
-3.774e-11
5.02e-10
-3.939e-11
5.236e-10
-4.082e-11
5.458e-10
-4.196e-11
5.684e-10
-4.274e-11
5.911e-10
-4.311e-11
6.138e-10
-4.301e-11
6.361e-10
-4.237e-11
6.578e-10
-4.116e-11
6.785e-10
-3.933e-11
6.979e-10
-3.686e-11
7.156e-10
-3.375e-11
7.314e-10
-3.002e-11
7.449e-10
-2.571e-11
7.559e-10
-2.089e-11
7.641e-10
-1.565e-11
7.694e-10
-1.011e-11
7.718e-10
-4.388e-12
7.711e-10
1.371e-12
7.675e-10
7.037e-12
7.609e-10
1.249e-11
7.517e-10
1.762e-11
7.401e-10
2.233e-11
7.261e-10
2.657e-11
7.102e-10
3.029e-11
6.927e-10
3.347e-11
6.737e-10
3.609e-11
6.536e-10
3.815e-11
6.327e-10
3.969e-11
6.113e-10
4.071e-11
5.895e-10
4.126e-11
5.676e-10
4.138e-11
5.459e-10
4.11e-11
5.244e-10
4.048e-11
5.035e-10
3.955e-11
4.831e-10
3.838e-11
4.634e-10
3.7e-11
4.446e-10
3.545e-11
4.266e-10
3.379e-11
4.095e-10
3.203e-11
3.934e-10
3.023e-11
3.782e-10
2.84e-11
3.64e-10
2.658e-11
3.508e-10
2.478e-11
3.384e-10
2.302e-11
3.27e-10
2.132e-11
3.164e-10
1.969e-11
3.067e-10
1.813e-11
2.977e-10
1.665e-11
2.895e-10
1.526e-11
2.819e-10
1.395e-11
2.751e-10
1.272e-11
2.688e-10
1.158e-11
2.631e-10
1.052e-11
2.58e-10
9.544e-12
2.533e-10
8.641e-12
2.49e-10
7.811e-12
2.452e-10
7.049e-12
2.417e-10
6.351e-12
2.386e-10
5.715e-12
2.358e-10
5.134e-12
2.333e-10
4.606e-12
2.311e-10
4.127e-12
2.29e-10
3.693e-12
2.272e-10
3.301e-12
2.256e-10
2.947e-12
2.242e-10
2.63e-12
2.229e-10
2.346e-12
2.217e-10
2.094e-12
2.207e-10
1.871e-12
2.197e-10
1.677e-12
2.189e-10
1.51e-12
2.182e-10
1.371e-12
2.175e-10
1.259e-12
2.168e-10
1.175e-12
2.162e-10
1.121e-12
2.156e-10
1.1e-12
2.15e-10
1.115e-12
2.144e-10
1.167e-12
2.138e-10
1.259e-12
2.132e-10
1.377e-12
1.472e-12
9.752e-10
1.589e-10
9.93e-10
3.039e-10
9.728e-10
3.377e-10
9.268e-10
3.19e-10
8.69e-10
2.812e-10
8.084e-10
2.401e-10
7.502e-10
2.021e-10
6.97e-10
1.694e-10
6.495e-10
1.42e-10
6.077e-10
1.194e-10
5.712e-10
1.007e-10
5.395e-10
8.529e-11
5.121e-10
7.244e-11
4.884e-10
6.165e-11
4.68e-10
5.25e-11
4.504e-10
4.468e-11
4.353e-10
3.792e-11
4.226e-10
3.203e-11
4.118e-10
2.685e-11
4.028e-10
2.224e-11
3.955e-10
1.809e-11
3.897e-10
1.432e-11
3.853e-10
1.086e-11
3.822e-10
7.631e-12
3.804e-10
4.591e-12
3.797e-10
1.691e-12
3.802e-10
-1.11e-12
3.818e-10
-3.847e-12
3.846e-10
-6.551e-12
3.884e-10
-9.251e-12
3.934e-10
-1.197e-11
3.995e-10
-1.473e-11
4.068e-10
-1.755e-11
4.152e-10
-2.045e-11
4.249e-10
-2.343e-11
4.358e-10
-2.65e-11
4.481e-10
-2.968e-11
4.616e-10
-3.295e-11
4.766e-10
-3.632e-11
4.929e-10
-3.977e-11
5.107e-10
-4.328e-11
5.298e-10
-4.683e-11
5.505e-10
-5.038e-11
5.725e-10
-5.39e-11
5.959e-10
-5.732e-11
6.206e-10
-6.059e-11
6.465e-10
-6.363e-11
6.734e-10
-6.638e-11
7.013e-10
-6.872e-11
7.3e-10
-7.058e-11
7.591e-10
-7.184e-11
7.884e-10
-7.242e-11
8.176e-10
-7.22e-11
8.463e-10
-7.109e-11
8.741e-10
-6.903e-11
9.008e-10
-6.593e-11
9.257e-10
-6.178e-11
9.485e-10
-5.656e-11
9.687e-10
-5.03e-11
9.861e-10
-4.308e-11
1e-09
-3.502e-11
1.011e-09
-2.626e-11
1.018e-09
-1.7e-11
1.021e-09
-7.446e-12
1.02e-09
2.179e-12
1.015e-09
1.165e-11
1.007e-09
2.077e-11
9.954e-10
2.936e-11
9.804e-10
3.727e-11
9.626e-10
4.439e-11
9.423e-10
5.065e-11
9.197e-10
5.6e-11
8.954e-10
6.043e-11
8.696e-10
6.395e-11
8.427e-10
6.657e-11
8.151e-10
6.835e-11
7.87e-10
6.934e-11
7.588e-10
6.959e-11
7.307e-10
6.919e-11
7.03e-10
6.821e-11
6.758e-10
6.671e-11
6.494e-10
6.479e-11
6.239e-10
6.252e-11
5.993e-10
5.997e-11
5.759e-10
5.721e-11
5.537e-10
5.43e-11
5.326e-10
5.129e-11
5.128e-10
4.824e-11
4.941e-10
4.519e-11
4.768e-10
4.218e-11
4.605e-10
3.923e-11
4.455e-10
3.637e-11
4.316e-10
3.362e-11
4.187e-10
3.099e-11
4.069e-10
2.85e-11
3.96e-10
2.614e-11
3.86e-10
2.392e-11
3.769e-10
2.184e-11
3.686e-10
1.99e-11
3.61e-10
1.811e-11
3.541e-10
1.644e-11
3.478e-10
1.49e-11
3.422e-10
1.348e-11
3.37e-10
1.218e-11
3.324e-10
1.099e-11
3.282e-10
9.901e-12
3.244e-10
8.906e-12
3.21e-10
8e-12
3.18e-10
7.177e-12
3.152e-10
6.43e-12
3.128e-10
5.755e-12
3.106e-10
5.146e-12
3.086e-10
4.598e-12
3.069e-10
4.107e-12
3.053e-10
3.67e-12
3.039e-10
3.284e-12
3.026e-10
2.945e-12
3.015e-10
2.653e-12
3.004e-10
2.406e-12
2.995e-10
2.203e-12
2.986e-10
2.047e-12
2.978e-10
1.937e-12
2.97e-10
1.874e-12
2.963e-10
1.862e-12
2.955e-10
1.898e-12
2.948e-10
1.978e-12
2.941e-10
2.081e-12
2.161e-12
9.668e-10
1.296e-10
9.944e-10
2.762e-10
9.978e-10
3.343e-10
9.78e-10
3.388e-10
9.424e-10
3.168e-10
8.985e-10
2.84e-10
8.517e-10
2.489e-10
8.054e-10
2.156e-10
7.616e-10
1.857e-10
7.214e-10
1.596e-10
6.85e-10
1.371e-10
6.524e-10
1.178e-10
6.236e-10
1.013e-10
5.982e-10
8.704e-11
5.76e-10
7.473e-11
5.566e-10
6.403e-11
5.399e-10
5.465e-11
5.255e-10
4.638e-11
5.134e-10
3.902e-11
5.032e-10
3.241e-11
4.949e-10
2.642e-11
4.882e-10
2.094e-11
4.832e-10
1.587e-11
4.797e-10
1.113e-11
4.777e-10
6.64e-12
4.77e-10
2.346e-12
4.777e-10
-1.813e-12
4.798e-10
-5.883e-12
4.831e-10
-9.911e-12
4.878e-10
-1.394e-11
4.938e-10
-1.799e-11
5.012e-10
-2.211e-11
5.1e-10
-2.631e-11
5.201e-10
-3.062e-11
5.318e-10
-3.506e-11
5.449e-10
-3.963e-11
5.596e-10
-4.434e-11
5.758e-10
-4.92e-11
5.937e-10
-5.419e-11
6.132e-10
-5.929e-11
6.344e-10
-6.447e-11
6.573e-10
-6.971e-11
6.818e-10
-7.494e-11
7.08e-10
-8.011e-11
7.358e-10
-8.513e-11
7.652e-10
-8.993e-11
7.959e-10
-9.438e-11
8.279e-10
-9.839e-11
8.61e-10
-1.018e-10
8.949e-10
-1.045e-10
9.294e-10
-1.063e-10
9.641e-10
-1.071e-10
9.987e-10
-1.068e-10
1.033e-09
-1.051e-10
1.066e-09
-1.02e-10
1.097e-09
-9.742e-11
1.127e-09
-9.127e-11
1.154e-09
-8.356e-11
1.178e-09
-7.433e-11
1.198e-09
-6.368e-11
1.215e-09
-5.178e-11
1.228e-09
-3.887e-11
1.236e-09
-2.521e-11
1.24e-09
-1.111e-11
1.239e-09
3.088e-12
1.233e-09
1.706e-11
1.223e-09
3.052e-11
1.21e-09
4.32e-11
1.192e-09
5.488e-11
1.171e-09
6.54e-11
1.147e-09
7.467e-11
1.12e-09
8.26e-11
1.092e-09
8.919e-11
1.061e-09
9.443e-11
1.029e-09
9.837e-11
9.966e-10
1.011e-10
9.634e-10
1.026e-10
9.299e-10
1.03e-10
8.966e-10
1.025e-10
8.637e-10
1.011e-10
8.314e-10
9.898e-11
8e-10
9.621e-11
7.696e-10
9.291e-11
7.404e-10
8.919e-11
7.125e-10
8.515e-11
6.859e-10
8.088e-11
6.607e-10
7.647e-11
6.37e-10
7.199e-11
6.147e-10
6.749e-11
5.938e-10
6.305e-11
5.743e-10
5.87e-11
5.562e-10
5.447e-11
5.395e-10
5.04e-11
5.24e-10
4.65e-11
5.097e-10
4.279e-11
4.965e-10
3.929e-11
4.844e-10
3.599e-11
4.734e-10
3.289e-11
4.633e-10
3.001e-11
4.541e-10
2.732e-11
4.457e-10
2.483e-11
4.381e-10
2.253e-11
4.311e-10
2.041e-11
4.249e-10
1.846e-11
4.192e-10
1.667e-11
4.14e-10
1.503e-11
4.094e-10
1.353e-11
4.052e-10
1.217e-11
4.015e-10
1.093e-11
3.981e-10
9.805e-12
3.951e-10
8.785e-12
3.924e-10
7.864e-12
3.899e-10
7.035e-12
3.877e-10
6.291e-12
3.858e-10
5.627e-12
3.84e-10
5.038e-12
3.825e-10
4.52e-12
3.81e-10
4.07e-12
3.798e-10
3.687e-12
3.786e-10
3.368e-12
3.775e-10
3.113e-12
3.765e-10
2.923e-12
3.756e-10
2.796e-12
3.747e-10
2.733e-12
3.739e-10
2.73e-12
3.731e-10
2.777e-12
3.723e-10
2.852e-12
2.911e-12
9.592e-10
1.079e-10
9.875e-10
2.479e-10
1.003e-09
3.191e-10
1e-09
3.414e-10
9.825e-10
3.344e-10
9.544e-10
3.121e-10
9.202e-10
2.831e-10
8.835e-10
2.524e-10
8.466e-10
2.227e-10
8.109e-10
1.953e-10
7.775e-10
1.706e-10
7.466e-10
1.487e-10
7.186e-10
1.293e-10
6.935e-10
1.122e-10
6.711e-10
9.713e-11
6.513e-10
8.379e-11
6.34e-10
7.193e-11
6.191e-10
6.133e-11
6.063e-10
5.178e-11
5.956e-10
4.314e-11
5.868e-10
3.523e-11
5.798e-10
2.794e-11
5.745e-10
2.116e-11
5.708e-10
1.478e-11
5.687e-10
8.711e-12
5.682e-10
2.883e-12
5.692e-10
-2.777e-12
5.716e-10
-8.332e-12
5.755e-10
-1.384e-11
5.81e-10
-1.934e-11
5.879e-10
-2.49e-11
5.963e-10
-3.054e-11
6.063e-10
-3.629e-11
6.179e-10
-4.22e-11
6.311e-10
-4.827e-11
6.46e-10
-5.452e-11
6.626e-10
-6.097e-11
6.81e-10
-6.76e-11
7.012e-10
-7.44e-11
7.233e-10
-8.135e-11
7.472e-10
-8.841e-11
7.73e-10
-9.553e-11
8.007e-10
-1.026e-10
8.303e-10
-1.097e-10
8.616e-10
-1.165e-10
8.947e-10
-1.23e-10
9.293e-10
-1.29e-10
9.653e-10
-1.344e-10
1.003e-09
-1.39e-10
1.041e-09
-1.427e-10
1.08e-09
-1.451e-10
1.119e-09
-1.462e-10
1.158e-09
-1.457e-10
1.196e-09
-1.434e-10
1.233e-09
-1.392e-10
1.268e-09
-1.329e-10
1.302e-09
-1.246e-10
1.332e-09
-1.141e-10
1.359e-09
-1.015e-10
1.383e-09
-8.696e-11
1.402e-09
-7.075e-11
1.416e-09
-5.314e-11
1.425e-09
-3.45e-11
1.429e-09
-1.528e-11
1.428e-09
4.091e-12
1.422e-09
2.315e-11
1.411e-09
4.15e-11
1.396e-09
5.877e-11
1.376e-09
7.47e-11
1.352e-09
8.905e-11
1.325e-09
1.017e-10
1.295e-09
1.125e-10
1.263e-09
1.215e-10
1.229e-09
1.287e-10
1.193e-09
1.341e-10
1.156e-09
1.379e-10
1.119e-09
1.4e-10
1.081e-09
1.407e-10
1.044e-09
1.4e-10
1.006e-09
1.382e-10
9.701e-10
1.354e-10
9.346e-10
1.316e-10
9.004e-10
1.272e-10
8.674e-10
1.222e-10
8.358e-10
1.167e-10
8.057e-10
1.109e-10
7.772e-10
1.05e-10
7.503e-10
9.888e-11
7.251e-10
9.278e-11
7.014e-10
8.673e-11
6.793e-10
8.08e-11
6.587e-10
7.504e-11
6.396e-10
6.948e-11
6.219e-10
6.416e-11
6.056e-10
5.91e-11
5.906e-10
5.43e-11
5.768e-10
4.978e-11
5.642e-10
4.554e-11
5.526e-10
4.158e-11
5.42e-10
3.789e-11
5.324e-10
3.447e-11
5.236e-10
3.13e-11
5.157e-10
2.838e-11
5.084e-10
2.569e-11
5.019e-10
2.322e-11
4.959e-10
2.096e-11
4.906e-10
1.889e-11
4.858e-10
1.7e-11
4.814e-10
1.528e-11
4.775e-10
1.372e-11
4.74e-10
1.231e-11
4.708e-10
1.103e-11
4.68e-10
9.875e-12
4.654e-10
8.838e-12
4.631e-10
7.911e-12
4.611e-10
7.087e-12
4.592e-10
6.359e-12
4.576e-10
5.725e-12
4.561e-10
5.179e-12
4.547e-10
4.719e-12
4.535e-10
4.343e-12
4.524e-10
4.049e-12
4.513e-10
3.836e-12
4.504e-10
3.701e-12
4.495e-10
3.639e-12
4.486e-10
3.636e-12
4.478e-10
3.671e-12
3.708e-12
9.536e-10
9.185e-11
9.795e-10
2.22e-10
9.996e-10
2.99e-10
1.007e-09
3.335e-10
1.003e-09
3.392e-10
9.876e-10
3.271e-10
9.653e-10
3.054e-10
9.385e-10
2.791e-10
9.096e-10
2.516e-10
8.801e-10
2.247e-10
8.513e-10
1.994e-10
8.239e-10
1.761e-10
7.984e-10
1.549e-10
7.749e-10
1.357e-10
7.536e-10
1.184e-10
7.346e-10
1.028e-10
7.178e-10
8.877e-11
7.031e-10
7.603e-11
6.904e-10
6.444e-11
6.797e-10
5.382e-11
6.709e-10
4.403e-11
6.639e-10
3.494e-11
6.587e-10
2.641e-11
6.551e-10
1.834e-11
6.532e-10
1.063e-11
6.529e-10
3.199e-12
6.541e-10
-4.048e-12
6.57e-10
-1.118e-11
6.614e-10
-1.826e-11
6.674e-10
-2.536e-11
6.75e-10
-3.252e-11
6.843e-10
-3.98e-11
6.952e-10
-4.723e-11
7.079e-10
-5.485e-11
7.223e-10
-6.269e-11
7.386e-10
-7.076e-11
7.567e-10
-7.907e-11
7.767e-10
-8.762e-11
7.987e-10
-9.638e-11
8.227e-10
-1.053e-10
8.487e-10
-1.144e-10
8.767e-10
-1.236e-10
9.068e-10
-1.327e-10
9.388e-10
-1.417e-10
9.729e-10
-1.505e-10
1.009e-09
-1.588e-10
1.046e-09
-1.666e-10
1.085e-09
-1.735e-10
1.126e-09
-1.795e-10
1.167e-09
-1.841e-10
1.21e-09
-1.873e-10
1.252e-09
-1.887e-10
1.294e-09
-1.88e-10
1.336e-09
-1.851e-10
1.377e-09
-1.797e-10
1.415e-09
-1.717e-10
1.452e-09
-1.609e-10
1.485e-09
-1.474e-10
1.515e-09
-1.312e-10
1.54e-09
-1.125e-10
1.561e-09
-9.154e-11
1.577e-09
-6.878e-11
1.587e-09
-4.469e-11
1.592e-09
-1.983e-11
1.59e-09
5.201e-12
1.584e-09
2.983e-11
1.572e-09
5.352e-11
1.555e-09
7.581e-11
1.533e-09
9.634e-11
1.507e-09
1.148e-10
1.478e-09
1.311e-10
1.445e-09
1.451e-10
1.41e-09
1.567e-10
1.373e-09
1.66e-10
1.334e-09
1.73e-10
1.294e-09
1.779e-10
1.253e-09
1.807e-10
1.212e-09
1.816e-10
1.171e-09
1.808e-10
1.131e-09
1.785e-10
1.092e-09
1.749e-10
1.053e-09
1.702e-10
1.016e-09
1.645e-10
9.799e-10
1.581e-10
9.455e-10
1.511e-10
9.128e-10
1.437e-10
8.818e-10
1.36e-10
8.525e-10
1.282e-10
8.249e-10
1.203e-10
7.991e-10
1.126e-10
7.749e-10
1.049e-10
7.525e-10
9.752e-11
7.316e-10
9.035e-11
7.123e-10
8.349e-11
6.944e-10
7.695e-11
6.78e-10
7.075e-11
6.628e-10
6.491e-11
6.489e-10
5.943e-11
6.362e-10
5.43e-11
6.246e-10
4.952e-11
6.14e-10
4.508e-11
6.043e-10
4.097e-11
5.955e-10
3.717e-11
5.875e-10
3.368e-11
5.803e-10
3.047e-11
5.737e-10
2.752e-11
5.678e-10
2.483e-11
5.624e-10
2.236e-11
5.576e-10
2.012e-11
5.532e-10
1.808e-11
5.493e-10
1.623e-11
5.458e-10
1.456e-11
5.426e-10
1.304e-11
5.398e-10
1.168e-11
5.372e-10
1.046e-11
5.349e-10
9.376e-12
5.329e-10
8.414e-12
5.31e-10
7.571e-12
5.294e-10
6.84e-12
5.279e-10
6.217e-12
5.265e-10
5.7e-12
5.253e-10
5.283e-12
5.241e-10
4.965e-12
5.231e-10
4.74e-12
5.221e-10
4.602e-12
5.212e-10
4.536e-12
5.204e-10
4.525e-12
4.535e-12
9.498e-10
7.957e-11
9.724e-10
1.993e-10
9.938e-10
2.776e-10
1.008e-09
3.198e-10
1.012e-09
3.352e-10
1.007e-09
3.322e-10
9.942e-10
3.177e-10
9.766e-10
2.967e-10
9.556e-10
2.726e-10
9.328e-10
2.475e-10
9.095e-10
2.227e-10
8.865e-10
1.991e-10
8.644e-10
1.769e-10
8.436e-10
1.564e-10
8.245e-10
1.376e-10
8.07e-10
1.203e-10
7.914e-10
1.044e-10
7.776e-10
8.981e-11
7.657e-10
7.639e-11
7.556e-10
6.396e-11
7.472e-10
5.24e-11
7.406e-10
4.157e-11
7.356e-10
3.134e-11
7.323e-10
2.161e-11
7.307e-10
1.226e-11
7.307e-10
3.204e-12
7.323e-10
-5.658e-12
7.355e-10
-1.441e-11
7.404e-10
-2.311e-11
7.469e-10
-3.185e-11
7.551e-10
-4.069e-11
7.649e-10
-4.967e-11
7.766e-10
-5.885e-11
7.9e-10
-6.827e-11
8.052e-10
-7.795e-11
8.224e-10
-8.792e-11
8.415e-10
-9.819e-11
8.626e-10
-1.087e-10
8.858e-10
-1.196e-10
9.111e-10
-1.306e-10
9.385e-10
-1.418e-10
9.681e-10
-1.531e-10
9.998e-10
-1.644e-10
1.034e-09
-1.755e-10
1.069e-09
-1.864e-10
1.107e-09
-1.967e-10
1.147e-09
-2.062e-10
1.188e-09
-2.149e-10
1.231e-09
-2.222e-10
1.275e-09
-2.28e-10
1.32e-09
-2.32e-10
1.365e-09
-2.337e-10
1.41e-09
-2.33e-10
1.454e-09
-2.295e-10
1.497e-09
-2.229e-10
1.538e-09
-2.13e-10
1.577e-09
-1.998e-10
1.613e-09
-1.831e-10
1.645e-09
-1.63e-10
1.672e-09
-1.398e-10
1.694e-09
-1.138e-10
1.711e-09
-8.556e-11
1.722e-09
-5.56e-11
1.727e-09
-2.468e-11
1.726e-09
6.447e-12
1.718e-09
3.704e-11
1.706e-09
6.644e-11
1.687e-09
9.407e-11
1.664e-09
1.195e-10
1.637e-09
1.424e-10
1.605e-09
1.625e-10
1.571e-09
1.798e-10
1.533e-09
1.941e-10
1.494e-09
2.056e-10
1.452e-09
2.143e-10
1.41e-09
2.203e-10
1.367e-09
2.237e-10
1.324e-09
2.249e-10
1.28e-09
2.24e-10
1.238e-09
2.212e-10
1.196e-09
2.167e-10
1.155e-09
2.109e-10
1.116e-09
2.039e-10
1.078e-09
1.96e-10
1.041e-09
1.874e-10
1.007e-09
1.783e-10
9.741e-10
1.688e-10
9.431e-10
1.592e-10
9.139e-10
1.495e-10
8.866e-10
1.399e-10
8.61e-10
1.305e-10
8.372e-10
1.213e-10
8.151e-10
1.125e-10
7.947e-10
1.04e-10
7.757e-10
9.588e-11
7.583e-10
8.822e-11
7.422e-10
8.098e-11
7.274e-10
7.418e-11
7.139e-10
6.782e-11
7.015e-10
6.189e-11
6.902e-10
5.638e-11
6.799e-10
5.128e-11
6.705e-10
4.656e-11
6.62e-10
4.221e-11
6.542e-10
3.821e-11
6.472e-10
3.455e-11
6.409e-10
3.119e-11
6.351e-10
2.811e-11
6.299e-10
2.531e-11
6.252e-10
2.277e-11
6.21e-10
2.045e-11
6.172e-10
1.835e-11
6.138e-10
1.646e-11
6.107e-10
1.475e-11
6.08e-10
1.322e-11
6.055e-10
1.185e-11
6.033e-10
1.063e-11
6.013e-10
9.56e-12
5.995e-10
8.627e-12
5.979e-10
7.825e-12
5.965e-10
7.148e-12
5.951e-10
6.593e-12
5.94e-10
6.154e-12
5.929e-10
5.825e-12
5.919e-10
5.598e-12
5.91e-10
5.461e-12
5.901e-10
5.396e-12
5.379e-12
9.472e-10
6.991e-11
9.668e-10
1.797e-10
9.878e-10
2.566e-10
1.005e-09
3.032e-10
1.014e-09
3.255e-10
1.016e-09
3.299e-10
1.012e-09
3.221e-10
1.002e-09
3.065e-10
9.886e-10
2.863e-10
9.724e-10
2.637e-10
9.548e-10
2.404e-10
9.366e-10
2.173e-10
9.185e-10
1.95e-10
9.01e-10
1.739e-10
8.846e-10
1.54e-10
8.694e-10
1.355e-10
8.555e-10
1.182e-10
8.432e-10
1.021e-10
8.324e-10
8.716e-11
8.232e-10
7.315e-11
8.157e-10
5.999e-11
8.097e-10
4.755e-11
8.053e-10
3.573e-11
8.025e-10
2.441e-11
8.013e-10
1.348e-11
8.016e-10
2.834e-12
8.036e-10
-7.619e-12
8.072e-10
-1.797e-11
8.124e-10
-2.83e-11
8.192e-10
-3.869e-11
8.277e-10
-4.921e-11
8.38e-10
-5.992e-11
8.5e-10
-7.087e-11
8.638e-10
-8.212e-11
8.796e-10
-9.368e-11
8.972e-10
-1.056e-10
9.169e-10
-1.179e-10
9.386e-10
-1.305e-10
9.625e-10
-1.434e-10
9.884e-10
-1.566e-10
1.017e-09
-1.7e-10
1.047e-09
-1.835e-10
1.08e-09
-1.97e-10
1.114e-09
-2.103e-10
1.151e-09
-2.233e-10
1.19e-09
-2.356e-10
1.231e-09
-2.471e-10
1.274e-09
-2.575e-10
1.318e-09
-2.664e-10
1.363e-09
-2.734e-10
1.41e-09
-2.783e-10
1.456e-09
-2.805e-10
1.503e-09
-2.798e-10
1.549e-09
-2.757e-10
1.594e-09
-2.679e-10
1.638e-09
-2.563e-10
1.678e-09
-2.405e-10
1.716e-09
-2.205e-10
1.749e-09
-1.965e-10
1.778e-09
-1.686e-10
1.802e-09
-1.373e-10
1.819e-09
-1.032e-10
1.831e-09
-6.704e-11
1.836e-09
-2.97e-11
1.834e-09
7.873e-12
1.827e-09
4.476e-11
1.813e-09
8.014e-11
1.794e-09
1.133e-10
1.769e-09
1.438e-10
1.741e-09
1.712e-10
1.708e-09
1.953e-10
1.672e-09
2.159e-10
1.633e-09
2.33e-10
1.591e-09
2.467e-10
1.549e-09
2.571e-10
1.505e-09
2.642e-10
1.46e-09
2.684e-10
1.415e-09
2.698e-10
1.37e-09
2.687e-10
1.326e-09
2.653e-10
1.283e-09
2.6e-10
1.241e-09
2.53e-10
1.2e-09
2.447e-10
1.161e-09
2.352e-10
1.124e-09
2.249e-10
1.088e-09
2.14e-10
1.054e-09
2.027e-10
1.022e-09
1.911e-10
9.92e-10
1.796e-10
9.638e-10
1.681e-10
9.374e-10
1.568e-10
9.129e-10
1.459e-10
8.901e-10
1.353e-10
8.689e-10
1.251e-10
8.494e-10
1.154e-10
8.313e-10
1.063e-10
8.147e-10
9.759e-11
7.995e-10
8.944e-11
7.855e-10
8.182e-11
7.727e-10
7.471e-11
7.61e-10
6.81e-11
7.503e-10
6.197e-11
7.405e-10
5.63e-11
7.317e-10
5.108e-11
7.236e-10
4.627e-11
7.163e-10
4.185e-11
7.097e-10
3.781e-11
7.037e-10
3.411e-11
6.983e-10
3.073e-11
6.934e-10
2.765e-11
6.89e-10
2.486e-11
6.85e-10
2.232e-11
6.814e-10
2.003e-11
6.782e-10
1.796e-11
6.753e-10
1.61e-11
6.728e-10
1.443e-11
6.704e-10
1.295e-11
6.684e-10
1.164e-11
6.665e-10
1.049e-11
6.648e-10
9.499e-12
6.633e-10
8.652e-12
6.62e-10
7.947e-12
6.607e-10
7.376e-12
6.596e-10
6.932e-12
6.586e-10
6.608e-12
6.577e-10
6.392e-12
6.568e-10
6.269e-12
6.223e-12
9.453e-10
6.208e-11
9.624e-10
1.626e-10
9.824e-10
2.366e-10
1e-09
2.852e-10
1.013e-09
3.123e-10
1.021e-09
3.225e-10
1.023e-09
3.204e-10
1.019e-09
3.098e-10
1.012e-09
2.935e-10
1.002e-09
2.739e-10
9.896e-10
2.526e-10
9.762e-10
2.307e-10
9.623e-10
2.089e-10
9.485e-10
1.877e-10
9.351e-10
1.674e-10
9.224e-10
1.481e-10
9.108e-10
1.299e-10
9.003e-10
1.127e-10
8.91e-10
9.641e-11
8.831e-10
8.107e-11
8.766e-10
6.653e-11
8.714e-10
5.267e-11
8.678e-10
3.941e-11
8.656e-10
2.662e-11
8.648e-10
1.42e-11
8.656e-10
2.055e-12
8.679e-10
-9.922e-12
8.718e-10
-2.182e-11
8.772e-10
-3.373e-11
8.842e-10
-4.574e-11
8.929e-10
-5.791e-11
9.033e-10
-7.032e-11
9.155e-10
-8.303e-11
9.294e-10
-9.608e-11
9.453e-10
-1.095e-10
9.63e-10
-1.234e-10
9.828e-10
-1.376e-10
1.005e-09
-1.523e-10
1.029e-09
-1.673e-10
1.055e-09
-1.827e-10
1.083e-09
-1.983e-10
1.113e-09
-2.14e-10
1.146e-09
-2.298e-10
1.181e-09
-2.453e-10
1.218e-09
-2.605e-10
1.258e-09
-2.749e-10
1.299e-09
-2.884e-10
1.342e-09
-3.006e-10
1.387e-09
-3.111e-10
1.433e-09
-3.195e-10
1.48e-09
-3.253e-10
1.528e-09
-3.282e-10
1.576e-09
-3.275e-10
1.623e-09
-3.23e-10
1.669e-09
-3.142e-10
1.714e-09
-3.008e-10
1.756e-09
-2.825e-10
1.794e-09
-2.593e-10
1.829e-09
-2.312e-10
1.859e-09
-1.985e-10
1.883e-09
-1.617e-10
1.902e-09
-1.215e-10
1.913e-09
-7.884e-11
1.918e-09
-3.477e-11
1.917e-09
9.535e-12
1.909e-09
5.296e-11
1.894e-09
9.451e-11
1.874e-09
1.334e-10
1.849e-09
1.69e-10
1.819e-09
2.01e-10
1.785e-09
2.29e-10
1.748e-09
2.53e-10
1.709e-09
2.729e-10
1.666e-09
2.888e-10
1.623e-09
3.008e-10
1.578e-09
3.09e-10
1.533e-09
3.138e-10
1.487e-09
3.154e-10
1.442e-09
3.14e-10
1.397e-09
3.101e-10
1.353e-09
3.038e-10
1.31e-09
2.956e-10
1.269e-09
2.859e-10
1.23e-09
2.748e-10
1.192e-09
2.628e-10
1.156e-09
2.5e-10
1.121e-09
2.368e-10
1.089e-09
2.234e-10
1.059e-09
2.099e-10
1.031e-09
1.965e-10
1.004e-09
1.834e-10
9.793e-10
1.706e-10
9.563e-10
1.583e-10
9.35e-10
1.464e-10
9.153e-10
1.351e-10
8.971e-10
1.244e-10
8.804e-10
1.143e-10
8.65e-10
1.048e-10
8.509e-10
9.594e-11
8.379e-10
8.764e-11
8.261e-10
7.993e-11
8.153e-10
7.277e-11
8.054e-10
6.615e-11
7.965e-10
6.004e-11
7.883e-10
5.442e-11
7.809e-10
4.925e-11
7.742e-10
4.452e-11
7.681e-10
4.019e-11
7.626e-10
3.623e-11
7.577e-10
3.262e-11
7.532e-10
2.934e-11
7.491e-10
2.636e-11
7.455e-10
2.367e-11
7.422e-10
2.123e-11
7.393e-10
1.904e-11
7.367e-10
1.707e-11
7.343e-10
1.532e-11
7.322e-10
1.376e-11
7.303e-10
1.239e-11
7.286e-10
1.12e-11
7.271e-10
1.017e-11
7.257e-10
9.31e-12
7.245e-10
8.6e-12
7.234e-10
8.036e-12
7.224e-10
7.609e-12
7.214e-10
7.31e-12
7.206e-10
7.128e-12
7.052e-12
9.44e-10
5.556e-11
9.59e-10
1.476e-10
9.776e-10
2.18e-10
9.958e-10
2.67e-10
1.011e-09
2.97e-10
1.022e-09
3.116e-10
1.028e-09
3.141e-10
1.03e-09
3.079e-10
1.028e-09
2.954e-10
1.023e-09
2.789e-10
1.016e-09
2.599e-10
1.007e-09
2.395e-10
9.975e-10
2.187e-10
9.873e-10
1.979e-10
9.771e-10
1.776e-10
9.673e-10
1.58e-10
9.58e-10
1.391e-10
9.495e-10
1.211e-10
9.42e-10
1.039e-10
9.355e-10
8.754e-11
9.302e-10
7.185e-11
9.261e-10
5.678e-11
9.232e-10
4.225e-11
9.217e-10
2.815e-11
9.215e-10
1.439e-11
9.227e-10
8.598e-13
9.253e-10
-1.253e-11
9.294e-10
-2.589e-11
9.349e-10
-3.929e-11
9.42e-10
-5.283e-11
9.507e-10
-6.658e-11
9.61e-10
-8.063e-11
9.73e-10
-9.503e-11
9.868e-10
-1.098e-10
1.002e-09
-1.251e-10
1.02e-09
-1.408e-10
1.039e-09
-1.57e-10
1.061e-09
-1.737e-10
1.084e-09
-1.908e-10
1.11e-09
-2.083e-10
1.138e-09
-2.261e-10
1.168e-09
-2.441e-10
1.2e-09
-2.62e-10
1.234e-09
-2.798e-10
1.271e-09
-2.972e-10
1.31e-09
-3.138e-10
1.351e-09
-3.293e-10
1.393e-09
-3.434e-10
1.438e-09
-3.556e-10
1.484e-09
-3.654e-10
1.531e-09
-3.723e-10
1.579e-09
-3.759e-10
1.627e-09
-3.755e-10
1.674e-09
-3.706e-10
1.721e-09
-3.609e-10
1.766e-09
-3.458e-10
1.809e-09
-3.251e-10
1.848e-09
-2.987e-10
1.883e-09
-2.666e-10
1.914e-09
-2.291e-10
1.939e-09
-1.867e-10
1.958e-09
-1.402e-10
1.97e-09
-9.079e-11
1.975e-09
-3.975e-11
1.973e-09
1.15e-11
1.964e-09
6.162e-11
1.949e-09
1.094e-10
1.928e-09
1.54e-10
1.903e-09
1.948e-10
1.872e-09
2.312e-10
1.838e-09
2.631e-10
1.801e-09
2.904e-10
1.761e-09
3.13e-10
1.719e-09
3.31e-10
1.675e-09
3.445e-10
1.63e-09
3.539e-10
1.585e-09
3.592e-10
1.539e-09
3.609e-10
1.494e-09
3.592e-10
1.449e-09
3.546e-10
1.406e-09
3.474e-10
1.364e-09
3.38e-10
1.323e-09
3.267e-10
1.283e-09
3.14e-10
1.246e-09
3.002e-10
1.21e-09
2.856e-10
1.177e-09
2.705e-10
1.145e-09
2.552e-10
1.115e-09
2.398e-10
1.087e-09
2.245e-10
1.061e-09
2.095e-10
1.036e-09
1.949e-10
1.014e-09
1.809e-10
9.928e-10
1.674e-10
9.735e-10
1.545e-10
9.556e-10
1.423e-10
9.391e-10
1.308e-10
9.239e-10
1.2e-10
9.1e-10
1.098e-10
8.973e-10
1.004e-10
8.856e-10
9.159e-11
8.75e-10
8.342e-11
8.652e-10
7.587e-11
8.564e-10
6.89e-11
8.483e-10
6.247e-11
8.41e-10
5.657e-11
8.344e-10
5.116e-11
8.284e-10
4.62e-11
8.229e-10
4.168e-11
8.18e-10
3.755e-11
8.136e-10
3.379e-11
8.095e-10
3.037e-11
8.059e-10
2.728e-11
8.027e-10
2.448e-11
7.998e-10
2.196e-11
7.971e-10
1.969e-11
7.948e-10
1.766e-11
7.927e-10
1.586e-11
7.908e-10
1.427e-11
7.891e-10
1.288e-11
7.876e-10
1.167e-11
7.863e-10
1.065e-11
7.851e-10
9.799e-12
7.84e-10
9.111e-12
7.83e-10
8.579e-12
7.822e-10
8.196e-12
7.813e-10
7.954e-12
7.848e-12
9.431e-10
5e-11
9.563e-10
1.343e-10
9.736e-10
2.008e-10
9.916e-10
2.49e-10
1.008e-09
2.807e-10
1.021e-09
2.983e-10
1.031e-09
3.045e-10
1.037e-09
3.02e-10
1.039e-09
2.93e-10
1.039e-09
2.794e-10
1.036e-09
2.627e-10
1.031e-09
2.441e-10
1.026e-09
2.246e-10
1.019e-09
2.046e-10
1.012e-09
1.846e-10
1.005e-09
1.65e-10
9.979e-10
1.46e-10
9.916e-10
1.275e-10
9.859e-10
1.096e-10
9.81e-10
9.245e-11
9.77e-10
7.586e-11
9.74e-10
5.98e-11
9.72e-10
4.42e-11
9.712e-10
2.898e-11
9.715e-10
1.403e-11
9.731e-10
-7.274e-13
9.76e-10
-1.54e-11
9.802e-10
-3.007e-11
9.857e-10
-4.485e-11
9.927e-10
-5.981e-11
1.001e-09
-7.504e-11
1.011e-09
-9.062e-11
1.023e-09
-1.066e-10
1.036e-09
-1.231e-10
1.051e-09
-1.4e-10
1.068e-09
-1.576e-10
1.086e-09
-1.756e-10
1.107e-09
-1.942e-10
1.129e-09
-2.133e-10
1.154e-09
-2.329e-10
1.181e-09
-2.528e-10
1.21e-09
-2.729e-10
1.241e-09
-2.931e-10
1.274e-09
-3.131e-10
1.309e-09
-3.326e-10
1.347e-09
-3.514e-10
1.386e-09
-3.69e-10
1.428e-09
-3.85e-10
1.471e-09
-3.989e-10
1.516e-09
-4.102e-10
1.562e-09
-4.184e-10
1.609e-09
-4.228e-10
1.656e-09
-4.227e-10
1.703e-09
-4.177e-10
1.75e-09
-4.072e-10
1.795e-09
-3.907e-10
1.837e-09
-3.678e-10
1.877e-09