/*--------------------------------*- C++ -*----------------------------------*\
  =========                 |
  \\      /  F ield         | OpenFOAM: The Open Source CFD Toolbox
   \\    /   O peration     | Website:  https://openfoam.org
    \\  /    A nd           | Version:  7
     \\/     M anipulation  |
\*---------------------------------------------------------------------------*/
FoamFile
{
    version     2.0;
    format      ascii;
    class       volVectorField;
    location    "1619.99947342360838";
    object      U;
}
// * * * * * * * * * * * * * * * * * * * * * * * * * * * * * * * * * * * * * //

dimensions      [0 1 -1 0 0 0 0];

internalField   nonuniform List<vector> 
4096
(
(0.001039 0.0001611 0)
(0.0007463 0.0001314 0)
(0.0005302 8.473e-05 0)
(0.0003919 5.358e-05 0)
(0.0003036 3.466e-05 0)
(0.0002457 2.328e-05 0)
(0.0002061 1.633e-05 0)
(0.0001778 1.194e-05 0)
(0.0001568 9.055e-06 0)
(0.0001407 7.066e-06 0)
(0.000128 5.638e-06 0)
(0.0001178 4.575e-06 0)
(0.0001094 3.759e-06 0)
(0.0001026 3.116e-06 0)
(9.686e-05 2.599e-06 0)
(9.208e-05 2.174e-06 0)
(8.809e-05 1.82e-06 0)
(8.475e-05 1.52e-06 0)
(8.197e-05 1.262e-06 0)
(7.967e-05 1.037e-06 0)
(7.78e-05 8.377e-07 0)
(7.63e-05 6.594e-07 0)
(7.514e-05 4.974e-07 0)
(7.43e-05 3.48e-07 0)
(7.374e-05 2.083e-07 0)
(7.346e-05 7.579e-08 0)
(7.343e-05 -5.177e-08 0)
(7.366e-05 -1.762e-07 0)
(7.414e-05 -2.992e-07 0)
(7.486e-05 -4.221e-07 0)
(7.583e-05 -5.463e-07 0)
(7.705e-05 -6.729e-07 0)
(7.852e-05 -8.028e-07 0)
(8.026e-05 -9.369e-07 0)
(8.227e-05 -1.076e-06 0)
(8.457e-05 -1.22e-06 0)
(8.716e-05 -1.37e-06 0)
(9.005e-05 -1.526e-06 0)
(9.327e-05 -1.687e-06 0)
(9.681e-05 -1.853e-06 0)
(0.0001007 -2.024e-06 0)
(0.0001049 -2.198e-06 0)
(0.0001095 -2.373e-06 0)
(0.0001144 -2.548e-06 0)
(0.0001197 -2.72e-06 0)
(0.0001253 -2.887e-06 0)
(0.0001312 -3.044e-06 0)
(0.0001374 -3.187e-06 0)
(0.0001439 -3.312e-06 0)
(0.0001507 -3.415e-06 0)
(0.0001576 -3.489e-06 0)
(0.0001646 -3.529e-06 0)
(0.0001716 -3.53e-06 0)
(0.0001787 -3.487e-06 0)
(0.0001855 -3.395e-06 0)
(0.0001922 -3.251e-06 0)
(0.0001985 -3.052e-06 0)
(0.0002043 -2.798e-06 0)
(0.0002096 -2.491e-06 0)
(0.0002142 -2.133e-06 0)
(0.0002181 -1.732e-06 0)
(0.0002211 -1.294e-06 0)
(0.0002233 -8.291e-07 0)
(0.0002244 -3.498e-07 0)
(0.0002247 1.325e-07 0)
(0.0002239 6.061e-07 0)
(0.0002223 1.06e-06 0)
(0.0002197 1.485e-06 0)
(0.0002163 1.874e-06 0)
(0.0002123 2.222e-06 0)
(0.0002075 2.524e-06 0)
(0.0002022 2.779e-06 0)
(0.0001964 2.986e-06 0)
(0.0001903 3.148e-06 0)
(0.0001839 3.264e-06 0)
(0.0001773 3.338e-06 0)
(0.0001706 3.373e-06 0)
(0.0001638 3.372e-06 0)
(0.0001571 3.339e-06 0)
(0.0001505 3.278e-06 0)
(0.000144 3.193e-06 0)
(0.0001378 3.088e-06 0)
(0.0001317 2.968e-06 0)
(0.0001259 2.835e-06 0)
(0.0001204 2.693e-06 0)
(0.0001151 2.545e-06 0)
(0.0001102 2.394e-06 0)
(0.0001056 2.242e-06 0)
(0.0001012 2.092e-06 0)
(9.719e-05 1.944e-06 0)
(9.345e-05 1.8e-06 0)
(8.999e-05 1.662e-06 0)
(8.679e-05 1.53e-06 0)
(8.386e-05 1.405e-06 0)
(8.117e-05 1.286e-06 0)
(7.871e-05 1.175e-06 0)
(7.646e-05 1.07e-06 0)
(7.442e-05 9.734e-07 0)
(7.256e-05 8.833e-07 0)
(7.088e-05 8.001e-07 0)
(6.935e-05 7.234e-07 0)
(6.798e-05 6.528e-07 0)
(6.674e-05 5.882e-07 0)
(6.562e-05 5.291e-07 0)
(6.462e-05 4.751e-07 0)
(6.371e-05 4.26e-07 0)
(6.291e-05 3.814e-07 0)
(6.218e-05 3.41e-07 0)
(6.154e-05 3.043e-07 0)
(6.096e-05 2.713e-07 0)
(6.045e-05 2.415e-07 0)
(5.999e-05 2.147e-07 0)
(5.959e-05 1.908e-07 0)
(5.923e-05 1.694e-07 0)
(5.891e-05 1.505e-07 0)
(5.863e-05 1.339e-07 0)
(5.837e-05 1.195e-07 0)
(5.814e-05 1.073e-07 0)
(5.794e-05 9.721e-08 0)
(5.775e-05 8.942e-08 0)
(5.758e-05 8.411e-08 0)
(5.741e-05 8.166e-08 0)
(5.725e-05 8.28e-08 0)
(5.708e-05 8.888e-08 0)
(5.689e-05 1.025e-07 0)
(5.666e-05 1.279e-07 0)
(5.636e-05 1.699e-07 0)
(5.597e-05 2.208e-07 0)
(0.001209 0.0003128 0)
(0.001154 0.0003282 0)
(0.00101 0.000248 0)
(0.0008613 0.0001771 0)
(0.0007345 0.0001262 0)
(0.0006327 9.145e-05 0)
(0.0005526 6.789e-05 0)
(0.0004895 5.174e-05 0)
(0.0004393 4.039e-05 0)
(0.000399 3.217e-05 0)
(0.0003662 2.605e-05 0)
(0.0003392 2.137e-05 0)
(0.0003168 1.77e-05 0)
(0.0002981 1.476e-05 0)
(0.0002824 1.237e-05 0)
(0.0002692 1.039e-05 0)
(0.000258 8.728e-06 0)
(0.0002487 7.308e-06 0)
(0.0002409 6.081e-06 0)
(0.0002344 5.007e-06 0)
(0.0002291 4.054e-06 0)
(0.0002248 3.198e-06 0)
(0.0002215 2.417e-06 0)
(0.0002191 1.697e-06 0)
(0.0002175 1.022e-06 0)
(0.0002166 3.809e-07 0)
(0.0002165 -2.359e-07 0)
(0.0002172 -8.375e-07 0)
(0.0002185 -1.432e-06 0)
(0.0002205 -2.025e-06 0)
(0.0002232 -2.623e-06 0)
(0.0002266 -3.232e-06 0)
(0.0002308 -3.856e-06 0)
(0.0002356 -4.498e-06 0)
(0.0002413 -5.162e-06 0)
(0.0002477 -5.85e-06 0)
(0.0002549 -6.562e-06 0)
(0.000263 -7.301e-06 0)
(0.0002719 -8.063e-06 0)
(0.0002818 -8.848e-06 0)
(0.0002925 -9.651e-06 0)
(0.0003042 -1.047e-05 0)
(0.0003168 -1.129e-05 0)
(0.0003303 -1.21e-05 0)
(0.0003448 -1.29e-05 0)
(0.0003602 -1.367e-05 0)
(0.0003764 -1.439e-05 0)
(0.0003933 -1.505e-05 0)
(0.000411 -1.562e-05 0)
(0.0004292 -1.607e-05 0)
(0.0004479 -1.64e-05 0)
(0.0004668 -1.656e-05 0)
(0.0004858 -1.654e-05 0)
(0.0005047 -1.632e-05 0)
(0.0005231 -1.587e-05 0)
(0.0005408 -1.518e-05 0)
(0.0005577 -1.424e-05 0)
(0.0005732 -1.305e-05 0)
(0.0005873 -1.161e-05 0)
(0.0005996 -9.94e-06 0)
(0.0006099 -8.071e-06 0)
(0.0006179 -6.037e-06 0)
(0.0006236 -3.883e-06 0)
(0.0006268 -1.661e-06 0)
(0.0006275 5.762e-07 0)
(0.0006256 2.775e-06 0)
(0.0006213 4.887e-06 0)
(0.0006146 6.869e-06 0)
(0.0006058 8.688e-06 0)
(0.0005949 1.032e-05 0)
(0.0005824 1.174e-05 0)
(0.0005683 1.295e-05 0)
(0.0005529 1.394e-05 0)
(0.0005365 1.472e-05 0)
(0.0005194 1.528e-05 0)
(0.0005016 1.565e-05 0)
(0.0004835 1.584e-05 0)
(0.0004653 1.586e-05 0)
(0.0004472 1.573e-05 0)
(0.0004292 1.547e-05 0)
(0.0004116 1.509e-05 0)
(0.0003944 1.462e-05 0)
(0.0003779 1.407e-05 0)
(0.000362 1.346e-05 0)
(0.0003467 1.28e-05 0)
(0.0003323 1.212e-05 0)
(0.0003186 1.142e-05 0)
(0.0003058 1.071e-05 0)
(0.0002937 1.001e-05 0)
(0.0002825 9.314e-06 0)
(0.000272 8.64e-06 0)
(0.0002623 7.988e-06 0)
(0.0002534 7.364e-06 0)
(0.0002451 6.77e-06 0)
(0.0002375 6.207e-06 0)
(0.0002305 5.678e-06 0)
(0.0002242 5.182e-06 0)
(0.0002183 4.719e-06 0)
(0.0002131 4.289e-06 0)
(0.0002082 3.89e-06 0)
(0.0002039 3.522e-06 0)
(0.0001999 3.184e-06 0)
(0.0001963 2.873e-06 0)
(0.0001931 2.588e-06 0)
(0.0001902 2.328e-06 0)
(0.0001876 2.091e-06 0)
(0.0001852 1.875e-06 0)
(0.0001831 1.679e-06 0)
(0.0001812 1.501e-06 0)
(0.0001796 1.34e-06 0)
(0.000178 1.196e-06 0)
(0.0001767 1.065e-06 0)
(0.0001755 9.484e-07 0)
(0.0001744 8.441e-07 0)
(0.0001735 7.515e-07 0)
(0.0001726 6.701e-07 0)
(0.0001719 5.994e-07 0)
(0.0001712 5.391e-07 0)
(0.0001705 4.892e-07 0)
(0.00017 4.5e-07 0)
(0.0001695 4.223e-07 0)
(0.000169 4.072e-07 0)
(0.0001685 4.07e-07 0)
(0.000168 4.253e-07 0)
(0.0001675 4.681e-07 0)
(0.0001669 5.434e-07 0)
(0.0001663 6.554e-07 0)
(0.0001657 7.724e-07 0)
(0.001226 0.0002775 0)
(0.001243 0.0004027 0)
(0.001194 0.0003664 0)
(0.001102 0.0002982 0)
(0.0009997 0.0002345 0)
(0.0009017 0.000183 0)
(0.0008144 0.0001437 0)
(0.0007393 0.0001141 0)
(0.0006757 9.179e-05 0)
(0.000622 7.475e-05 0)
(0.0005767 6.154e-05 0)
(0.0005385 5.111e-05 0)
(0.0005061 4.274e-05 0)
(0.0004786 3.592e-05 0)
(0.0004553 3.029e-05 0)
(0.0004354 2.557e-05 0)
(0.0004185 2.156e-05 0)
(0.0004042 1.811e-05 0)
(0.0003922 1.511e-05 0)
(0.0003822 1.247e-05 0)
(0.000374 1.012e-05 0)
(0.0003674 7.994e-06 0)
(0.0003623 6.053e-06 0)
(0.0003585 4.256e-06 0)
(0.000356 2.569e-06 0)
(0.0003547 9.653e-07 0)
(0.0003546 -5.798e-07 0)
(0.0003556 -2.087e-06 0)
(0.0003576 -3.576e-06 0)
(0.0003608 -5.061e-06 0)
(0.0003651 -6.558e-06 0)
(0.0003704 -8.079e-06 0)
(0.0003769 -9.635e-06 0)
(0.0003846 -1.124e-05 0)
(0.0003934 -1.289e-05 0)
(0.0004034 -1.459e-05 0)
(0.0004147 -1.636e-05 0)
(0.0004273 -1.818e-05 0)
(0.0004413 -2.006e-05 0)
(0.0004566 -2.199e-05 0)
(0.0004733 -2.397e-05 0)
(0.0004915 -2.596e-05 0)
(0.000511 -2.797e-05 0)
(0.000532 -2.995e-05 0)
(0.0005544 -3.19e-05 0)
(0.0005781 -3.376e-05 0)
(0.0006031 -3.55e-05 0)
(0.0006293 -3.707e-05 0)
(0.0006564 -3.843e-05 0)
(0.0006844 -3.951e-05 0)
(0.0007131 -4.026e-05 0)
(0.0007421 -4.062e-05 0)
(0.0007712 -4.054e-05 0)
(0.0007999 -3.995e-05 0)
(0.0008281 -3.882e-05 0)
(0.0008552 -3.71e-05 0)
(0.0008809 -3.478e-05 0)
(0.0009046 -3.185e-05 0)
(0.0009261 -2.833e-05 0)
(0.0009448 -2.426e-05 0)
(0.0009605 -1.971e-05 0)
(0.0009728 -1.476e-05 0)
(0.0009815 -9.522e-06 0)
(0.0009864 -4.119e-06 0)
(0.0009874 1.321e-06 0)
(0.0009847 6.673e-06 0)
(0.0009782 1.182e-05 0)
(0.0009681 1.666e-05 0)
(0.0009548 2.111e-05 0)
(0.0009384 2.51e-05 0)
(0.0009193 2.861e-05 0)
(0.0008979 3.159e-05 0)
(0.0008745 3.405e-05 0)
(0.0008495 3.599e-05 0)
(0.0008233 3.742e-05 0)
(0.0007961 3.837e-05 0)
(0.0007685 3.888e-05 0)
(0.0007405 3.897e-05 0)
(0.0007126 3.869e-05 0)
(0.000685 3.809e-05 0)
(0.0006579 3.721e-05 0)
(0.0006314 3.609e-05 0)
(0.0006058 3.478e-05 0)
(0.0005811 3.331e-05 0)
(0.0005576 3.173e-05 0)
(0.0005351 3.008e-05 0)
(0.0005139 2.837e-05 0)
(0.0004938 2.665e-05 0)
(0.000475 2.493e-05 0)
(0.0004575 2.323e-05 0)
(0.0004411 2.157e-05 0)
(0.0004258 1.997e-05 0)
(0.0004118 1.844e-05 0)
(0.0003988 1.697e-05 0)
(0.0003868 1.558e-05 0)
(0.0003758 1.427e-05 0)
(0.0003657 1.304e-05 0)
(0.0003565 1.189e-05 0)
(0.0003481 1.082e-05 0)
(0.0003404 9.825e-06 0)
(0.0003335 8.907e-06 0)
(0.0003272 8.061e-06 0)
(0.0003215 7.283e-06 0)
(0.0003163 6.57e-06 0)
(0.0003116 5.918e-06 0)
(0.0003074 5.322e-06 0)
(0.0003036 4.779e-06 0)
(0.0003002 4.286e-06 0)
(0.0002972 3.838e-06 0)
(0.0002945 3.433e-06 0)
(0.000292 3.067e-06 0)
(0.0002898 2.737e-06 0)
(0.0002878 2.441e-06 0)
(0.0002861 2.176e-06 0)
(0.0002845 1.941e-06 0)
(0.0002831 1.734e-06 0)
(0.0002819 1.553e-06 0)
(0.0002807 1.399e-06 0)
(0.0002797 1.269e-06 0)
(0.0002788 1.166e-06 0)
(0.0002779 1.09e-06 0)
(0.0002771 1.043e-06 0)
(0.0002764 1.028e-06 0)
(0.0002756 1.05e-06 0)
(0.0002748 1.113e-06 0)
(0.0002741 1.221e-06 0)
(0.0002733 1.367e-06 0)
(0.0002725 1.494e-06 0)
(0.001224 0.0002275 0)
(0.00126 0.0004003 0)
(0.001258 0.0004193 0)
(0.001216 0.0003789 0)
(0.001149 0.0003229 0)
(0.001073 0.0002685 0)
(0.0009975 0.0002215 0)
(0.0009262 0.0001827 0)
(0.0008617 0.0001513 0)
(0.0008046 0.000126 0)
(0.0007545 0.0001056 0)
(0.0007109 8.89e-05 0)
(0.0006731 7.516e-05 0)
(0.0006403 6.373e-05 0)
(0.0006121 5.411e-05 0)
(0.0005877 4.594e-05 0)
(0.0005669 3.892e-05 0)
(0.0005491 3.282e-05 0)
(0.000534 2.748e-05 0)
(0.0005214 2.273e-05 0)
(0.000511 1.848e-05 0)
(0.0005026 1.462e-05 0)
(0.000496 1.108e-05 0)
(0.0004912 7.791e-06 0)
(0.0004881 4.694e-06 0)
(0.0004865 1.742e-06 0)
(0.0004864 -1.106e-06 0)
(0.0004877 -3.888e-06 0)
(0.0004905 -6.636e-06 0)
(0.0004947 -9.379e-06 0)
(0.0005004 -1.214e-05 0)
(0.0005075 -1.495e-05 0)
(0.000516 -1.781e-05 0)
(0.0005261 -2.076e-05 0)
(0.0005377 -2.379e-05 0)
(0.0005509 -2.693e-05 0)
(0.0005657 -3.016e-05 0)
(0.0005822 -3.35e-05 0)
(0.0006005 -3.693e-05 0)
(0.0006205 -4.045e-05 0)
(0.0006423 -4.404e-05 0)
(0.0006659 -4.767e-05 0)
(0.0006914 -5.13e-05 0)
(0.0007187 -5.489e-05 0)
(0.0007477 -5.84e-05 0)
(0.0007785 -6.175e-05 0)
(0.0008109 -6.488e-05 0)
(0.0008447 -6.769e-05 0)
(0.0008799 -7.011e-05 0)
(0.000916 -7.202e-05 0)
(0.000953 -7.333e-05 0)
(0.0009904 -7.394e-05 0)
(0.001028 -7.373e-05 0)
(0.001065 -7.262e-05 0)
(0.001101 -7.052e-05 0)
(0.001136 -6.737e-05 0)
(0.001169 -6.313e-05 0)
(0.001199 -5.78e-05 0)
(0.001227 -5.141e-05 0)
(0.001251 -4.403e-05 0)
(0.001271 -3.578e-05 0)
(0.001287 -2.682e-05 0)
(0.001298 -1.735e-05 0)
(0.001305 -7.574e-06 0)
(0.001306 2.272e-06 0)
(0.001303 1.196e-05 0)
(0.001294 2.129e-05 0)
(0.001282 3.006e-05 0)
(0.001265 3.814e-05 0)
(0.001244 4.542e-05 0)
(0.001219 5.18e-05 0)
(0.001192 5.726e-05 0)
(0.001162 6.177e-05 0)
(0.00113 6.534e-05 0)
(0.001096 6.8e-05 0)
(0.001061 6.98e-05 0)
(0.001025 7.078e-05 0)
(0.0009893 7.102e-05 0)
(0.0009533 7.059e-05 0)
(0.0009175 6.956e-05 0)
(0.0008824 6.801e-05 0)
(0.0008481 6.603e-05 0)
(0.0008149 6.369e-05 0)
(0.0007829 6.107e-05 0)
(0.0007522 5.824e-05 0)
(0.0007229 5.525e-05 0)
(0.0006952 5.217e-05 0)
(0.000669 4.905e-05 0)
(0.0006444 4.593e-05 0)
(0.0006214 4.285e-05 0)
(0.0005999 3.984e-05 0)
(0.0005799 3.693e-05 0)
(0.0005613 3.412e-05 0)
(0.0005442 3.144e-05 0)
(0.0005284 2.889e-05 0)
(0.0005138 2.649e-05 0)
(0.0005005 2.423e-05 0)
(0.0004883 2.212e-05 0)
(0.0004771 2.015e-05 0)
(0.0004669 1.832e-05 0)
(0.0004576 1.663e-05 0)
(0.0004492 1.507e-05 0)
(0.0004416 1.363e-05 0)
(0.0004347 1.231e-05 0)
(0.0004284 1.11e-05 0)
(0.0004228 9.994e-06 0)
(0.0004177 8.986e-06 0)
(0.0004131 8.068e-06 0)
(0.000409 7.234e-06 0)
(0.0004053 6.479e-06 0)
(0.0004019 5.796e-06 0)
(0.000399 5.18e-06 0)
(0.0003963 4.626e-06 0)
(0.0003939 4.13e-06 0)
(0.0003918 3.689e-06 0)
(0.0003899 3.299e-06 0)
(0.0003881 2.958e-06 0)
(0.0003866 2.664e-06 0)
(0.0003852 2.417e-06 0)
(0.0003839 2.216e-06 0)
(0.0003828 2.062e-06 0)
(0.0003817 1.957e-06 0)
(0.0003807 1.904e-06 0)
(0.0003797 1.905e-06 0)
(0.0003788 1.962e-06 0)
(0.0003778 2.071e-06 0)
(0.0003769 2.213e-06 0)
(0.000376 2.325e-06 0)
(0.001219 0.0001846 0)
(0.001255 0.0003712 0)
(0.001275 0.0004301 0)
(0.001265 0.000421 0)
(0.001229 0.0003827 0)
(0.001178 0.0003354 0)
(0.00112 0.0002887 0)
(0.001061 0.0002464 0)
(0.001003 0.0002097 0)
(0.0009491 0.0001786 0)
(0.0009001 0.0001522 0)
(0.0008559 0.00013 0)
(0.0008166 0.0001112 0)
(0.0007819 9.516e-05 0)
(0.0007514 8.143e-05 0)
(0.0007248 6.957e-05 0)
(0.0007017 5.925e-05 0)
(0.0006818 5.018e-05 0)
(0.0006649 4.215e-05 0)
(0.0006506 3.497e-05 0)
(0.0006388 2.849e-05 0)
(0.0006292 2.257e-05 0)
(0.0006217 1.711e-05 0)
(0.0006163 1.201e-05 0)
(0.0006128 7.188e-06 0)
(0.000611 2.583e-06 0)
(0.0006111 -1.87e-06 0)
(0.0006128 -6.227e-06 0)
(0.0006163 -1.054e-05 0)
(0.0006214 -1.484e-05 0)
(0.0006283 -1.917e-05 0)
(0.0006368 -2.358e-05 0)
(0.0006472 -2.807e-05 0)
(0.0006593 -3.268e-05 0)
(0.0006732 -3.743e-05 0)
(0.0006891 -4.233e-05 0)
(0.0007069 -4.738e-05 0)
(0.0007266 -5.258e-05 0)
(0.0007485 -5.793e-05 0)
(0.0007724 -6.34e-05 0)
(0.0007984 -6.896e-05 0)
(0.0008267 -7.459e-05 0)
(0.000857 -8.021e-05 0)
(0.0008895 -8.576e-05 0)
(0.0009241 -9.117e-05 0)
(0.0009607 -9.633e-05 0)
(0.0009991 -0.0001011 0)
(0.001039 -0.0001054 0)
(0.001081 -0.0001091 0)
(0.001124 -0.000112 0)
(0.001168 -0.000114 0)
(0.001212 -0.0001149 0)
(0.001256 -0.0001145 0)
(0.0013 -0.0001128 0)
(0.001343 -0.0001095 0)
(0.001384 -0.0001045 0)
(0.001423 -9.795e-05 0)
(0.001459 -8.967e-05 0)
(0.001492 -7.976e-05 0)
(0.001521 -6.833e-05 0)
(0.001545 -5.556e-05 0)
(0.001563 -4.168e-05 0)
(0.001577 -2.701e-05 0)
(0.001584 -1.188e-05 0)
(0.001586 3.371e-06 0)
(0.001582 1.838e-05 0)
(0.001572 3.283e-05 0)
(0.001557 4.643e-05 0)
(0.001537 5.897e-05 0)
(0.001512 7.027e-05 0)
(0.001483 8.02e-05 0)
(0.001451 8.871e-05 0)
(0.001416 9.576e-05 0)
(0.001378 0.0001014 0)
(0.001338 0.0001056 0)
(0.001297 0.0001084 0)
(0.001254 0.00011 0)
(0.001212 0.0001105 0)
(0.001169 0.0001099 0)
(0.001127 0.0001084 0)
(0.001085 0.000106 0)
(0.001044 0.000103 0)
(0.001005 9.947e-05 0)
(0.0009664 9.546e-05 0)
(0.0009298 9.111e-05 0)
(0.000895 8.651e-05 0)
(0.0008618 8.177e-05 0)
(0.0008305 7.695e-05 0)
(0.0008011 7.212e-05 0)
(0.0007734 6.735e-05 0)
(0.0007476 6.267e-05 0)
(0.0007236 5.814e-05 0)
(0.0007012 5.377e-05 0)
(0.0006806 4.959e-05 0)
(0.0006615 4.562e-05 0)
(0.0006439 4.187e-05 0)
(0.0006278 3.834e-05 0)
(0.000613 3.503e-05 0)
(0.0005995 3.194e-05 0)
(0.0005871 2.907e-05 0)
(0.0005758 2.641e-05 0)
(0.0005656 2.396e-05 0)
(0.0005563 2.169e-05 0)
(0.0005478 1.961e-05 0)
(0.0005402 1.77e-05 0)
(0.0005333 1.596e-05 0)
(0.000527 1.436e-05 0)
(0.0005214 1.291e-05 0)
(0.0005163 1.159e-05 0)
(0.0005117 1.039e-05 0)
(0.0005076 9.306e-06 0)
(0.000504 8.326e-06 0)
(0.0005007 7.445e-06 0)
(0.0004977 6.655e-06 0)
(0.0004951 5.95e-06 0)
(0.0004927 5.326e-06 0)
(0.0004906 4.778e-06 0)
(0.0004886 4.303e-06 0)
(0.0004869 3.899e-06 0)
(0.0004853 3.566e-06 0)
(0.0004839 3.303e-06 0)
(0.0004826 3.11e-06 0)
(0.0004814 2.989e-06 0)
(0.0004802 2.941e-06 0)
(0.0004791 2.962e-06 0)
(0.0004781 3.043e-06 0)
(0.0004771 3.157e-06 0)
(0.0004761 3.246e-06 0)
(0.001214 0.000152 0)
(0.001246 0.0003354 0)
(0.001274 0.0004181 0)
(0.001282 0.0004353 0)
(0.001269 0.0004168 0)
(0.00124 0.0003815 0)
(0.0012 0.0003405 0)
(0.001154 0.0002995 0)
(0.001107 0.0002614 0)
(0.001061 0.0002271 0)
(0.001017 0.0001969 0)
(0.0009754 0.0001706 0)
(0.0009378 0.0001476 0)
(0.0009037 0.0001275 0)
(0.0008733 0.00011 0)
(0.0008463 9.46e-05 0)
(0.0008226 8.101e-05 0)
(0.000802 6.893e-05 0)
(0.0007842 5.811e-05 0)
(0.0007692 4.835e-05 0)
(0.0007567 3.946e-05 0)
(0.0007466 3.129e-05 0)
(0.0007387 2.37e-05 0)
(0.000733 1.658e-05 0)
(0.0007293 9.825e-06 0)
(0.0007277 3.346e-06 0)
(0.0007279 -2.937e-06 0)
(0.0007301 -9.098e-06 0)
(0.0007342 -1.52e-05 0)
(0.0007402 -2.13e-05 0)
(0.000748 -2.745e-05 0)
(0.0007579 -3.369e-05 0)
(0.0007696 -4.006e-05 0)
(0.0007834 -4.66e-05 0)
(0.0007993 -5.333e-05 0)
(0.0008173 -6.026e-05 0)
(0.0008375 -6.74e-05 0)
(0.0008599 -7.475e-05 0)
(0.0008846 -8.229e-05 0)
(0.0009116 -9.001e-05 0)
(0.0009411 -9.785e-05 0)
(0.0009729 -0.0001058 0)
(0.001007 -0.0001137 0)
(0.001044 -0.0001215 0)
(0.001083 -0.000129 0)
(0.001124 -0.0001363 0)
(0.001167 -0.000143 0)
(0.001213 -0.000149 0)
(0.001259 -0.0001541 0)
(0.001308 -0.0001582 0)
(0.001357 -0.0001609 0)
(0.001407 -0.0001621 0)
(0.001457 -0.0001615 0)
(0.001506 -0.000159 0)
(0.001554 -0.0001544 0)
(0.001601 -0.0001474 0)
(0.001645 -0.0001381 0)
(0.001686 -0.0001265 0)
(0.001723 -0.0001125 0)
(0.001755 -9.641e-05 0)
(0.001782 -7.842e-05 0)
(0.001803 -5.888e-05 0)
(0.001818 -3.821e-05 0)
(0.001827 -1.689e-05 0)
(0.001829 4.594e-06 0)
(0.001824 2.574e-05 0)
(0.001813 4.609e-05 0)
(0.001796 6.526e-05 0)
(0.001774 8.293e-05 0)
(0.001746 9.885e-05 0)
(0.001714 0.0001129 0)
(0.001677 0.0001249 0)
(0.001637 0.0001349 0)
(0.001595 0.0001428 0)
(0.00155 0.0001488 0)
(0.001503 0.0001529 0)
(0.001456 0.0001553 0)
(0.001408 0.000156 0)
(0.00136 0.0001552 0)
(0.001312 0.0001532 0)
(0.001265 0.00015 0)
(0.001219 0.0001458 0)
(0.001174 0.0001409 0)
(0.001131 0.0001353 0)
(0.00109 0.0001292 0)
(0.001051 0.0001228 0)
(0.001013 0.0001161 0)
(0.0009776 0.0001094 0)
(0.0009442 0.0001026 0)
(0.0009129 9.586e-05 0)
(0.0008836 8.928e-05 0)
(0.0008563 8.289e-05 0)
(0.0008309 7.672e-05 0)
(0.0008074 7.082e-05 0)
(0.0007856 6.521e-05 0)
(0.0007656 5.989e-05 0)
(0.0007472 5.489e-05 0)
(0.0007302 5.02e-05 0)
(0.0007147 4.581e-05 0)
(0.0007006 4.174e-05 0)
(0.0006876 3.795e-05 0)
(0.0006759 3.445e-05 0)
(0.0006651 3.122e-05 0)
(0.0006554 2.825e-05 0)
(0.0006466 2.553e-05 0)
(0.0006386 2.303e-05 0)
(0.0006314 2.075e-05 0)
(0.0006249 1.867e-05 0)
(0.000619 1.678e-05 0)
(0.0006137 1.506e-05 0)
(0.0006089 1.35e-05 0)
(0.0006047 1.209e-05 0)
(0.0006008 1.082e-05 0)
(0.0005974 9.682e-06 0)
(0.0005943 8.664e-06 0)
(0.0005915 7.76e-06 0)
(0.000589 6.963e-06 0)
(0.0005868 6.269e-06 0)
(0.0005848 5.674e-06 0)
(0.0005829 5.175e-06 0)
(0.0005813 4.772e-06 0)
(0.0005798 4.462e-06 0)
(0.0005784 4.245e-06 0)
(0.0005771 4.118e-06 0)
(0.0005759 4.076e-06 0)
(0.0005748 4.104e-06 0)
(0.0005737 4.175e-06 0)
(0.0005727 4.236e-06 0)
(0.00121 0.0001279 0)
(0.001237 0.0003007 0)
(0.001267 0.0003956 0)
(0.001284 0.000432 0)
(0.001286 0.0004311 0)
(0.001274 0.0004091 0)
(0.00125 0.0003766 0)
(0.001218 0.0003402 0)
(0.001183 0.0003036 0)
(0.001145 0.0002688 0)
(0.001108 0.0002368 0)
(0.001072 0.0002078 0)
(0.001038 0.0001819 0)
(0.001007 0.0001586 0)
(0.0009783 0.0001379 0)
(0.0009525 0.0001194 0)
(0.0009295 0.0001028 0)
(0.0009093 8.791e-05 0)
(0.0008918 7.438e-05 0)
(0.0008769 6.205e-05 0)
(0.0008644 5.073e-05 0)
(0.0008543 4.024e-05 0)
(0.0008464 3.044e-05 0)
(0.0008408 2.12e-05 0)
(0.0008373 1.238e-05 0)
(0.0008359 3.892e-06 0)
(0.0008365 -4.368e-06 0)
(0.0008391 -1.249e-05 0)
(0.0008438 -2.054e-05 0)
(0.0008504 -2.861e-05 0)
(0.0008592 -3.675e-05 0)
(0.00087 -4.501e-05 0)
(0.0008829 -5.346e-05 0)
(0.000898 -6.211e-05 0)
(0.0009153 -7.101e-05 0)
(0.000935 -8.018e-05 0)
(0.0009569 -8.962e-05 0)
(0.0009813 -9.934e-05 0)
(0.001008 -0.0001093 0)
(0.001038 -0.0001195 0)
(0.00107 -0.0001298 0)
(0.001104 -0.0001402 0)
(0.001141 -0.0001506 0)
(0.001181 -0.0001609 0)
(0.001223 -0.0001709 0)
(0.001268 -0.0001804 0)
(0.001315 -0.0001892 0)
(0.001364 -0.0001971 0)
(0.001415 -0.0002039 0)
(0.001468 -0.0002092 0)
(0.001521 -0.0002127 0)
(0.001575 -0.0002143 0)
(0.00163 -0.0002136 0)
(0.001684 -0.0002102 0)
(0.001736 -0.0002041 0)
(0.001787 -0.000195 0)
(0.001835 -0.0001827 0)
(0.00188 -0.0001673 0)
(0.00192 -0.0001489 0)
(0.001955 -0.0001276 0)
(0.001985 -0.0001039 0)
(0.002008 -7.803e-05 0)
(0.002025 -5.068e-05 0)
(0.002034 -2.247e-05 0)
(0.002036 5.947e-06 0)
(0.002032 3.391e-05 0)
(0.00202 6.081e-05 0)
(0.002001 8.614e-05 0)
(0.001976 0.0001095 0)
(0.001946 0.0001305 0)
(0.00191 0.000149 0)
(0.001871 0.0001649 0)
(0.001827 0.0001781 0)
(0.001781 0.0001886 0)
(0.001732 0.0001966 0)
(0.001682 0.0002021 0)
(0.00163 0.0002052 0)
(0.001578 0.0002063 0)
(0.001526 0.0002053 0)
(0.001474 0.0002027 0)
(0.001423 0.0001986 0)
(0.001373 0.0001932 0)
(0.001324 0.0001867 0)
(0.001277 0.0001794 0)
(0.001232 0.0001714 0)
(0.001189 0.000163 0)
(0.001149 0.0001542 0)
(0.00111 0.0001453 0)
(0.001074 0.0001364 0)
(0.001039 0.0001276 0)
(0.001007 0.0001189 0)
(0.0009775 0.0001104 0)
(0.0009498 0.0001023 0)
(0.0009241 9.45e-05 0)
(0.0009003 8.707e-05 0)
(0.0008783 8.003e-05 0)
(0.0008581 7.34e-05 0)
(0.0008395 6.718e-05 0)
(0.0008225 6.136e-05 0)
(0.0008069 5.594e-05 0)
(0.0007927 5.091e-05 0)
(0.0007797 4.625e-05 0)
(0.0007679 4.195e-05 0)
(0.0007572 3.8e-05 0)
(0.0007474 3.436e-05 0)
(0.0007386 3.103e-05 0)
(0.0007306 2.798e-05 0)
(0.0007233 2.52e-05 0)
(0.0007168 2.266e-05 0)
(0.0007109 2.036e-05 0)
(0.0007056 1.827e-05 0)
(0.0007009 1.637e-05 0)
(0.0006966 1.467e-05 0)
(0.0006927 1.313e-05 0)
(0.0006893 1.176e-05 0)
(0.0006862 1.054e-05 0)
(0.0006834 9.455e-06 0)
(0.0006809 8.509e-06 0)
(0.0006786 7.692e-06 0)
(0.0006766 6.999e-06 0)
(0.0006748 6.427e-06 0)
(0.0006731 5.973e-06 0)
(0.0006716 5.633e-06 0)
(0.0006702 5.403e-06 0)
(0.000669 5.274e-06 0)
(0.0006678 5.23e-06 0)
(0.0006666 5.245e-06 0)
(0.0006656 5.275e-06 0)
(0.001208 0.0001097 0)
(0.00123 0.0002696 0)
(0.001258 0.000369 0)
(0.001281 0.0004181 0)
(0.001292 0.0004316 0)
(0.001292 0.000422 0)
(0.00128 0.0003988 0)
(0.001261 0.0003686 0)
(0.001237 0.0003355 0)
(0.001209 0.0003022 0)
(0.001179 0.0002702 0)
(0.001149 0.0002401 0)
(0.001121 0.0002123 0)
(0.001093 0.000187 0)
(0.001068 0.0001638 0)
(0.001044 0.0001428 0)
(0.001023 0.0001236 0)
(0.001004 0.0001061 0)
(0.0009877 9.013e-05 0)
(0.0009736 7.538e-05 0)
(0.0009617 6.172e-05 0)
(0.0009522 4.896e-05 0)
(0.0009447 3.696e-05 0)
(0.0009395 2.557e-05 0)
(0.0009364 1.465e-05 0)
(0.0009353 4.097e-06 0)
(0.0009363 -6.212e-06 0)
(0.0009394 -1.637e-05 0)
(0.0009446 -2.648e-05 0)
(0.0009519 -3.662e-05 0)
(0.0009613 -4.685e-05 0)
(0.0009728 -5.726e-05 0)
(0.0009865 -6.789e-05 0)
(0.001003 -7.88e-05 0)
(0.001021 -9.001e-05 0)
(0.001042 -0.0001016 0)
(0.001065 -0.0001134 0)
(0.001091 -0.0001257 0)
(0.001119 -0.0001382 0)
(0.00115 -0.000151 0)
(0.001184 -0.000164 0)
(0.00122 -0.0001771 0)
(0.001259 -0.0001902 0)
(0.001301 -0.0002031 0)
(0.001346 -0.0002156 0)
(0.001393 -0.0002275 0)
(0.001443 -0.0002386 0)
(0.001495 -0.0002486 0)
(0.001548 -0.0002571 0)
(0.001604 -0.0002638 0)
(0.00166 -0.0002683 0)
(0.001718 -0.0002703 0)
(0.001775 -0.0002695 0)
(0.001833 -0.0002653 0)
(0.001889 -0.0002577 0)
(0.001943 -0.0002462 0)
(0.001994 -0.0002308 0)
(0.002042 -0.0002115 0)
(0.002085 -0.0001883 0)
(0.002123 -0.0001615 0)
(0.002155 -0.0001314 0)
(0.00218 -9.878e-05 0)
(0.002197 -6.419e-05 0)
(0.002207 -2.849e-05 0)
(0.00221 7.455e-06 0)
(0.002204 4.28e-05 0)
(0.002191 7.677e-05 0)
(0.002171 0.0001087 0)
(0.002145 0.0001381 0)
(0.002112 0.0001646 0)
(0.002075 0.0001879 0)
(0.002033 0.0002079 0)
(0.001986 0.0002245 0)
(0.001937 0.0002378 0)
(0.001885 0.0002479 0)
(0.001832 0.0002548 0)
(0.001777 0.0002588 0)
(0.001722 0.0002602 0)
(0.001667 0.0002591 0)
(0.001612 0.0002558 0)
(0.001558 0.0002507 0)
(0.001505 0.0002439 0)
(0.001453 0.0002358 0)
(0.001404 0.0002266 0)
(0.001356 0.0002166 0)
(0.001311 0.000206 0)
(0.001268 0.0001951 0)
(0.001227 0.0001839 0)
(0.001188 0.0001727 0)
(0.001152 0.0001616 0)
(0.001118 0.0001507 0)
(0.001087 0.0001401 0)
(0.001058 0.0001298 0)
(0.00103 0.00012 0)
(0.001005 0.0001106 0)
(0.0009817 0.0001017 0)
(0.0009603 9.337e-05 0)
(0.0009406 8.551e-05 0)
(0.0009225 7.816e-05 0)
(0.0009059 7.13e-05 0)
(0.0008907 6.494e-05 0)
(0.0008769 5.904e-05 0)
(0.0008643 5.359e-05 0)
(0.0008528 4.857e-05 0)
(0.0008424 4.396e-05 0)
(0.0008329 3.972e-05 0)
(0.0008244 3.585e-05 0)
(0.0008166 3.231e-05 0)
(0.0008096 2.908e-05 0)
(0.0008033 2.614e-05 0)
(0.0007976 2.348e-05 0)
(0.0007925 2.106e-05 0)
(0.0007878 1.888e-05 0)
(0.0007837 1.692e-05 0)
(0.00078 1.515e-05 0)
(0.0007766 1.358e-05 0)
(0.0007736 1.219e-05 0)
(0.0007709 1.096e-05 0)
(0.0007685 9.898e-06 0)
(0.0007663 8.987e-06 0)
(0.0007644 8.223e-06 0)
(0.0007626 7.601e-06 0)
(0.000761 7.117e-06 0)
(0.0007596 6.762e-06 0)
(0.0007582 6.528e-06 0)
(0.000757 6.398e-06 0)
(0.0007559 6.349e-06 0)
(0.0007548 6.345e-06 0)
(0.001206 9.567e-05 0)
(0.001225 0.0002426 0)
(0.001251 0.0003419 0)
(0.001275 0.0003987 0)
(0.001292 0.0004228 0)
(0.0013 0.0004238 0)
(0.001298 0.0004095 0)
(0.001289 0.0003861 0)
(0.001274 0.0003577 0)
(0.001255 0.0003272 0)
(0.001233 0.0002964 0)
(0.00121 0.0002665 0)
(0.001187 0.0002381 0)
(0.001164 0.0002114 0)
(0.001143 0.0001866 0)
(0.001123 0.0001637 0)
(0.001104 0.0001425 0)
(0.001087 0.0001228 0)
(0.001072 0.0001047 0)
(0.00106 8.775e-05 0)
(0.001049 7.193e-05 0)
(0.00104 5.704e-05 0)
(0.001034 4.293e-05 0)
(0.001029 2.945e-05 0)
(0.001026 1.648e-05 0)
(0.001026 3.864e-06 0)
(0.001027 -8.497e-06 0)
(0.001031 -2.072e-05 0)
(0.001036 -3.291e-05 0)
(0.001044 -4.515e-05 0)
(0.001054 -5.754e-05 0)
(0.001066 -7.014e-05 0)
(0.00108 -8.302e-05 0)
(0.001097 -9.625e-05 0)
(0.001116 -0.0001098 0)
(0.001137 -0.0001238 0)
(0.001161 -0.0001383 0)
(0.001188 -0.0001531 0)
(0.001217 -0.0001683 0)
(0.001249 -0.0001838 0)
(0.001283 -0.0001996 0)
(0.001321 -0.0002155 0)
(0.001361 -0.0002313 0)
(0.001404 -0.000247 0)
(0.00145 -0.0002622 0)
(0.001499 -0.0002767 0)
(0.00155 -0.0002902 0)
(0.001603 -0.0003023 0)
(0.001659 -0.0003127 0)
(0.001716 -0.0003209 0)
(0.001775 -0.0003265 0)
(0.001834 -0.0003291 0)
(0.001894 -0.0003282 0)
(0.001954 -0.0003233 0)
(0.002012 -0.0003141 0)
(0.002069 -0.0003003 0)
(0.002122 -0.0002818 0)
(0.002172 -0.0002583 0)
(0.002218 -0.0002301 0)
(0.002258 -0.0001974 0)
(0.002291 -0.0001608 0)
(0.002317 -0.0001208 0)
(0.002336 -7.849e-05 0)
(0.002347 -3.48e-05 0)
(0.002349 9.165e-06 0)
(0.002343 5.235e-05 0)
(0.002329 9.381e-05 0)
(0.002308 0.0001327 0)
(0.00228 0.0001685 0)
(0.002246 0.0002007 0)
(0.002207 0.000229 0)
(0.002163 0.0002532 0)
(0.002115 0.0002734 0)
(0.002063 0.0002895 0)
(0.00201 0.0003017 0)
(0.001954 0.0003101 0)
(0.001897 0.000315 0)
(0.00184 0.0003166 0)
(0.001783 0.0003153 0)
(0.001726 0.0003113 0)
(0.00167 0.0003051 0)
(0.001615 0.0002969 0)
(0.001562 0.0002871 0)
(0.001511 0.000276 0)
(0.001462 0.0002639 0)
(0.001415 0.000251 0)
(0.001371 0.0002377 0)
(0.001329 0.0002242 0)
(0.001289 0.0002106 0)
(0.001252 0.0001971 0)
(0.001217 0.0001839 0)
(0.001184 0.000171 0)
(0.001154 0.0001585 0)
(0.001126 0.0001466 0)
(0.0011 0.0001352 0)
(0.001076 0.0001245 0)
(0.001053 0.0001143 0)
(0.001033 0.0001047 0)
(0.001014 9.577e-05 0)
(0.0009972 8.743e-05 0)
(0.0009815 7.967e-05 0)
(0.0009672 7.248e-05 0)
(0.0009541 6.583e-05 0)
(0.0009422 5.97e-05 0)
(0.0009314 5.407e-05 0)
(0.0009215 4.889e-05 0)
(0.0009126 4.415e-05 0)
(0.0009046 3.982e-05 0)
(0.0008973 3.587e-05 0)
(0.0008907 3.227e-05 0)
(0.0008847 2.9e-05 0)
(0.0008794 2.603e-05 0)
(0.0008745 2.335e-05 0)
(0.0008702 2.093e-05 0)
(0.0008663 1.876e-05 0)
(0.0008628 1.682e-05 0)
(0.0008596 1.509e-05 0)
(0.0008568 1.357e-05 0)
(0.0008543 1.224e-05 0)
(0.000852 1.109e-05 0)
(0.00085 1.011e-05 0)
(0.0008482 9.306e-06 0)
(0.0008465 8.659e-06 0)
(0.000845 8.165e-06 0)
(0.0008437 7.812e-06 0)
(0.0008424 7.586e-06 0)
(0.0008413 7.466e-06 0)
(0.0008402 7.426e-06 0)
(0.001205 8.448e-05 0)
(0.001221 0.000219 0)
(0.001245 0.0003157 0)
(0.001269 0.0003766 0)
(0.001289 0.0004082 0)
(0.001302 0.0004176 0)
(0.001308 0.0004112 0)
(0.001307 0.0003944 0)
(0.0013 0.0003711 0)
(0.001289 0.0003441 0)
(0.001274 0.0003155 0)
(0.001258 0.0002867 0)
(0.001241 0.0002585 0)
(0.001223 0.0002314 0)
(0.001205 0.0002057 0)
(0.001189 0.0001815 0)
(0.001173 0.0001588 0)
(0.001159 0.0001375 0)
(0.001146 0.0001175 0)
(0.001135 9.87e-05 0)
(0.001126 8.097e-05 0)
(0.001119 6.415e-05 0)
(0.001113 4.809e-05 0)
(0.001109 3.266e-05 0)
(0.001107 1.772e-05 0)
(0.001107 3.129e-06 0)
(0.001109 -1.123e-05 0)
(0.001113 -2.547e-05 0)
(0.001119 -3.97e-05 0)
(0.001127 -5.404e-05 0)
(0.001137 -6.856e-05 0)
(0.00115 -8.335e-05 0)
(0.001164 -9.85e-05 0)
(0.001181 -0.000114 0)
(0.0012 -0.00013 0)
(0.001221 -0.0001465 0)
(0.001245 -0.0001635 0)
(0.001272 -0.000181 0)
(0.001301 -0.0001989 0)
(0.001333 -0.0002171 0)
(0.001368 -0.0002357 0)
(0.001406 -0.0002544 0)
(0.001446 -0.0002731 0)
(0.00149 -0.0002916 0)
(0.001536 -0.0003096 0)
(0.001585 -0.0003268 0)
(0.001636 -0.0003428 0)
(0.00169 -0.0003572 0)
(0.001747 -0.0003696 0)
(0.001805 -0.0003795 0)
(0.001864 -0.0003863 0)
(0.001925 -0.0003895 0)
(0.001986 -0.0003887 0)
(0.002047 -0.0003832 0)
(0.002107 -0.0003726 0)
(0.002165 -0.0003565 0)
(0.00222 -0.0003347 0)
(0.002272 -0.0003071 0)
(0.002319 -0.0002737 0)
(0.00236 -0.000235 0)
(0.002395 -0.0001914 0)
(0.002422 -0.0001438 0)
(0.002442 -9.336e-05 0)
(0.002452 -4.126e-05 0)
(0.002455 1.114e-05 0)
(0.002448 6.254e-05 0)
(0.002434 0.0001118 0)
(0.002412 0.0001579 0)
(0.002383 0.0002002 0)
(0.002348 0.0002382 0)
(0.002307 0.0002715 0)
(0.002262 0.0003001 0)
(0.002212 0.0003238 0)
(0.00216 0.0003427 0)
(0.002105 0.000357 0)
(0.002049 0.0003669 0)
(0.001991 0.0003726 0)
(0.001932 0.0003745 0)
(0.001874 0.0003729 0)
(0.001817 0.0003682 0)
(0.00176 0.0003608 0)
(0.001705 0.0003511 0)