/*--------------------------------*- C++ -*----------------------------------*\
  =========                 |
  \\      /  F ield         | OpenFOAM: The Open Source CFD Toolbox
   \\    /   O peration     | Website:  https://openfoam.org
    \\  /    A nd           | Version:  7
     \\/     M anipulation  |
\*---------------------------------------------------------------------------*/
FoamFile
{
    version     2.0;
    format      ascii;
    class       volScalarField;
    location    "1619.99947342360838";
    object      Y.K;
}
// * * * * * * * * * * * * * * * * * * * * * * * * * * * * * * * * * * * * * //

dimensions      [0 0 0 0 0 0 0];

internalField   nonuniform List<scalar> 
4096
(
5.295e-72
4.717e-70
-1.616e-70
2.23e-70
-7.4e-71
-1.615e-70
7.065e-71
3.536e-71
-2.398e-71
3.209e-70
-3.038e-69
5.007e-68
-7.131e-67
1.042e-65
-1.374e-64
1.743e-63
-2.074e-62
2.382e-61
-2.599e-60
2.76e-59
-2.775e-58
2.721e-57
-2.601e-56
2.382e-55
-2.059e-54
1.711e-53
-1.319e-52
9.53e-52
-6.589e-51
4.294e-50
-2.519e-49
1.245e-48
-3.273e-48
-2.82e-47
6.432e-46
-7.861e-45
8.032e-44
-7.163e-43
5.867e-42
-4.502e-41
3.156e-40
-2.09e-39
1.316e-38
-7.693e-38
4.187e-37
-2.118e-36
9.877e-36
-4.152e-35
1.483e-34
-4.003e-34
2.136e-34
1.011e-32
-9.168e-32
6.894e-31
-3.392e-30
1.869e-29
-6.184e-29
3.422e-28
-2.354e-28
4.027e-27
1.748e-26
3.928e-26
3.195e-25
1.474e-24
3.037e-24
2.345e-23
7.038e-23
1.975e-22
1.4e-21
6.206e-21
8.667e-20
1.271e-18
3.608e-18
7.562e-18
1.406e-17
2.452e-17
4.1e-17
6.642e-17
1.048e-16
1.618e-16
2.446e-16
3.629e-16
5.292e-16
7.592e-16
1.073e-15
1.494e-15
2.053e-15
2.786e-15
3.737e-15
4.956e-15
6.507e-15
8.459e-15
1.09e-14
1.392e-14
1.765e-14
2.22e-14
2.774e-14
3.443e-14
4.248e-14
5.212e-14
6.36e-14
7.723e-14
9.333e-14
1.123e-13
1.345e-13
1.606e-13
1.909e-13
2.262e-13
2.671e-13
3.143e-13
3.689e-13
4.317e-13
5.037e-13
5.863e-13
6.806e-13
7.883e-13
9.109e-13
1.05e-12
1.208e-12
1.387e-12
1.589e-12
1.816e-12
2.071e-12
2.355e-12
2.667e-12
2.999e-12
3.328e-12
3.586e-12
-1.571e-69
8.285e-69
-1.061e-68
1.616e-69
7.157e-69
-6.092e-69
5.036e-70
2.29e-69
-7.537e-70
1.882e-68
-1.784e-67
2.737e-66
-4.099e-65
5.768e-64
-7.65e-63
9.592e-62
-1.143e-60
1.3e-59
-1.418e-58
1.488e-57
-1.508e-56
1.475e-55
-1.392e-54
1.264e-53
-1.098e-52
9.09e-52
-6.998e-51
5.034e-50
-3.489e-49
2.284e-48
-1.356e-47
6.851e-47
-2.024e-46
-1.227e-45
3.069e-44
-3.842e-43
3.965e-42
-3.541e-41
2.901e-40
-2.221e-39
1.568e-38
-1.04e-37
6.458e-37
-3.759e-36
2.04e-35
-1.03e-34
4.801e-34
-2.026e-33
7.409e-33
-2.165e-32
2.785e-32
3.919e-31
-3.87e-30
3.015e-29
-1.42e-28
8.283e-28
-2.517e-27
1.599e-26
-2.104e-27
2.091e-25
8.656e-25
2.347e-24
1.632e-23
6.995e-23
1.616e-22
1.056e-21
3.204e-21
8.626e-21
5.217e-20
1.768e-19
1.135e-18
3.14e-18
6.607e-18
1.237e-17
2.167e-17
3.63e-17
5.881e-17
9.274e-17
1.429e-16
2.155e-16
3.191e-16
4.643e-16
6.647e-16
9.374e-16
1.304e-15
1.79e-15
2.427e-15
3.253e-15
4.314e-15
5.664e-15
7.367e-15
9.499e-15
1.215e-14
1.541e-14
1.942e-14
2.429e-14
3.02e-14
3.733e-14
4.587e-14
5.608e-14
6.821e-14
8.258e-14
9.954e-14
1.195e-13
1.429e-13
1.702e-13
2.02e-13
2.389e-13
2.817e-13
3.312e-13
3.882e-13
4.538e-13
5.29e-13
6.152e-13
7.136e-13
8.258e-13
9.535e-13
1.099e-12
1.263e-12
1.449e-12
1.659e-12
1.896e-12
2.162e-12
2.46e-12
2.79e-12
3.151e-12
3.533e-12
3.895e-12
3.524e-68
-2.454e-67
6.146e-67
-8.191e-67
5.649e-67
-9.428e-68
-1.447e-67
8.699e-68
3.66e-69
1.097e-66
-9.582e-66
1.462e-64
-2.187e-63
3.068e-62
-4.048e-61
5.045e-60
-5.968e-59
6.738e-58
-7.297e-57
7.608e-56
-7.658e-55
7.447e-54
-6.991e-53
6.32e-52
-5.471e-51
4.516e-50
-3.475e-49
2.513e-48
-1.754e-47
1.16e-46
-7.037e-46
3.69e-45
-1.313e-44
-3.117e-44
1.244e-42
-1.667e-41
1.767e-40
-1.592e-39
1.31e-38
-1.008e-37
7.118e-37
-4.717e-36
2.93e-35
-1.706e-34
9.256e-34
-4.677e-33
2.191e-32
-9.361e-32
3.55e-31
-1.048e-30
2.446e-30
9.908e-30
-1.273e-28
1.167e-27
-5.043e-27
3.348e-26
-8.426e-26
7.109e-25
5.742e-25
1.128e-23
4.542e-23
1.338e-22
8.362e-22
3.248e-21
8.19e-21
4.49e-20
1.337e-19
3.379e-19
1.566e-18
4.075e-18
8.324e-18
1.538e-17
2.677e-17
4.463e-17
7.191e-17
1.126e-16
1.718e-16
2.564e-16
3.746e-16
5.373e-16
7.575e-16
1.051e-15
1.438e-15
1.942e-15
2.59e-15
3.417e-15
4.464e-15
5.777e-15
7.413e-15
9.438e-15
1.193e-14
1.498e-14
1.87e-14
2.32e-14
2.863e-14
3.515e-14
4.295e-14
5.225e-14
6.329e-14
7.636e-14
9.177e-14
1.099e-13
1.311e-13
1.56e-13
1.849e-13
2.186e-13
2.577e-13
3.029e-13
3.55e-13
4.151e-13
4.841e-13
5.633e-13
6.538e-13
7.573e-13
8.752e-13
1.009e-12
1.162e-12
1.334e-12
1.529e-12
1.75e-12
1.999e-12
2.278e-12
2.592e-12
2.944e-12
3.336e-12
3.772e-12
4.254e-12
4.796e-12
-5.796e-67
4.606e-66
-1.617e-65
3.467e-65
-4.803e-65
4.34e-65
-2.355e-65
5.106e-66
1.405e-66
6.251e-65
-4.887e-64
7.37e-63
-1.098e-61
1.529e-60
-1.999e-59
2.465e-58
-2.884e-57
3.22e-56
-3.45e-55
3.561e-54
-3.552e-53
3.426e-52
-3.195e-51
2.872e-50
-2.477e-49
2.041e-48
-1.573e-47
1.147e-46
-8.097e-46
5.448e-45
-3.407e-44
1.875e-43
-8.086e-43
5.932e-43
3.717e-41
-5.959e-40
6.707e-39
-6.178e-38
5.151e-37
-4.019e-36
2.845e-35
-1.891e-34
1.179e-33
-6.896e-33
3.751e-32
-1.903e-31
8.997e-31
-3.917e-30
1.553e-29
-5.09e-29
1.633e-28
-2.773e-30
-2.499e-27
3.791e-26
-1.268e-25
1.171e-24
-1.593e-24
2.855e-23
5.442e-23
5.913e-22
2.282e-21
7.174e-21
3.903e-20
1.336e-19
3.516e-19
1.491e-18
4.077e-18
8.728e-18
1.694e-17
3.092e-17
5.381e-17
8.996e-17
1.452e-16
2.27e-16
3.449e-16
5.104e-16
7.375e-16
1.042e-15
1.444e-15
1.965e-15
2.63e-15
3.469e-15
4.514e-15
5.805e-15
7.386e-15
9.311e-15
1.164e-14
1.444e-14
1.781e-14
2.182e-14
2.661e-14
3.23e-14
3.904e-14
4.701e-14
5.641e-14
6.747e-14
8.047e-14
9.57e-14
1.135e-13
1.343e-13
1.586e-13
1.868e-13
2.195e-13
2.573e-13
3.011e-13
3.517e-13
4.098e-13
4.767e-13
5.534e-13
6.412e-13
7.416e-13
8.562e-13
9.866e-13
1.135e-12
1.303e-12
1.494e-12
1.709e-12
1.953e-12
2.227e-12
2.536e-12
2.883e-12
3.271e-12
3.706e-12
4.192e-12
4.733e-12
5.336e-12
6.012e-12
6.867e-12
8.255e-66
-7.129e-65
3.098e-64
-8.879e-64
1.765e-63
-2.511e-63
2.553e-63
-1.764e-63
7.427e-64
3.263e-63
-2.369e-62
3.519e-61
-5.184e-60
7.119e-59
-9.158e-58
1.11e-56
-1.276e-55
1.4e-54
-1.476e-53
1.502e-52
-1.479e-51
1.41e-50
-1.303e-49
1.163e-48
-9.993e-48
8.221e-47
-6.361e-46
4.693e-45
-3.366e-44
2.316e-43
-1.502e-42
8.868e-42
-4.452e-41
1.357e-40
4.167e-40
-1.568e-38
2.032e-37
-1.975e-36
1.689e-35
-1.358e-34
9.69e-34
-6.487e-33
4.086e-32
-2.415e-31
1.321e-30
-6.747e-30
3.23e-29
-1.437e-28
5.959e-28
-2.157e-27
8.389e-27
-1.365e-26
1.631e-26
1.012e-24
-5.828e-25
3.466e-23
2.945e-23
9.809e-22
4.051e-21
2.809e-20
1.021e-19
3.238e-19
1.408e-18
4.165e-18
9.777e-18
2.072e-17
4.107e-17
7.702e-17
1.377e-16
2.355e-16
3.87e-16
6.129e-16
9.38e-16
1.391e-15
2.003e-15
2.809e-15
3.846e-15
5.151e-15
6.764e-15
8.725e-15
1.108e-14
1.388e-14
1.717e-14
2.102e-14
2.55e-14
3.07e-14
3.672e-14
4.368e-14
5.171e-14
6.099e-14
7.169e-14
8.405e-14
9.831e-14
1.148e-13
1.338e-13
1.557e-13
1.81e-13
2.102e-13
2.439e-13
2.826e-13
3.272e-13
3.785e-13
4.373e-13
5.048e-13
5.821e-13
6.706e-13
7.716e-13
8.87e-13
1.018e-12
1.168e-12
1.338e-12
1.53e-12
1.748e-12
1.995e-12
2.273e-12
2.587e-12
2.941e-12
3.338e-12
3.784e-12
4.283e-12
4.841e-12
5.464e-12
6.158e-12
6.93e-12
7.787e-12
8.736e-12
9.799e-12
1.124e-11
-1.084e-64
9.878e-64
-4.98e-63
1.755e-62
-4.495e-62
8.609e-62
-1.243e-61
1.324e-61
-9.525e-62
1.954e-61
-1.088e-60
1.589e-59
-2.291e-58
3.071e-57
-3.847e-56
4.538e-55
-5.08e-54
5.438e-53
-5.603e-52
5.584e-51
-5.4e-50
5.073e-49
-4.63e-48
4.098e-47
-3.503e-46
2.88e-45
-2.242e-44
1.679e-43
-1.228e-42
8.681e-42
-5.861e-41
3.704e-40
-2.113e-39
9.916e-39
-2.618e-38
-1.553e-37
4.164e-36
-4.817e-35
4.317e-34
-3.723e-33
2.7e-32
-1.826e-31
1.175e-30
-7.095e-30
3.919e-29
-2.016e-28
9.784e-28
-4.438e-27
1.915e-26
-7.401e-26
2.905e-25
-6.963e-25
3.257e-24
2.472e-23
8.029e-23
8.803e-22
5.299e-21
4.501e-20
2.046e-19
1.017e-18
3.446e-18
9.301e-18
2.255e-17
5.074e-17
1.071e-16
2.131e-16
4.016e-16
7.191e-16
1.227e-15
2.003e-15
3.135e-15
4.72e-15
6.857e-15
9.641e-15
1.315e-14
1.746e-14
2.262e-14
2.867e-14
3.562e-14
4.352e-14
5.237e-14
6.222e-14
7.312e-14
8.517e-14
9.846e-14
1.132e-13
1.294e-13
1.475e-13
1.677e-13
1.903e-13
2.156e-13
2.441e-13
2.764e-13
3.129e-13
3.542e-13
4.012e-13
4.547e-13
5.155e-13
5.848e-13
6.637e-13
7.536e-13
8.559e-13
9.723e-13
1.105e-12
1.255e-12
1.426e-12
1.62e-12
1.839e-12
2.088e-12
2.369e-12
2.687e-12
3.045e-12
3.448e-12
3.902e-12
4.412e-12
4.984e-12
5.625e-12
6.342e-12
7.143e-12
8.036e-12
9.03e-12
1.013e-11
1.136e-11
1.272e-11
1.422e-11
1.587e-11
1.77e-11
2.032e-11
1.35e-63
-1.276e-62
7.165e-62
-2.955e-61
9.198e-61
-2.213e-60
4.149e-60
-5.938e-60
6.055e-60
4.958e-60
-4.903e-59
6.749e-58
-9.367e-57
1.208e-55
-1.454e-54
1.648e-53
-1.775e-52
1.835e-51
-1.832e-50
1.776e-49
-1.677e-48
1.545e-47
-1.388e-46
1.215e-45
-1.033e-44
8.49e-44
-6.668e-43
5.083e-42
-3.8e-41
2.766e-40
-1.945e-39
1.307e-38
-8.244e-38
4.731e-37
-2.359e-36
7.725e-36
1.198e-35
-5.256e-34
7.136e-33
-7.522e-32
5.824e-31
-3.936e-30
2.667e-29
-1.69e-28
9.464e-28
-4.887e-27
2.407e-26
-1.109e-25
4.975e-25
-1.906e-24
8.307e-24
-8.293e-24
1.649e-22
1.003e-21
6.464e-21
5.01e-20
2.886e-19
1.59e-18
5.916e-18
1.775e-17
4.782e-17
1.191e-16
2.763e-16
6e-16
1.223e-15
2.348e-15
4.255e-15
7.303e-15
1.192e-14
1.854e-14
2.76e-14
3.946e-14
5.435e-14
7.233e-14
9.335e-14
1.171e-13
1.434e-13
1.718e-13
2.018e-13
2.332e-13
2.657e-13
2.993e-13
3.34e-13
3.7e-13
4.075e-13
4.47e-13
4.89e-13
5.341e-13
5.83e-13
6.364e-13
6.952e-13
7.605e-13
8.332e-13
9.147e-13
1.006e-12
1.109e-12
1.226e-12
1.357e-12
1.505e-12
1.673e-12
1.863e-12
2.078e-12
2.321e-12
2.596e-12
2.906e-12
3.256e-12
3.651e-12
4.097e-12
4.598e-12
5.162e-12
5.795e-12
6.506e-12
7.303e-12
8.195e-12
9.193e-12
1.031e-11
1.155e-11
1.293e-11
1.447e-11
1.618e-11
1.807e-11
2.017e-11
2.249e-11
2.504e-11
2.785e-11
3.094e-11
3.432e-11
3.931e-11
-1.616e-62
1.566e-61
-9.539e-61
4.452e-60
-1.623e-59
4.711e-59
-1.095e-58
2.012e-58
-2.764e-58
4.701e-58
-1.835e-57
2.594e-56
-3.457e-55
4.213e-54
-4.781e-53
5.12e-52
-5.235e-51
5.162e-50
-4.943e-49
4.623e-48
-4.234e-47
3.805e-46
-3.354e-45
2.898e-44
-2.447e-43
2.013e-42
-1.599e-41
1.244e-40
-9.521e-40
7.143e-39
-5.222e-38
3.697e-37
-2.514e-36
1.625e-35
-9.804e-35
5.366e-34
-2.501e-33
7.556e-33
1.374e-32
-5.007e-31
5.5e-30
-5.092e-29
4.166e-28
-2.998e-27
1.754e-26
-9.124e-26
4.606e-25
-2.191e-24
1.067e-23
-3.646e-23
1.751e-22
4.59e-22
6.206e-21
4.59e-20
3.185e-19
1.994e-18
8.364e-18
2.855e-17
8.765e-17
2.477e-16
6.484e-16
1.576e-15
3.566e-15
7.524e-15
1.484e-14
2.745e-14
4.775e-14
7.844e-14
1.221e-13
1.807e-13
2.555e-13
3.461e-13
4.511e-13
5.675e-13
6.918e-13
8.196e-13
9.474e-13
1.071e-12
1.189e-12
1.299e-12
1.402e-12
1.497e-12
1.587e-12
1.673e-12
1.756e-12
1.84e-12
1.926e-12
2.017e-12
2.115e-12
2.223e-12
2.343e-12
2.477e-12
2.628e-12
2.8e-12
2.994e-12
3.214e-12
3.463e-12
3.746e-12
4.066e-12
4.428e-12
4.838e-12
5.3e-12
5.821e-12
6.409e-12
7.071e-12
7.815e-12
8.652e-12
9.591e-12
1.064e-11
1.182e-11
1.314e-11
1.461e-11
1.626e-11
1.809e-11
2.014e-11
2.241e-11
2.493e-11
2.773e-11
3.082e-11
3.425e-11
3.803e-11
4.22e-11
4.679e-11
5.183e-11
5.735e-11
6.34e-11
6.995e-11
7.987e-11
1.867e-61
-1.838e-60
1.193e-59
-6.159e-59
2.563e-58
-8.73e-58
2.444e-57
-5.538e-57
9.539e-57
1.037e-57
-7.085e-56
9.357e-55
-1.114e-53
1.241e-52
-1.294e-51
1.281e-50
-1.221e-49
1.132e-48
-1.029e-47
9.203e-47
-8.122e-46
7.082e-45
-6.102e-44
5.191e-43
-4.351e-42
3.582e-41
-2.886e-40
2.296e-39
-1.805e-38
1.397e-37
-1.06e-36
7.863e-36
-5.674e-35
3.965e-34
-2.666e-33
1.717e-32
-1.035e-31
5.781e-31
-2.898e-30
1.226e-29
-3.417e-29
-4.647e-29
1.706e-27
-1.705e-26
1.199e-25
-8.041e-25
5.463e-24
-3.046e-23
1.966e-22
-4.537e-22
3.132e-21
2.853e-20
2.536e-19
1.861e-18
8.989e-18
3.568e-17
1.276e-16
4.19e-16
1.267e-15
3.536e-15
9.109e-15
2.17e-14
4.786e-14
9.796e-14
1.865e-13
3.316e-13
5.525e-13
8.662e-13
1.283e-12
1.803e-12
2.415e-12
3.095e-12
3.811e-12
4.526e-12
5.206e-12
5.814e-12
6.344e-12
6.767e-12
7.093e-12
7.332e-12
7.497e-12
7.6e-12
7.659e-12
7.687e-12
7.7e-12
7.714e-12
7.736e-12
7.777e-12
7.845e-12
7.947e-12
8.089e-12
8.275e-12
8.515e-12
8.811e-12
9.168e-12
9.593e-12
1.009e-11
1.067e-11
1.134e-11
1.211e-11
1.299e-11
1.398e-11
1.511e-11
1.638e-11
1.782e-11
1.943e-11
2.125e-11
2.328e-11
2.555e-11
2.808e-11
3.091e-11
3.406e-11
3.756e-11
4.145e-11
4.577e-11
5.055e-11
5.584e-11
6.169e-11
6.814e-11
7.525e-11
8.306e-11
9.165e-11
1.011e-10
1.114e-10
1.226e-10
1.349e-10
1.48e-10
1.683e-10
-2.073e-60
2.063e-59
-1.408e-58
7.901e-58
-3.685e-57
1.445e-56
-4.789e-56
1.333e-55
-3.056e-55
6.747e-55
-2.306e-54
2.559e-53
-2.829e-52
2.809e-51
-2.591e-50
2.305e-49
-2.008e-48
1.728e-47
-1.475e-46
1.251e-45
-1.057e-44
8.885e-44
-7.444e-43
6.211e-42
-5.156e-41
4.242e-40
-3.487e-39
2.85e-38
-2.309e-37
1.852e-36
-1.465e-35
1.139e-34
-8.682e-34
6.469e-33
-4.696e-32
3.324e-31
-2.232e-30
1.441e-29
-8.782e-29
5.048e-28
-2.747e-27
1.397e-26
-6.466e-26
2.797e-25
-9.644e-25
1.62e-24
8.438e-24
-9.288e-23
1.761e-21
1.406e-21
1.21e-19
1.185e-18
6.814e-18
3.216e-17
1.366e-16
5.315e-16
1.898e-15
6.218e-15
1.869e-14
5.159e-14
1.307e-13
3.045e-13
6.534e-13
1.294e-12
2.372e-12
4.042e-12
6.431e-12
9.596e-12
1.349e-11
1.796e-11
2.275e-11
2.753e-11
3.198e-11
3.58e-11
3.88e-11
4.079e-11
4.208e-11
4.221e-11
4.186e-11
4.104e-11
3.982e-11
3.837e-11
3.681e-11
3.523e-11
3.373e-11
3.235e-11
3.113e-11
3.01e-11
2.926e-11
2.861e-11
2.818e-11
2.791e-11
2.794e-11
2.812e-11
2.85e-11
2.91e-11
2.992e-11
3.097e-11
3.226e-11
3.38e-11
3.561e-11
3.772e-11
4.013e-11
4.289e-11
4.601e-11
4.954e-11
5.351e-11
5.796e-11
6.293e-11
6.848e-11
7.466e-11
8.153e-11
8.915e-11
9.76e-11
1.069e-10
1.172e-10
1.286e-10
1.411e-10
1.549e-10
1.7e-10
1.866e-10
2.048e-10
2.246e-10
2.462e-10
2.697e-10
2.953e-10
3.225e-10
3.65e-10
2.189e-59
-2.192e-58
1.557e-57
-9.384e-57
4.832e-56
-2.148e-55
8.284e-55
-2.739e-54
7.334e-54
-7.842e-54
-4.898e-53
6.094e-52
-5.132e-51
3.945e-50
-2.996e-49
2.334e-48
-1.853e-47
1.484e-46
-1.19e-45
9.531e-45
-7.618e-44
6.082e-43
-4.861e-42
3.897e-41
-3.145e-40
2.55e-39
-2.082e-38
1.695e-37
-1.378e-36
1.123e-35
-9.081e-35
7.219e-34
-5.641e-33
4.323e-32
-3.238e-31
2.367e-30
-1.673e-29
1.16e-28
-7.738e-28
5.046e-27
-3.173e-26
1.92e-25
-1.115e-24
6.199e-24
-3.306e-23
1.685e-22
-7.671e-22
4.763e-21
2.277e-20
3.293e-19
3.151e-18
1.942e-17
1.005e-16
4.709e-16
2.018e-15
7.913e-15
2.836e-14
9.278e-14
2.77e-13
7.547e-13
1.877e-12
4.267e-12
8.882e-12
1.697e-11
2.985e-11
4.86e-11
7.36e-11
1.042e-10
1.388e-10
1.745e-10
2.087e-10
2.381e-10
2.605e-10
2.744e-10
2.796e-10
2.768e-10
2.69e-10
2.567e-10
2.411e-10
2.24e-10
2.063e-10
1.892e-10
1.73e-10
1.583e-10
1.451e-10
1.336e-10
1.237e-10
1.152e-10
1.082e-10
1.024e-10
9.775e-11
9.416e-11
9.152e-11
8.981e-11
8.871e-11
8.88e-11
8.935e-11
9.063e-11
9.264e-11
9.538e-11
9.884e-11
1.031e-10
1.081e-10
1.139e-10
1.207e-10
1.284e-10
1.371e-10
1.469e-10
1.579e-10
1.701e-10
1.838e-10
1.99e-10
2.158e-10
2.344e-10
2.549e-10
2.776e-10
3.024e-10
3.298e-10
3.597e-10
3.925e-10
4.283e-10
4.674e-10
5.1e-10
5.562e-10
6.064e-10
6.609e-10
7.183e-10
8.088e-10
-2.165e-58
2.172e-57
-1.593e-56
1.02e-55
-5.73e-55
2.857e-54
-1.277e-53
5.149e-53
-1.881e-52
6.208e-52
-1.836e-51
4.907e-51
-1.587e-50
9.004e-50
-8.628e-49
8.937e-48
-8.443e-47
7.41e-46
-6.066e-45
4.684e-44
-3.429e-43
2.383e-42
-1.568e-41
9.671e-41
-5.494e-40
2.694e-39
-1.475e-38
3.088e-38
8.407e-38
-1.764e-36
1.691e-35
-1.43e-34
9.601e-34
-3.583e-33
-7.443e-33
3.529e-31
-5.111e-30
5.407e-29
-5.065e-28
4.245e-27
-3.299e-26
2.424e-25
-1.669e-24
1.091e-23
-6.702e-23
4.437e-22
-1.313e-21
8.197e-20
1.046e-18
7.765e-18
4.846e-17
2.748e-16
1.428e-15
6.789e-15
2.947e-14
1.165e-13
4.186e-13
1.366e-12
4.042e-12
1.085e-11
2.643e-11
5.848e-11
1.177e-10
2.162e-10
3.636e-10
5.636e-10
8.098e-10
1.085e-09
1.365e-09
1.617e-09
1.825e-09
1.958e-09
2.01e-09
1.984e-09
1.911e-09
1.794e-09
1.648e-09
1.487e-09
1.325e-09
1.169e-09
1.025e-09
8.965e-10
7.841e-10
6.873e-10
6.052e-10
5.362e-10
4.787e-10
4.311e-10
3.919e-10
3.599e-10
3.34e-10
3.133e-10
2.97e-10
2.846e-10
2.754e-10
2.694e-10
2.653e-10
2.652e-10
2.665e-10
2.698e-10
2.754e-10
2.831e-10
2.929e-10
3.049e-10
3.191e-10
3.356e-10
3.545e-10
3.761e-10
4.004e-10
4.277e-10
4.581e-10
4.919e-10
5.294e-10
5.708e-10
6.164e-10
6.666e-10
7.217e-10
7.821e-10
8.481e-10
9.201e-10
9.986e-10
1.084e-09
1.177e-09
1.277e-09
1.386e-09
1.504e-09
1.627e-09
1.822e-09
1.953e-57
-1.957e-56
1.471e-55
-9.895e-55
5.976e-54
-3.27e-53
1.636e-52
-7.54e-52
3.214e-51
-1.263e-50
4.462e-50
-1.295e-49
3.07e-50
2.472e-48
-2.965e-47
2.785e-46
-2.321e-45
1.857e-44
-1.421e-43
1.049e-42
-7.488e-42
5.183e-41
-3.48e-40
2.264e-39
-1.429e-38
8.643e-38
-5.155e-37
2.937e-36
-1.551e-35
7.038e-35
-1.754e-34
-1.048e-33
2.383e-32
-2.826e-31
2.75e-30
-2.407e-29
1.96e-28
-1.508e-27
1.104e-26
-7.728e-26
5.199e-25
-3.323e-24
2.074e-23
-1.211e-22
7.449e-22
-2.629e-21
1.268e-19
1.769e-18
1.446e-17
1.006e-16
6.376e-16
3.703e-15
1.966e-14
9.508e-14
4.178e-13
1.663e-12
5.984e-12
1.944e-11
5.692e-11
1.502e-10
3.574e-10
7.672e-10
1.488e-09
2.618e-09
4.191e-09
6.16e-09
8.367e-09
1.058e-08
1.254e-08
1.397e-08
1.49e-08
1.481e-08
1.434e-08
1.345e-08
1.223e-08
1.085e-08
9.437e-09
8.08e-09
6.841e-09
5.75e-09
4.815e-09
4.031e-09
3.381e-09
2.85e-09
2.418e-09
2.069e-09
1.787e-09
1.561e-09
1.378e-09
1.232e-09
1.114e-09
1.021e-09
9.461e-10
8.876e-10
8.424e-10
8.085e-10
7.841e-10
7.687e-10
7.593e-10
7.602e-10
7.655e-10
7.766e-10
7.938e-10
8.167e-10
8.455e-10
8.801e-10
9.209e-10
9.679e-10
1.021e-09
1.082e-09
1.15e-09
1.225e-09
1.309e-09
1.402e-09
1.504e-09
1.616e-09
1.739e-09
1.873e-09
2.02e-09
2.18e-09
2.354e-09
2.542e-09
2.746e-09
2.967e-09
3.205e-09
3.462e-09
3.729e-09
4.156e-09
-1.576e-56
1.572e-55
-1.204e-54
8.44e-54
-5.425e-53
3.222e-52
-1.784e-51
9.289e-51
-4.595e-50
2.186e-49
-1.019e-48
4.786e-48
-2.373e-47
1.301e-46
-8.171e-46
5.466e-45
-3.826e-44
2.836e-43
-2.061e-42
1.462e-41
-1.01e-40
6.801e-40
-4.482e-39
2.903e-38
-1.912e-37
1.252e-36
-8.541e-36
6.006e-35
-4.323e-34
3.161e-33
-2.328e-32
1.713e-31
-1.253e-30
9.05e-30
-6.434e-29
4.486e-28
-3.06e-27
2.038e-26
-1.322e-25
8.348e-25
-5.094e-24
3.076e-23
-1.723e-22
1.028e-21
-3.948e-21
1.613e-19
2.477e-18
2.235e-17
1.734e-16
1.23e-15
8.007e-15
4.765e-14
2.582e-13
1.269e-12
5.634e-12
2.255e-11
8.111e-11
2.618e-10
7.568e-10
1.959e-09
4.537e-09
9.412e-09
1.752e-08
2.937e-08
4.457e-08
6.186e-08
7.917e-08
9.427e-08
1.049e-07
1.1e-07
1.083e-07
1.029e-07
9.418e-08
8.333e-08
7.167e-08
6.025e-08
4.975e-08
4.054e-08
3.275e-08
2.632e-08
2.113e-08
1.699e-08
1.373e-08
1.117e-08
9.168e-09
7.604e-09
6.38e-09
5.421e-09
4.667e-09
4.073e-09
3.604e-09
3.232e-09
2.938e-09
2.706e-09
2.524e-09
2.384e-09
2.278e-09
2.201e-09
2.148e-09
2.116e-09
2.108e-09
2.116e-09
2.14e-09
2.179e-09
2.234e-09
2.304e-09
2.39e-09
2.491e-09
2.608e-09
2.742e-09
2.892e-09
3.061e-09
3.249e-09
3.457e-09
3.686e-09
3.937e-09
4.213e-09
4.514e-09
4.842e-09
5.199e-09
5.586e-09
6.005e-09
6.457e-09
6.945e-09
7.47e-09
8.036e-09
8.619e-09
9.558e-09
1.088e-55
-1.077e-54
8.357e-54
-6.055e-53
4.096e-52
-2.601e-51
1.561e-50
-8.892e-50
4.831e-49
-2.502e-48
1.226e-47
-5.558e-47
2.189e-46
-6.041e-46
-1.555e-45
3.529e-44
-3.506e-43
2.994e-42
-2.293e-41
1.623e-40
-1.078e-39
6.719e-39
-3.895e-38
2.01e-37
-1.063e-36
2.343e-36
7.75e-36
-1.967e-34
2.229e-33
-2.057e-32
1.716e-31
-1.344e-30
1.006e-29
-7.259e-29
5.074e-28
-3.446e-27
2.277e-26
-1.465e-25
9.18e-25
-5.588e-24
3.346e-23
-1.844e-22
1.131e-21
-4.516e-21
1.667e-19
2.818e-18
2.806e-17
2.428e-16
1.929e-15
1.409e-14
9.424e-14
5.739e-13
3.168e-12
1.578e-11
7.07e-11
2.838e-10
1.018e-09
3.255e-09
9.263e-09
2.343e-08
5.262e-08
1.05e-07
1.867e-07
2.968e-07
4.248e-07
5.545e-07
6.674e-07
7.475e-07
7.763e-07
7.583e-07
7.106e-07
6.382e-07
5.519e-07
4.625e-07
3.776e-07
3.021e-07
2.379e-07
1.854e-07
1.436e-07
1.109e-07
8.573e-08
6.656e-08
5.203e-08
4.104e-08
3.273e-08
2.643e-08
2.163e-08
1.795e-08
1.513e-08
1.293e-08
1.123e-08
9.894e-09
8.846e-09
8.023e-09
7.376e-09
6.871e-09
6.481e-09
6.186e-09
5.97e-09
5.821e-09
5.731e-09
5.694e-09
5.712e-09
5.767e-09
5.862e-09
5.998e-09
6.173e-09
6.386e-09
6.64e-09
6.932e-09
7.266e-09
7.642e-09
8.062e-09
8.528e-09
9.042e-09
9.608e-09
1.023e-08
1.09e-08
1.164e-08
1.244e-08
1.33e-08
1.423e-08
1.524e-08
1.633e-08
1.749e-08
1.874e-08
2.002e-08
2.209e-08
-6.147e-55
5.996e-54
-4.684e-53
3.485e-52
-2.465e-51
1.666e-50
-1.084e-49
6.863e-49
-4.271e-48
2.646e-47
-1.651e-46
1.046e-45
-6.757e-45
4.435e-44
-2.908e-43
1.916e-42
-1.284e-41
8.585e-41
-5.704e-40
3.76e-39
-2.459e-38
1.596e-37
-1.028e-36
6.596e-36
-4.209e-35
2.722e-34
-1.729e-33
1.099e-32
-7.006e-32
4.457e-31
-2.825e-30
1.782e-29
-1.117e-28
6.947e-28
-4.278e-27
2.605e-26
-1.565e-25
9.269e-25
-5.396e-24
3.095e-23
-1.697e-22
1.06e-21
-3.968e-21
1.381e-19
2.568e-18
2.818e-17
2.715e-16
2.414e-15
1.978e-14
1.486e-13
1.018e-12
6.33e-12
3.55e-11
1.788e-10
8.052e-10
3.231e-09
1.151e-08
3.633e-08
1.013e-07
2.491e-07
5.397e-07
1.03e-06
1.739e-06
2.608e-06
3.506e-06
4.294e-06
4.869e-06
5.059e-06
4.923e-06
4.574e-06
4.054e-06
3.448e-06
2.832e-06
2.26e-06
1.762e-06
1.349e-06
1.02e-06
7.646e-07
5.708e-07
4.26e-07
3.19e-07
2.404e-07
1.828e-07
1.405e-07
1.094e-07
8.639e-08
6.926e-08
5.64e-08
4.668e-08
3.927e-08
3.357e-08
2.916e-08
2.572e-08
2.304e-08
2.093e-08
1.928e-08
1.8e-08
1.701e-08
1.626e-08
1.572e-08
1.535e-08
1.512e-08
1.503e-08
1.508e-08
1.522e-08
1.547e-08
1.581e-08
1.626e-08
1.68e-08
1.743e-08
1.817e-08
1.9e-08
1.994e-08
2.098e-08
2.214e-08
2.341e-08
2.48e-08
2.631e-08
2.796e-08
2.975e-08
3.168e-08
3.377e-08
3.602e-08
3.843e-08
4.101e-08
4.378e-08
4.661e-08
5.119e-08
2.327e-54
-2.308e-53
1.824e-52
-1.372e-51
9.805e-51
-6.642e-50
4.251e-49
-2.553e-48
1.42e-47
-7.137e-47
3.035e-46
-8.673e-46
-2.443e-45
5.573e-44
-6.044e-43
5.251e-42
-4.06e-41
2.928e-40
-2.005e-39
1.317e-38
-8.322e-38
5.062e-37
-2.948e-36
1.633e-35
-8.027e-35
4.973e-34
-1.945e-33
3.906e-33
1.303e-32
-2.967e-31
3.129e-30
-2.687e-29
2.084e-28
-1.516e-27
1.053e-26
-7.049e-26
4.574e-25
-2.886e-24
1.776e-23
-1.055e-22
6.553e-22
-2.038e-21
8.973e-20
1.849e-18
2.238e-17
2.394e-16
2.373e-15
2.175e-14
1.834e-13
1.413e-12
9.893e-12
6.253e-11
3.548e-10
1.798e-09
8.099e-09
3.23e-08
1.136e-07
3.515e-07
9.537e-07
2.264e-06
4.695e-06
8.515e-06
1.358e-05
1.912e-05
2.408e-05
2.779e-05
2.927e-05
2.849e-05
2.64e-05
2.327e-05
1.961e-05
1.591e-05
1.251e-05
9.582e-06
7.19e-06
5.311e-06
3.881e-06
2.819e-06
2.043e-06
1.483e-06
1.082e-06
7.965e-07
5.923e-07
4.461e-07
3.409e-07
2.646e-07
2.087e-07
1.675e-07
1.367e-07
1.136e-07
9.597e-08
8.245e-08
7.201e-08
6.387e-08
5.752e-08
5.254e-08
4.865e-08
4.563e-08
4.33e-08
4.156e-08
4.03e-08
3.947e-08
3.895e-08
3.885e-08
3.901e-08
3.942e-08
4.007e-08
4.098e-08
4.212e-08
4.35e-08
4.511e-08
4.695e-08
4.904e-08
5.136e-08
5.395e-08
5.679e-08
5.991e-08
6.331e-08
6.7e-08
7.101e-08
7.533e-08
7.999e-08
8.499e-08
9.036e-08
9.609e-08
1.022e-07
1.085e-07
1.186e-07
-1.197e-53
1.062e-52
-8.03e-52
6.207e-51
-4.837e-50
3.764e-49
-2.897e-48
2.191e-47
-1.621e-46
1.173e-45
-8.288e-45
5.736e-44
-3.894e-43
2.6e-42
-1.712e-41
1.114e-40
-7.175e-40
4.585e-39
-2.91e-38
1.837e-37
-1.155e-36
7.232e-36
-4.515e-35
2.809e-34
-1.742e-33
1.074e-32
-6.582e-32
4.007e-31
-2.423e-30
1.455e-29
-8.673e-29
5.132e-28
-3.013e-27
1.754e-26
-1.012e-25
5.786e-25
-3.276e-24
1.836e-23
-1.015e-22
5.707e-22
-2.47e-21
3.253e-20
1.008e-18
1.388e-17
1.649e-16
1.814e-15
1.853e-14
1.747e-13
1.51e-12
1.189e-11
8.461e-11
5.41e-10
3.087e-09
1.564e-08
6.99e-08
2.746e-07
9.445e-07
2.835e-06
7.402e-06
1.677e-05
3.295e-05
5.636e-05
8.453e-05
0.0001114
0.0001322
0.0001432
0.0001402
0.0001306
0.0001155
9.736e-05
7.883e-05
6.168e-05
4.69e-05
3.484e-05
2.541e-05
1.828e-05
1.303e-05
9.24e-06
6.551e-06
4.659e-06
3.336e-06
2.412e-06
1.765e-06
1.31e-06
9.876e-07
7.571e-07
5.906e-07
4.691e-07
3.794e-07
3.124e-07
2.619e-07
2.233e-07
1.937e-07
1.707e-07
1.527e-07
1.387e-07
1.277e-07
1.191e-07
1.125e-07
1.074e-07
1.036e-07
1.01e-07
9.932e-08
9.831e-08
9.844e-08
9.905e-08
1.003e-07
1.021e-07
1.045e-07
1.074e-07
1.109e-07
1.15e-07
1.196e-07
1.248e-07
1.306e-07
1.369e-07
1.439e-07
1.515e-07
1.598e-07
1.687e-07
1.784e-07
1.888e-07
1.999e-07
2.118e-07
2.245e-07
2.382e-07
2.519e-07
2.743e-07
-5.571e-53
5.491e-52
-4.391e-51
3.396e-50
-2.53e-49
1.817e-48
-1.26e-47
8.447e-47
-5.487e-46
3.462e-45
-2.128e-44
1.279e-43
-7.548e-43
4.395e-42
-2.539e-41
1.465e-40
-8.511e-40
5.013e-39
-3.015e-38
1.86e-37
-1.179e-36
7.663e-36
-5.09e-35
3.436e-34
-2.35e-33
1.593e-32
-1.065e-31
7.028e-31
-4.585e-30
2.959e-29
-1.891e-28
1.197e-27
-7.504e-27
4.664e-26
-2.873e-25
1.754e-24
-1.062e-23
6.373e-23
-3.767e-22
2.321e-21
-8.655e-21
2.785e-19
6.468e-18
8.823e-17
1.074e-15
1.216e-14
1.275e-13
1.232e-12
1.087e-11
8.694e-11
6.257e-10
4.02e-09
2.29e-08
1.148e-07
5.038e-07
1.925e-06
6.383e-06
1.83e-05
4.526e-05
9.635e-05
0.0001772
0.000284
0.000399
0.0004936
0.0005611
0.0005556
0.0005256
0.0004711
0.000402
0.0003288
0.0002594
0.0001985
0.000148
0.0001079
7.736e-05
5.474e-05
3.842e-05
2.685e-05
1.878e-05
1.318e-05
9.326e-06
6.669e-06
4.832e-06
3.554e-06
2.657e-06
2.022e-06
1.568e-06
1.238e-06
9.959e-07
8.162e-07
6.811e-07
5.785e-07
4.998e-07
4.389e-07
3.915e-07
3.543e-07
3.252e-07
3.024e-07
2.846e-07
2.709e-07
2.606e-07
2.531e-07
2.481e-07
2.45e-07
2.441e-07
2.449e-07
2.471e-07
2.508e-07
2.558e-07
2.622e-07
2.698e-07
2.788e-07
2.89e-07
3.006e-07
3.134e-07
3.276e-07
3.432e-07
3.602e-07
3.786e-07
3.985e-07
4.2e-07
4.431e-07
4.679e-07
4.943e-07
5.224e-07
5.524e-07
5.827e-07
6.319e-07
1.872e-52
-1.718e-51
1.32e-50
-1.015e-49
7.741e-49
-5.837e-48
4.338e-47
-3.172e-46
2.277e-45
-1.605e-44
1.11e-43
-7.545e-43
5.042e-42
-3.318e-41
2.153e-40
-1.379e-39
8.742e-39
-5.488e-38
3.416e-37
-2.111e-36
1.297e-35
-7.923e-35
4.817e-34
-2.917e-33
1.759e-32
-1.054e-31
6.288e-31
-3.733e-30
2.206e-29
-1.299e-28
7.615e-28
-4.45e-27
2.591e-26
-1.504e-25
8.708e-25
-5.026e-24
2.895e-23
-1.657e-22
9.773e-22
-4.277e-21
7.532e-20
2.428e-18
3.687e-17
4.928e-16
6.141e-15
7.125e-14
7.647e-13
7.532e-12
6.75e-11
5.458e-10
3.946e-09
2.528e-08
1.423e-07
6.983e-07
2.967e-06
1.085e-05
3.405e-05
9.142e-05
0.0002098
0.0004125
0.0007043
0.00105
0.001376
0.001627
0.001698
0.001639
0.001502
0.001312
0.001099
0.000888
0.0006946
0.0005281
0.0003916
0.0002842
0.0002027
0.0001427
9.959e-05
6.921e-05
4.811e-05
3.36e-05
2.365e-05
1.684e-05
1.215e-05
8.907e-06
6.642e-06
5.044e-06
3.903e-06
3.078e-06
2.473e-06
2.025e-06
1.689e-06
1.434e-06
1.238e-06
1.086e-06
9.68e-07
8.754e-07
8.027e-07
7.455e-07
7.008e-07
6.662e-07
6.398e-07
6.205e-07
6.07e-07
5.988e-07
5.944e-07
5.957e-07
5.998e-07
6.071e-07
6.178e-07
6.316e-07
6.484e-07
6.681e-07
6.908e-07
7.165e-07
7.451e-07
7.767e-07
8.114e-07
8.492e-07
8.902e-07
9.345e-07
9.822e-07
1.033e-06
1.088e-06
1.146e-06
1.208e-06
1.274e-06
1.34e-06
1.448e-06
3.943e-52
-3.88e-51
3.127e-50
-2.457e-49
1.872e-48
-1.384e-47
9.937e-47
-6.935e-46
4.715e-45
-3.129e-44
2.033e-43
-1.297e-42
8.155e-42
-5.066e-41
3.12e-40
-1.912e-39
1.168e-38
-7.144e-38
4.379e-37
-2.696e-36
1.668e-35
-1.038e-34
6.503e-34
-4.098e-33
2.596e-32
-1.637e-31
1.026e-30
-6.399e-30
3.971e-29
-2.454e-28
1.511e-27
-9.278e-27
5.683e-26
-3.474e-25
2.121e-24
-1.294e-23
7.893e-23
-4.785e-22
3.076e-21
-1.065e-20
4.538e-19
1.161e-17
1.756e-16
2.398e-15
3.057e-14
3.624e-13
3.964e-12
3.964e-11
3.591e-10
2.918e-09
2.105e-08
1.333e-07
7.342e-07
3.482e-06
1.41e-05
4.846e-05
0.000141
0.0003467
0.0007245
0.001299
0.002055
0.002822
0.003457
0.003892
0.003832
0.003604
0.003245
0.002818
0.002369
0.001928
0.001522
0.001169
0.0008746
0.0006399
0.0004594
0.000325
0.0002277
0.0001586
0.0001105
7.731e-05
5.452e-05
3.888e-05
2.812e-05
2.066e-05
1.545e-05
1.176e-05
9.125e-06
7.217e-06
5.817e-06
4.776e-06
3.994e-06
3.399e-06
2.941e-06
2.587e-06
2.31e-06
2.092e-06
1.92e-06
1.785e-06
1.679e-06
1.597e-06
1.534e-06
1.487e-06
1.454e-06
1.434e-06
1.422e-06
1.424e-06
1.432e-06
1.447e-06
1.47e-06
1.501e-06
1.538e-06
1.582e-06
1.632e-06
1.689e-06
1.753e-06
1.823e-06
1.9e-06
1.984e-06
2.075e-06
2.173e-06
2.278e-06
2.39e-06
2.51e-06
2.638e-06
2.773e-06
2.917e-06
3.06e-06
3.293e-06
-1.037e-51
9.63e-51
-7.465e-50
5.765e-49
-4.399e-48
3.309e-47
-2.449e-46
1.781e-45
-1.272e-44
8.912e-44
-6.132e-43
4.145e-42
-2.754e-41
1.802e-40
-1.161e-39
7.385e-39
-4.64e-38
2.884e-37
-1.776e-36
1.085e-35
-6.575e-35
3.962e-34
-2.375e-33
1.417e-32
-8.423e-32
4.979e-31
-2.932e-30
1.722e-29
-1.009e-28
5.908e-28
-3.457e-27
2.024e-26
-1.186e-25
6.966e-25
-4.103e-24
2.427e-23
-1.438e-22
8.857e-22
-3.929e-21
8.749e-20
2.97e-18
4.926e-17
7.302e-16
1.016e-14
1.321e-13
1.594e-12
1.769e-11
1.79e-10
1.631e-09
1.325e-08
9.474e-08
5.887e-07
3.139e-06
1.42e-05
5.395e-05
0.0001711
0.0004523
0.0009996
0.001876
0.003071
0.004539
0.005729
0.006588
0.007491
0.007012
0.006179
0.005513
0.004883
0.004198
0.003483
0.002805
0.002197
0.001676
0.001247
0.0009093
0.000652
0.000462
0.0003252
0.0002286
0.0001613
0.0001146
8.24e-05
6.004e-05
4.445e-05
3.349e-05
2.569e-05
2.008e-05
1.599e-05
1.297e-05
1.072e-05
9.02e-06
7.719e-06
6.715e-06
5.933e-06
5.321e-06
4.838e-06
4.456e-06
4.155e-06
3.918e-06
3.733e-06
3.592e-06
3.487e-06
3.413e-06
3.367e-06
3.339e-06
3.343e-06
3.361e-06
3.396e-06
3.448e-06
3.515e-06
3.598e-06
3.696e-06
3.809e-06
3.936e-06
4.077e-06
4.233e-06
4.403e-06
4.589e-06
4.788e-06
5.003e-06
5.233e-06
5.478e-06
5.739e-06
6.015e-06
6.306e-06
6.614e-06
6.92e-06
7.415e-06
-1.486e-51
1.457e-50
-1.178e-49
9.348e-49
-7.234e-48
5.456e-47
-4.011e-46
2.876e-45
-2.014e-44
1.378e-43
-9.243e-43
6.085e-42
-3.941e-41
2.518e-40
-1.589e-39
9.941e-39
-6.171e-38
3.81e-37
-2.344e-36
1.438e-35
-8.821e-35
5.41e-34
-3.322e-33
2.045e-32
-1.26e-31
7.747e-31
-4.743e-30
2.897e-29
-1.766e-28
1.076e-27
-6.558e-27
4.004e-26
-2.451e-25
1.506e-24
-9.301e-24
5.783e-23
-3.6e-22
2.397e-21
-8.53e-21
3.778e-19
1.057e-17
1.75e-16
2.639e-15
3.737e-14
4.942e-13
6.052e-12
6.799e-11
6.93e-10
6.333e-09
5.12e-08
3.609e-07
2.184e-06
1.118e-05
4.768e-05
0.0001675
0.0004828
0.001141
0.002238
0.003766
0.005817
0.008132
0.01034
0.01015
0.009903
0.009976
0.01034
0.01026
0.008461
0.006643
0.005505
0.004528
0.003627
0.002827
0.002149
0.001598
0.001166
0.0008406
0.0006011
0.0004288
0.0003068
0.000221
0.000161
0.0001188
8.907e-05
6.792e-05
5.272e-05
4.167e-05
3.355e-05
2.751e-05
2.296e-05
1.949e-05
1.682e-05
1.475e-05
1.313e-05