/*--------------------------------*- C++ -*----------------------------------*\
  =========                 |
  \\      /  F ield         | OpenFOAM: The Open Source CFD Toolbox
   \\    /   O peration     | Website:  https://openfoam.org
    \\  /    A nd           | Version:  7
     \\/     M anipulation  |
\*---------------------------------------------------------------------------*/
FoamFile
{
    version     2.0;
    format      ascii;
    class       volScalarField;
    location    "2039.99947343277609";
    object      p;
}
// * * * * * * * * * * * * * * * * * * * * * * * * * * * * * * * * * * * * * //

dimensions      [0 2 -2 0 0 0 0];

internalField   nonuniform List<scalar> 
4096
(
0.0005709
0.0004
0.0003158
0.0002736
0.0002502
0.0002363
0.0002274
0.0002213
0.0002169
0.0002136
0.0002111
0.0002091
0.0002074
0.000206
0.0002049
0.0002039
0.000203
0.0002022
0.0002015
0.0002008
0.0002002
0.0001996
0.0001991
0.0001986
0.0001981
0.0001976
0.0001971
0.0001966
0.0001962
0.0001957
0.0001952
0.0001947
0.0001942
0.0001937
0.0001932
0.0001926
0.000192
0.0001914
0.0001907
0.0001899
0.0001891
0.0001882
0.0001872
0.000186
0.0001847
0.0001833
0.0001816
0.0001798
0.0001777
0.0001754
0.0001728
0.00017
0.0001668
0.0001632
0.0001594
0.0001551
0.0001506
0.0001457
0.0001405
0.000135
0.0001293
0.0001233
0.0001172
0.0001111
0.0001048
9.863e-05
9.25e-05
8.651e-05
8.07e-05
7.51e-05
6.975e-05
6.468e-05
5.99e-05
5.543e-05
5.127e-05
4.742e-05
4.388e-05
4.064e-05
3.769e-05
3.502e-05
3.26e-05
3.043e-05
2.847e-05
2.672e-05
2.515e-05
2.375e-05
2.249e-05
2.136e-05
2.034e-05
1.942e-05
1.858e-05
1.782e-05
1.712e-05
1.646e-05
1.585e-05
1.528e-05
1.473e-05
1.42e-05
1.37e-05
1.321e-05
1.273e-05
1.225e-05
1.179e-05
1.132e-05
1.087e-05
1.041e-05
9.949e-06
9.492e-06
9.033e-06
8.572e-06
8.11e-06
7.646e-06
7.179e-06
6.71e-06
6.238e-06
5.763e-06
5.286e-06
4.805e-06
4.321e-06
3.835e-06
3.346e-06
2.856e-06
2.364e-06
1.873e-06
1.385e-06
9.075e-07
4.52e-07
9.104e-08
0.0004265
0.0003627
0.0003129
0.0002809
0.0002599
0.0002456
0.0002356
0.0002283
0.0002228
0.0002185
0.0002152
0.0002125
0.0002104
0.0002085
0.000207
0.0002057
0.0002045
0.0002035
0.0002026
0.0002017
0.000201
0.0002002
0.0001996
0.0001989
0.0001983
0.0001977
0.0001971
0.0001965
0.000196
0.0001954
0.0001948
0.0001942
0.0001936
0.000193
0.0001924
0.0001917
0.000191
0.0001902
0.0001894
0.0001885
0.0001876
0.0001865
0.0001854
0.0001841
0.0001827
0.0001812
0.0001794
0.0001775
0.0001754
0.000173
0.0001704
0.0001675
0.0001643
0.0001608
0.000157
0.0001529
0.0001485
0.0001438
0.0001388
0.0001336
0.0001281
0.0001224
0.0001166
0.0001107
0.0001048
9.894e-05
9.312e-05
8.742e-05
8.187e-05
7.651e-05
7.138e-05
6.65e-05
6.189e-05
5.755e-05
5.349e-05
4.972e-05
4.622e-05
4.301e-05
4.006e-05
3.736e-05
3.491e-05
3.267e-05
3.065e-05
2.882e-05
2.716e-05
2.567e-05
2.431e-05
2.308e-05
2.196e-05
2.093e-05
2e-05
1.913e-05
1.833e-05
1.759e-05
1.689e-05
1.623e-05
1.56e-05
1.5e-05
1.443e-05
1.387e-05
1.333e-05
1.28e-05
1.228e-05
1.177e-05
1.127e-05
1.077e-05
1.028e-05
9.786e-06
9.297e-06
8.809e-06
8.322e-06
7.835e-06
7.348e-06
6.861e-06
6.373e-06
5.884e-06
5.394e-06
4.903e-06
4.41e-06
3.917e-06
3.422e-06
2.927e-06
2.432e-06
1.94e-06
1.451e-06
9.701e-07
5.04e-07
1.126e-07
0.000343
0.0003213
0.0002959
0.0002751
0.0002596
0.0002479
0.0002389
0.0002318
0.0002263
0.0002218
0.0002182
0.0002152
0.0002127
0.0002106
0.0002088
0.0002072
0.0002058
0.0002046
0.0002035
0.0002025
0.0002016
0.0002008
0.0002
0.0001992
0.0001985
0.0001978
0.0001971
0.0001964
0.0001958
0.0001951
0.0001944
0.0001937
0.000193
0.0001923
0.0001916
0.0001908
0.00019
0.0001891
0.0001882
0.0001872
0.0001861
0.000185
0.0001837
0.0001824
0.0001809
0.0001792
0.0001774
0.0001754
0.0001732
0.0001708
0.0001682
0.0001653
0.0001621
0.0001587
0.000155
0.000151
0.0001467
0.0001421
0.0001373
0.0001323
0.000127
0.0001216
0.0001161
0.0001105
0.0001048
9.92e-05
9.364e-05
8.818e-05
8.287e-05
7.774e-05
7.28e-05
6.81e-05
6.363e-05
5.942e-05
5.546e-05
5.177e-05
4.833e-05
4.514e-05
4.22e-05
3.95e-05
3.701e-05
3.474e-05
3.267e-05
3.077e-05
2.904e-05
2.746e-05
2.602e-05
2.47e-05
2.349e-05
2.238e-05
2.135e-05
2.04e-05
1.951e-05
1.868e-05
1.79e-05
1.716e-05
1.646e-05
1.579e-05
1.515e-05
1.453e-05
1.393e-05
1.335e-05
1.278e-05
1.222e-05
1.168e-05
1.114e-05
1.061e-05
1.009e-05
9.566e-06
9.051e-06
8.539e-06
8.029e-06
7.522e-06
7.017e-06
6.513e-06
6.009e-06
5.507e-06
5.004e-06
4.502e-06
4e-06
3.499e-06
2.998e-06
2.498e-06
2e-06
1.504e-06
1.014e-06
5.314e-07
1.16e-07
0.0002982
0.0002912
0.0002779
0.0002647
0.0002538
0.000245
0.0002379
0.000232
0.0002271
0.000223
0.0002195
0.0002166
0.000214
0.0002119
0.00021
0.0002083
0.0002068
0.0002055
0.0002043
0.0002032
0.0002022
0.0002012
0.0002003
0.0001995
0.0001986
0.0001978
0.0001971
0.0001963
0.0001956
0.0001948
0.0001941
0.0001933
0.0001925
0.0001917
0.0001909
0.00019
0.0001891
0.0001881
0.0001871
0.0001861
0.0001849
0.0001837
0.0001823
0.0001809
0.0001793
0.0001776
0.0001757
0.0001737
0.0001715
0.000169
0.0001664
0.0001635
0.0001604
0.000157
0.0001534
0.0001495
0.0001453
0.0001408
0.0001362
0.0001313
0.0001262
0.000121
0.0001156
0.0001102
0.0001048
9.937e-05
9.401e-05
8.875e-05
8.362e-05
7.867e-05
7.39e-05
6.934e-05
6.5e-05
6.09e-05
5.703e-05
5.341e-05
5.002e-05
4.687e-05
4.395e-05
4.125e-05
3.876e-05
3.646e-05
3.435e-05
3.242e-05
3.063e-05
2.9e-05
2.749e-05
2.611e-05
2.482e-05
2.364e-05
2.254e-05
2.151e-05
2.055e-05
1.965e-05
1.88e-05
1.8e-05
1.723e-05
1.65e-05
1.58e-05
1.513e-05
1.448e-05
1.385e-05
1.324e-05
1.264e-05
1.205e-05
1.148e-05
1.092e-05
1.036e-05
9.817e-06
9.277e-06
8.742e-06
8.212e-06
7.686e-06
7.164e-06
6.645e-06
6.128e-06
5.613e-06
5.1e-06
4.589e-06
4.079e-06
3.569e-06
3.061e-06
2.554e-06
2.048e-06
1.544e-06
1.043e-06
5.438e-07
1.132e-07
0.0002713
0.0002704
0.0002634
0.0002548
0.000247
0.0002404
0.0002349
0.0002302
0.0002262
0.0002227
0.0002196
0.0002169
0.0002145
0.0002124
0.0002105
0.0002089
0.0002074
0.000206
0.0002047
0.0002036
0.0002025
0.0002015
0.0002005
0.0001996
0.0001987
0.0001979
0.000197
0.0001962
0.0001954
0.0001945
0.0001937
0.0001929
0.000192
0.0001912
0.0001902
0.0001893
0.0001883
0.0001873
0.0001862
0.0001851
0.0001838
0.0001825
0.0001811
0.0001796
0.000178
0.0001763
0.0001743
0.0001723
0.00017
0.0001676
0.000165
0.0001621
0.000159
0.0001557
0.0001521
0.0001483
0.0001442
0.0001399
0.0001353
0.0001305
0.0001256
0.0001205
0.0001153
0.00011
0.0001047
9.947e-05
9.426e-05
8.915e-05
8.417e-05
7.935e-05
7.472e-05
7.028e-05
6.605e-05
6.204e-05
5.825e-05
5.47e-05
5.136e-05
4.825e-05
4.535e-05
4.266e-05
4.017e-05
3.787e-05
3.574e-05
3.377e-05
3.196e-05
3.028e-05
2.873e-05
2.729e-05
2.596e-05
2.472e-05
2.356e-05
2.247e-05
2.146e-05
2.05e-05
1.959e-05
1.873e-05
1.791e-05
1.713e-05
1.638e-05
1.566e-05
1.497e-05
1.43e-05
1.364e-05
1.301e-05
1.239e-05
1.179e-05
1.12e-05
1.062e-05
1.004e-05
9.481e-06
8.926e-06
8.378e-06
7.836e-06
7.298e-06
6.765e-06
6.236e-06
5.711e-06
5.188e-06
4.667e-06
4.149e-06
3.632e-06
3.117e-06
2.602e-06
2.089e-06
1.576e-06
1.064e-06
5.514e-07
1.1e-07
0.000254
0.0002555
0.0002521
0.0002465
0.0002408
0.0002357
0.0002314
0.0002276
0.0002244
0.0002214
0.0002188
0.0002164
0.0002143
0.0002124
0.0002106
0.000209
0.0002076
0.0002062
0.0002049
0.0002038
0.0002027
0.0002016
0.0002006
0.0001997
0.0001987
0.0001978
0.0001969
0.0001961
0.0001952
0.0001943
0.0001934
0.0001925
0.0001916
0.0001907
0.0001897
0.0001887
0.0001877
0.0001866
0.0001855
0.0001843
0.000183
0.0001816
0.0001802
0.0001786
0.000177
0.0001752
0.0001732
0.0001712
0.0001689
0.0001665
0.0001639
0.000161
0.000158
0.0001547
0.0001511
0.0001474
0.0001434
0.0001391
0.0001347
0.00013
0.0001251
0.0001201
0.000115
0.0001099
0.0001047
9.95e-05
9.44e-05
8.941e-05
8.454e-05
7.983e-05
7.53e-05
7.096e-05
6.682e-05
6.289e-05
5.917e-05
5.567e-05
5.238e-05
4.931e-05
4.644e-05
4.377e-05
4.129e-05
3.898e-05
3.684e-05
3.486e-05
3.303e-05
3.132e-05
2.974e-05
2.827e-05
2.689e-05
2.561e-05
2.441e-05
2.328e-05
2.221e-05
2.121e-05
2.026e-05
1.935e-05
1.849e-05
1.767e-05
1.688e-05
1.612e-05
1.539e-05
1.468e-05
1.4e-05
1.333e-05
1.269e-05
1.205e-05
1.144e-05
1.083e-05
1.024e-05
9.66e-06
9.087e-06
8.523e-06
7.966e-06
7.416e-06
6.871e-06
6.331e-06
5.796e-06
5.264e-06
4.736e-06
4.21e-06
3.686e-06
3.164e-06
2.643e-06
2.122e-06
1.602e-06
1.08e-06
5.575e-07
1.076e-07
0.0002421
0.0002446
0.0002433
0.0002396
0.0002354
0.0002315
0.0002279
0.0002249
0.0002222
0.0002197
0.0002175
0.0002155
0.0002136
0.0002119
0.0002103
0.0002088
0.0002074
0.0002062
0.0002049
0.0002038
0.0002027
0.0002016
0.0002006
0.0001996
0.0001987
0.0001978
0.0001968
0.0001959
0.000195
0.0001941
0.0001932
0.0001922
0.0001913
0.0001903
0.0001893
0.0001882
0.0001872
0.000186
0.0001848
0.0001836
0.0001823
0.0001809
0.0001794
0.0001778
0.0001761
0.0001743
0.0001724
0.0001703
0.0001681
0.0001656
0.000163
0.0001602
0.0001572
0.000154
0.0001505
0.0001468
0.0001428
0.0001386
0.0001342
0.0001296
0.0001248
0.0001199
0.0001148
0.0001097
0.0001046
9.948e-05
9.446e-05
8.954e-05
8.476e-05
8.013e-05
7.568e-05
7.141e-05
6.734e-05
6.347e-05
5.981e-05
5.636e-05
5.312e-05
5.008e-05
4.724e-05
4.458e-05
4.212e-05
3.982e-05
3.769e-05
3.57e-05
3.385e-05
3.213e-05
3.053e-05
2.904e-05
2.764e-05
2.632e-05
2.509e-05
2.393e-05
2.283e-05
2.179e-05
2.08e-05
1.986e-05
1.897e-05
1.811e-05
1.729e-05
1.65e-05
1.573e-05
1.5e-05
1.429e-05
1.36e-05
1.293e-05
1.227e-05
1.164e-05
1.102e-05
1.041e-05
9.808e-06
9.221e-06
8.643e-06
8.074e-06
7.513e-06
6.959e-06
6.41e-06
5.866e-06
5.328e-06
4.792e-06
4.26e-06
3.731e-06
3.203e-06
2.676e-06
2.15e-06
1.623e-06
1.095e-06
5.633e-07
1.066e-07
0.0002335
0.0002362
0.0002361
0.0002339
0.0002308
0.0002277
0.0002248
0.0002223
0.00022
0.0002179
0.000216
0.0002143
0.0002127
0.0002112
0.0002097
0.0002084
0.0002071
0.0002059
0.0002047
0.0002036
0.0002026
0.0002015
0.0002005
0.0001995
0.0001986
0.0001976
0.0001967
0.0001958
0.0001948
0.0001939
0.000193
0.000192
0.000191
0.00019
0.0001889
0.0001879
0.0001868
0.0001856
0.0001844
0.0001831
0.0001818
0.0001803
0.0001788
0.0001773
0.0001756
0.0001737
0.0001718
0.0001697
0.0001675
0.0001651
0.0001625
0.0001597
0.0001567
0.0001535
0.00015
0.0001464
0.0001425
0.0001383
0.0001339
0.0001293
0.0001246
0.0001197
0.0001146
0.0001096
0.0001045
9.941e-05
9.443e-05
8.956e-05
8.483e-05
8.026e-05
7.587e-05
7.166e-05
6.764e-05
6.382e-05
6.021e-05
5.68e-05
5.359e-05
5.058e-05
4.776e-05
4.513e-05
4.268e-05
4.04e-05
3.827e-05
3.629e-05
3.445e-05
3.272e-05
3.111e-05
2.96e-05
2.819e-05
2.686e-05
2.56e-05
2.442e-05
2.329e-05
2.223e-05
2.122e-05
2.025e-05
1.933e-05
1.845e-05
1.76e-05
1.679e-05
1.6e-05
1.525e-05
1.451e-05
1.38e-05
1.312e-05
1.245e-05
1.179e-05
1.116e-05
1.053e-05
9.923e-06
9.324e-06
8.736e-06
8.158e-06
7.588e-06
7.026e-06
6.47e-06
5.921e-06
5.376e-06
4.836e-06
4.299e-06
3.765e-06
3.233e-06
2.702e-06
2.172e-06
1.64e-06
1.107e-06
5.694e-07
1.072e-07
0.000227
0.0002297
0.0002303
0.000229
0.0002268
0.0002244
0.000222
0.0002199
0.0002179
0.0002161
0.0002145
0.000213
0.0002116
0.0002103
0.000209
0.0002078
0.0002066
0.0002055
0.0002044
0.0002034
0.0002023
0.0002013
0.0002004
0.0001994
0.0001985
0.0001975
0.0001966
0.0001956
0.0001947
0.0001937
0.0001928
0.0001918
0.0001908
0.0001898
0.0001887
0.0001876
0.0001865
0.0001853
0.0001841
0.0001828
0.0001814
0.00018
0.0001785
0.0001769
0.0001752
0.0001734
0.0001714
0.0001693
0.0001671
0.0001647
0.0001622
0.0001594
0.0001564
0.0001533
0.0001499
0.0001462
0.0001423
0.0001382
0.0001338
0.0001292
0.0001245
0.0001196
0.0001145
0.0001094
0.0001043
9.928e-05
9.431e-05
8.947e-05
8.477e-05
8.024e-05
7.588e-05
7.171e-05
6.773e-05
6.395e-05
6.036e-05
5.698e-05
5.38e-05
5.082e-05
4.803e-05
4.542e-05
4.299e-05
4.073e-05
3.862e-05
3.665e-05
3.481e-05
3.31e-05
3.149e-05
2.997e-05
2.855e-05
2.721e-05
2.595e-05
2.475e-05
2.362e-05
2.254e-05
2.151e-05
2.052e-05
1.959e-05
1.869e-05
1.782e-05
1.699e-05
1.619e-05
1.542e-05
1.467e-05
1.395e-05
1.325e-05
1.256e-05
1.19e-05
1.125e-05
1.062e-05
1e-05
9.395e-06
8.8e-06
8.215e-06
7.639e-06
7.072e-06
6.512e-06
5.958e-06
5.41e-06
4.866e-06
4.326e-06
3.79e-06
3.255e-06
2.722e-06
2.189e-06
1.654e-06
1.118e-06
5.763e-07
1.095e-07
0.0002219
0.0002245
0.0002254
0.0002248
0.0002234
0.0002215
0.0002196
0.0002177
0.000216
0.0002145
0.0002131
0.0002117
0.0002105
0.0002093
0.0002082
0.0002071
0.000206
0.000205
0.000204
0.000203
0.000202
0.0002011
0.0002002
0.0001992
0.0001983
0.0001974
0.0001964
0.0001955
0.0001946
0.0001936
0.0001927
0.0001917
0.0001907
0.0001896
0.0001886
0.0001875
0.0001863
0.0001851
0.0001839
0.0001826
0.0001812
0.0001798
0.0001783
0.0001767
0.000175
0.0001732
0.0001713
0.0001692
0.000167
0.0001647
0.0001621
0.0001594
0.0001564
0.0001533
0.0001499
0.0001463
0.0001424
0.0001382
0.0001339
0.0001293
0.0001245
0.0001195
0.0001144
0.0001093
0.0001042
9.909e-05
9.411e-05
8.927e-05
8.458e-05
8.006e-05
7.573e-05
7.157e-05
6.761e-05
6.385e-05
6.029e-05
5.693e-05
5.377e-05
5.081e-05
4.804e-05
4.546e-05
4.306e-05
4.082e-05
3.873e-05
3.678e-05
3.496e-05
3.326e-05
3.166e-05
3.015e-05
2.874e-05
2.74e-05
2.613e-05
2.493e-05
2.379e-05
2.271e-05
2.167e-05
2.068e-05
1.973e-05
1.882e-05
1.795e-05
1.711e-05
1.63e-05
1.552e-05
1.476e-05
1.403e-05
1.332e-05
1.263e-05
1.196e-05
1.131e-05
1.067e-05
1.004e-05
9.432e-06
8.833e-06
8.244e-06
7.665e-06
7.095e-06
6.532e-06
5.977e-06
5.427e-06
4.882e-06
4.341e-06
3.803e-06
3.268e-06
2.734e-06
2.2e-06
1.665e-06
1.127e-06
5.841e-07
1.137e-07
0.0002179
0.0002202
0.0002214
0.0002213
0.0002203
0.0002189
0.0002174
0.0002158
0.0002143
0.000213
0.0002117
0.0002105
0.0002094
0.0002084
0.0002074
0.0002064
0.0002054
0.0002045
0.0002035
0.0002026
0.0002017
0.0002008
0.0001999
0.000199
0.0001981
0.0001972
0.0001963
0.0001954
0.0001945
0.0001935
0.0001926
0.0001916
0.0001906
0.0001896
0.0001885
0.0001874
0.0001863
0.0001851
0.0001839
0.0001826
0.0001812
0.0001798
0.0001783
0.0001767
0.0001751
0.0001733
0.0001714
0.0001693
0.0001672
0.0001648
0.0001623
0.0001596
0.0001567
0.0001535
0.0001502
0.0001465
0.0001426
0.0001385
0.0001341
0.0001294
0.0001246
0.0001196
0.0001144
0.0001092
0.000104
9.885e-05
9.383e-05
8.896e-05
8.426e-05
7.974e-05
7.54e-05
7.125e-05
6.73e-05
6.354e-05
5.998e-05
5.663e-05
5.349e-05
5.055e-05
4.78e-05
4.525e-05
4.287e-05
4.066e-05
3.861e-05
3.669e-05
3.489e-05
3.321e-05
3.163e-05
3.014e-05
2.874e-05
2.742e-05
2.616e-05
2.496e-05
2.383e-05
2.274e-05
2.171e-05
2.072e-05
1.977e-05
1.885e-05
1.798e-05
1.714e-05
1.632e-05
1.554e-05
1.478e-05
1.405e-05
1.333e-05
1.264e-05
1.197e-05
1.131e-05
1.067e-05
1.005e-05
9.434e-06
8.834e-06
8.244e-06
7.665e-06
7.095e-06
6.532e-06
5.977e-06
5.427e-06
4.883e-06
4.343e-06
3.806e-06
3.272e-06
2.739e-06
2.206e-06
1.672e-06
1.135e-06
5.929e-07
1.199e-07
0.0002146
0.0002167
0.000218
0.0002182
0.0002176
0.0002166
0.0002154
0.0002141
0.0002128
0.0002116
0.0002105
0.0002094
0.0002084
0.0002075
0.0002066
0.0002057
0.0002048
0.0002039
0.0002031
0.0002022
0.0002014
0.0002005
0.0001997
0.0001988
0.000198
0.0001971
0.0001962
0.0001953
0.0001944
0.0001935
0.0001926
0.0001916
0.0001906
0.0001896
0.0001886
0.0001875
0.0001864
0.0001852
0.000184
0.0001827
0.0001814
0.00018
0.0001785
0.000177
0.0001753
0.0001736
0.0001717
0.0001697
0.0001676
0.0001652
0.0001628
0.0001601
0.0001572
0.000154
0.0001507
0.000147
0.0001431
0.0001389
0.0001345
0.0001298
0.0001248
0.0001197
0.0001144
0.0001091
0.0001038
9.854e-05
9.346e-05
8.855e-05
8.381e-05
7.927e-05
7.491e-05
7.074e-05
6.676e-05
6.299e-05
5.943e-05
5.608e-05
5.294e-05
5.002e-05
4.73e-05
4.478e-05
4.244e-05
4.027e-05
3.825e-05
3.637e-05
3.461e-05
3.296e-05
3.141e-05
2.995e-05
2.857e-05
2.726e-05
2.602e-05
2.484e-05
2.372e-05
2.265e-05
2.162e-05
2.064e-05
1.969e-05
1.879e-05
1.792e-05
1.708e-05
1.627e-05
1.549e-05
1.473e-05
1.4e-05
1.329e-05
1.26e-05
1.193e-05
1.127e-05
1.063e-05
1.001e-05
9.401e-06
8.803e-06
8.216e-06
7.639e-06
7.071e-06
6.511e-06
5.958e-06
5.411e-06
4.87e-06
4.333e-06
3.799e-06
3.267e-06
2.737e-06
2.208e-06
1.676e-06
1.142e-06
6.028e-07
1.28e-07
0.0002118
0.0002138
0.0002151
0.0002155
0.0002153
0.0002146
0.0002136
0.0002125
0.0002115
0.0002104
0.0002094
0.0002084
0.0002075
0.0002067
0.0002058
0.000205
0.0002042
0.0002034
0.0002026
0.0002018
0.000201
0.0002002
0.0001994
0.0001986
0.0001978
0.000197
0.0001961
0.0001953
0.0001944
0.0001935
0.0001926
0.0001917
0.0001907
0.0001897
0.0001887
0.0001877
0.0001866
0.0001854
0.0001842
0.000183
0.0001817
0.0001803
0.0001789
0.0001774
0.0001758
0.0001741
0.0001722
0.0001703
0.0001682
0.0001659
0.0001635
0.0001608
0.0001579
0.0001548
0.0001514
0.0001478
0.0001438
0.0001396
0.000135
0.0001302
0.0001252
0.0001199
0.0001144
0.000109
0.0001035
9.816e-05
9.299e-05
8.801e-05
8.322e-05
7.862e-05
7.422e-05
7.001e-05
6.599e-05
6.219e-05
5.861e-05
5.526e-05
5.213e-05
4.922e-05
4.653e-05
4.405e-05
4.175e-05
3.963e-05
3.766e-05
3.582e-05
3.411e-05
3.25e-05
3.1e-05
2.957e-05
2.823e-05
2.695e-05
2.574e-05
2.458e-05
2.348e-05
2.242e-05
2.141e-05
2.044e-05
1.951e-05
1.862e-05
1.776e-05
1.693e-05
1.613e-05
1.536e-05
1.461e-05
1.389e-05
1.318e-05
1.25e-05
1.184e-05
1.119e-05
1.056e-05
9.94e-06
9.335e-06
8.742e-06
8.16e-06
7.588e-06
7.025e-06
6.47e-06
5.922e-06
5.379e-06
4.843e-06
4.31e-06
3.781e-06
3.254e-06
2.729e-06
2.204e-06
1.677e-06
1.148e-06
6.138e-07
1.38e-07
0.0002095
0.0002113
0.0002126
0.0002132
0.0002132
0.0002127
0.000212
0.0002111
0.0002102
0.0002093
0.0002084
0.0002075
0.0002067
0.0002059
0.0002052
0.0002044
0.0002037
0.0002029
0.0002022
0.0002015
0.0002007
0.0002
0.0001992
0.0001985
0.0001977
0.0001969
0.0001961
0.0001953
0.0001944
0.0001936
0.0001927
0.0001918
0.0001909
0.0001899
0.0001889
0.0001879
0.0001869
0.0001858
0.0001846
0.0001834
0.0001822
0.0001809
0.0001795
0.000178
0.0001765
0.0001748
0.000173
0.0001711
0.0001691
0.0001669
0.0001645
0.0001619
0.000159
0.0001559
0.0001525
0.0001488
0.0001448
0.0001405
0.0001359
0.0001309
0.0001257
0.0001202
0.0001146
0.0001089
0.0001032
9.771e-05
9.241e-05
8.733e-05
8.245e-05
7.778e-05
7.331e-05
6.903e-05
6.496e-05
6.111e-05
5.75e-05
5.413e-05
5.101e-05
4.813e-05
4.547e-05
4.304e-05
4.08e-05
3.873e-05
3.682e-05
3.505e-05
3.34e-05
3.185e-05
3.039e-05
2.902e-05
2.772e-05
2.648e-05
2.53e-05
2.418e-05
2.311e-05
2.208e-05
2.109e-05
2.015e-05
1.924e-05
1.836e-05
1.752e-05
1.671e-05
1.592e-05
1.516e-05
1.443e-05
1.372e-05
1.303e-05
1.236e-05
1.17e-05
1.106e-05
1.044e-05
9.832e-06
9.236e-06
8.652e-06
8.078e-06
7.513e-06
6.957e-06
6.409e-06
5.868e-06
5.332e-06
4.802e-06
4.276e-06
3.753e-06
3.233e-06
2.714e-06
2.195e-06
1.676e-06
1.153e-06
6.258e-07
1.499e-07
0.0002075
0.0002092
0.0002105
0.0002112
0.0002113
0.0002111
0.0002106
0.0002099
0.0002091
0.0002083
0.0002075
0.0002068
0.000206
0.0002053
0.0002046
0.0002039
0.0002032
0.0002025
0.0002018
0.0002011
0.0002004
0.0001997
0.000199
0.0001983
0.0001976
0.0001968
0.0001961
0.0001953
0.0001945
0.0001937
0.0001929
0.000192
0.0001911
0.0001902
0.0001893
0.0001883
0.0001873
0.0001862
0.0001851
0.000184
0.0001828
0.0001815
0.0001802
0.0001788
0.0001773
0.0001758
0.0001741
0.0001722
0.0001703
0.0001681
0.0001658
0.0001633
0.0001604
0.0001573
0.0001539
0.0001502
0.0001461
0.0001417
0.0001369
0.0001318
0.0001264
0.0001207
0.0001147
0.0001088
0.0001029
9.715e-05
9.169e-05
8.648e-05
8.149e-05
7.67e-05
7.212e-05
6.775e-05
6.36e-05
5.97e-05
5.605e-05
5.267e-05
4.956e-05
4.671e-05
4.411e-05
4.174e-05
3.957e-05
3.758e-05
3.575e-05
3.406e-05
3.248e-05
3.1e-05
2.961e-05
2.829e-05
2.705e-05
2.586e-05
2.473e-05
2.364e-05
2.261e-05
2.161e-05
2.066e-05
1.974e-05
1.886e-05
1.801e-05
1.719e-05
1.64e-05
1.564e-05
1.49e-05
1.419e-05
1.349e-05
1.282e-05
1.216e-05
1.152e-05
1.09e-05
1.029e-05
9.692e-06
9.107e-06
8.533e-06
7.97e-06
7.415e-06
6.869e-06
6.33e-06
5.797e-06
5.27e-06
4.748e-06
4.23e-06
3.715e-06
3.203e-06
2.692e-06
2.182e-06
1.671e-06
1.157e-06
6.39e-07
1.636e-07
0.0002058
0.0002074
0.0002087
0.0002094
0.0002097
0.0002096
0.0002093
0.0002087
0.0002081
0.0002074
0.0002067
0.000206
0.0002054
0.0002047
0.000204
0.0002034
0.0002028
0.0002021
0.0002015
0.0002008
0.0002002
0.0001996
0.0001989
0.0001982
0.0001975
0.0001968
0.0001961
0.0001954
0.0001947
0.0001939
0.0001931
0.0001923
0.0001915
0.0001906
0.0001897
0.0001888
0.0001878
0.0001868
0.0001858
0.0001847
0.0001836
0.0001824
0.0001811
0.0001798
0.0001784
0.0001769
0.0001753
0.0001736
0.0001718
0.0001697
0.0001675
0.000165
0.0001623
0.0001592
0.0001558
0.000152
0.0001479
0.0001434
0.0001384
0.0001331
0.0001274
0.0001213
0.000115
0.0001087
0.0001025
9.647e-05
9.08e-05
8.54e-05
8.025e-05
7.532e-05
7.06e-05
6.611e-05
6.186e-05
5.789e-05
5.42e-05
5.082e-05
4.773e-05
4.493e-05
4.241e-05
4.012e-05
3.805e-05
3.617e-05
3.444e-05
3.284e-05
3.135e-05
2.996e-05
2.864e-05
2.74e-05
2.622e-05
2.509e-05
2.401e-05
2.298e-05
2.199e-05
2.104e-05
2.013e-05
1.925e-05
1.84e-05
1.758e-05
1.679e-05
1.603e-05
1.529e-05
1.458e-05
1.389e-05
1.322e-05
1.256e-05
1.192e-05
1.13e-05
1.07e-05
1.01e-05
9.52e-06
8.95e-06
8.39e-06
7.839e-06
7.297e-06
6.762e-06
6.234e-06
5.712e-06
5.195e-06
4.683e-06
4.175e-06
3.67e-06
3.167e-06
2.666e-06
2.165e-06
1.664e-06
1.16e-06
6.53e-07
1.789e-07
0.0002044
0.0002059
0.0002071
0.0002079
0.0002082
0.0002083
0.0002081
0.0002077
0.0002072
0.0002066
0.000206
0.0002054
0.0002048
0.0002042
0.0002036
0.000203
0.0002024
0.0002018
0.0002012
0.0002006
0.0002
0.0001994
0.0001988
0.0001982
0.0001975
0.0001969
0.0001962
0.0001955
0.0001948
0.0001941
0.0001934
0.0001926
0.0001918
0.000191
0.0001902
0.0001893
0.0001884
0.0001875
0.0001865
0.0001855
0.0001845
0.0001834
0.0001822
0.000181
0.0001797
0.0001783
0.0001769
0.0001753
0.0001735
0.0001716
0.0001695
0.0001672
0.0001645
0.0001616
0.0001582
0.0001544
0.0001502
0.0001455
0.0001404
0.0001348
0.0001287
0.0001223
0.0001155
0.0001087
0.000102
9.562e-05
8.965e-05
8.401e-05
7.864e-05
7.35e-05
6.862e-05
6.399e-05
5.964e-05
5.561e-05
5.19e-05
4.853e-05
4.549e-05
4.278e-05
4.036e-05
3.819e-05
3.625e-05
3.449e-05
3.288e-05
3.14e-05
3.002e-05
2.873e-05
2.751e-05
2.635e-05
2.524e-05
2.419e-05
2.317e-05
2.22e-05
2.126e-05
2.036e-05
1.95e-05
1.866e-05
1.785e-05
1.708e-05
1.632e-05
1.559e-05
1.489e-05
1.42e-05
1.354e-05
1.289e-05
1.226e-05
1.165e-05
1.105e-05
1.046e-05
9.885e-06
9.322e-06
8.768e-06
8.224e-06
7.688e-06
7.16e-06
6.638e-06
6.123e-06
5.613e-06
5.108e-06
4.608e-06
4.11e-06
3.616e-06
3.124e-06
2.634e-06
2.144e-06
1.654e-06
1.162e-06
6.678e-07
1.956e-07
0.0002031
0.0002045
0.0002057
0.0002065
0.000207
0.0002071
0.0002071
0.0002068
0.0002064
0.0002059
0.0002054
0.0002049
0.0002043
0.0002038
0.0002032
0.0002026
0.0002021
0.0002015
0.000201
0.0002004
0.0001999
0.0001993
0.0001987
0.0001982
0.0001976
0.000197
0.0001963
0.0001957
0.0001951
0.0001944
0.0001937
0.000193
0.0001923
0.0001916
0.0001908
0.00019
0.0001892
0.0001883
0.0001874
0.0001865
0.0001855
0.0001845
0.0001835
0.0001824
0.0001812
0.00018
0.0001786
0.0001772
0.0001756
0.0001739
0.000172
0.0001698
0.0001673
0.0001645
0.0001612
0.0001575
0.0001532
0.0001484
0.0001431
0.0001371
0.0001306
0.0001236
0.0001162
0.0001087
0.0001014
9.449e-05
8.811e-05
8.212e-05
7.646e-05
7.109e-05
6.602e-05
6.126e-05
5.683e-05
5.276e-05
4.906e-05
4.574e-05
4.28e-05
4.021e-05
3.794e-05
3.593e-05
3.415e-05
3.255e-05
3.109e-05
2.975e-05
2.85e-05
2.733e-05
2.621e-05
2.515e-05
2.413e-05
2.316e-05
2.222e-05
2.131e-05
2.044e-05
1.96e-05
1.878e-05
1.8e-05
1.724e-05
1.65e-05
1.579e-05
1.51e-05
1.443e-05
1.378e-05
1.315e-05
1.253e-05
1.193e-05
1.134e-05
1.076e-05
1.02e-05
9.644e-06
9.1e-06
8.565e-06
8.039e-06
7.52e-06
7.007e-06
6.501e-06
6e-06
5.503e-06
5.012e-06
4.523e-06
4.039e-06
3.556e-06
3.076e-06
2.598e-06
2.12e-06
1.643e-06
1.164e-06
6.832e-07
2.134e-07
0.0002021
0.0002034
0.0002045
0.0002054
0.0002059
0.0002061
0.0002061
0.000206
0.0002057
0.0002053
0.0002049
0.0002044
0.0002039
0.0002034
0.0002029
0.0002024
0.0002018
0.0002013
0.0002008
0.0002003
0.0001998
0.0001993
0.0001987
0.0001982
0.0001976
0.0001971
0.0001965
0.0001959
0.0001953
0.0001947
0.0001941
0.0001935
0.0001928
0.0001921
0.0001914
0.0001907
0.00019
0.0001892
0.0001884
0.0001875
0.0001867
0.0001858
0.0001849
0.0001839
0.0001828
0.0001818
0.0001806
0.0001794
0.000178
0.0001765
0.0001748
0.0001729
0.0001707
0.000168
0.000165
0.0001613
0.0001572
0.0001523
0.0001468
0.0001405
0.0001335
0.0001258
0.0001175
0.0001089
0.0001006
9.286e-05
8.587e-05
7.943e-05
7.343e-05
6.781e-05
6.259e-05
5.775e-05
5.33e-05
4.925e-05
4.562e-05
4.242e-05
3.963e-05
3.722e-05
3.514e-05
3.334e-05
3.177e-05
3.036e-05
2.909e-05
2.791e-05
2.681e-05
2.577e-05
2.478e-05
2.382e-05
2.291e-05
2.202e-05
2.116e-05
2.033e-05
1.953e-05
1.875e-05
1.8e-05
1.727e-05
1.656e-05
1.587e-05
1.521e-05
1.456e-05
1.393e-05
1.332e-05
1.272e-05
1.213e-05
1.156e-05
1.1e-05
1.045e-05
9.911e-06
9.381e-06
8.86e-06
8.345e-06
7.838e-06
7.337e-06
6.842e-06
6.352e-06
5.866e-06
5.385e-06
4.907e-06
4.432e-06
3.961e-06
3.491e-06
3.024e-06
2.559e-06
2.094e-06
1.63e-06
1.165e-06
6.991e-07
2.321e-07
0.0002011
0.0002024
0.0002035
0.0002043
0.0002049
0.0002052
0.0002053
0.0002052
0.000205
0.0002047
0.0002044
0.000204
0.0002035
0.0002031
0.0002026
0.0002021
0.0002016
0.0002012
0.0002007
0.0002002
0.0001997
0.0001992
0.0001988
0.0001983
0.0001978
0.0001972
0.0001967
0.0001962
0.0001956
0.0001951
0.0001945
0.0001939
0.0001934
0.0001927
0.0001921
0.0001915
0.0001908
0.0001901
0.0001894
0.0001887
0.0001879
0.0001872
0.0001863
0.0001855
0.0001846
0.0001837
0.0001828
0.0001818
0.0001806
0.0001794
0.000178
0.0001764
0.0001745
0.0001723
0.0001695
0.0001662
0.0001622
0.0001576
0.0001521
0.0001456
0.000138
0.0001293
0.0001197
0.0001093
9.923e-05
9.018e-05
8.231e-05
7.534e-05
6.906e-05
6.33e-05
5.807e-05
5.328e-05
4.892e-05
4.5e-05
4.154e-05
3.853e-05
3.597e-05
3.381e-05
3.199e-05
3.045e-05
2.912e-05
2.795e-05
2.688e-05
2.59e-05
2.497e-05
2.408e-05
2.322e-05
2.238e-05
2.157e-05
2.079e-05
2.002e-05
1.927e-05
1.855e-05
1.784e-05
1.715e-05
1.648e-05
1.583e-05
1.52e-05
1.458e-05
1.398e-05
1.339e-05
1.282e-05
1.226e-05
1.171e-05
1.117e-05
1.064e-05
1.012e-05
9.608e-06
9.103e-06
8.605e-06
8.113e-06
7.626e-06
7.144e-06
6.667e-06
6.194e-06
5.725e-06
5.259e-06
4.796e-06
4.336e-06
3.878e-06
3.423e-06
2.969e-06
2.517e-06
2.066e-06
1.615e-06
1.165e-06
7.152e-07
2.514e-07
0.0002003
0.0002016
0.0002026
0.0002035
0.0002041
0.0002044
0.0002046
0.0002046
0.0002045
0.0002042
0.0002039
0.0002036
0.0002032
0.0002028
0.0002024
0.0002019
0.0002015
0.000201
0.0002006
0.0002002
0.0001997
0.0001993
0.0001988
0.0001984
0.0001979
0.0001974
0.000197
0.0001965
0.000196
0.0001955
0.000195
0.0001945
0.0001939
0.0001934
0.0001929
0.0001923
0.0001917
0.0001911
0.0001905
0.0001899
0.0001892
0.0001886
0.0001879
0.0001872
0.0001865
0.0001858
0.0001851
0.0001843
0.0001835
0.0001826
0.0001816
0.0001804
0.0001789
0.0001771
0.0001749
0.0001721
0.0001686
0.0001644
0.0001594
0.0001532
0.0001455
0.0001358
0.0001241
0.0001102
9.645e-05
8.513e-05
7.624e-05
6.888e-05
6.263e-05
5.71e-05
5.22e-05
4.773e-05
4.365e-05
4e-05
3.681e-05
3.409e-05
3.184e-05
3e-05
2.851e-05
2.729e-05
2.625e-05
2.535e-05
2.452e-05
2.374e-05
2.3e-05
2.227e-05
2.156e-05
2.086e-05
2.016e-05
1.948e-05
1.881e-05
1.815e-05
1.751e-05
1.688e-05
1.626e-05
1.566e-05
1.507e-05
1.449e-05
1.393e-05
1.338e-05
1.284e-05
1.23e-05
1.178e-05
1.127e-05
1.077e-05
1.027e-05
9.778e-06
9.294e-06
8.815e-06
8.341e-06
7.872e-06
7.407e-06
6.945e-06
6.487e-06
6.032e-06
5.579e-06
5.129e-06
4.682e-06
4.236e-06
3.793e-06
3.351e-06
2.911e-06
2.473e-06
2.036e-06
1.6e-06
1.165e-06
7.313e-07
2.71e-07
0.0001997
0.0002008
0.0002019
0.0002027
0.0002033
0.0002037
0.0002039
0.000204
0.000204
0.0002038
0.0002036
0.0002033
0.0002029
0.0002026
0.0002022
0.0002018
0.0002014
0.000201
0.0002006
0.0002001
0.0001997
0.0001993
0.0001989
0.0001985
0.0001981
0.0001976
0.0001972
0.0001968
0.0001963
0.0001959
0.0001955
0.000195
0.0001945
0.0001941
0.0001936
0.0001931
0.0001926
0.0001921
0.0001916
0.0001911
0.0001906
0.0001901
0.0001896
0.000189
0.0001885
0.000188
0.0001875
0.000187
0.0001864
0.0001859
0.0001853
0.0001846
0.0001837
0.0001825
0.0001809
0.0001788
0.0001762
0.000173
0.0001693
0.0001647
0.0001584
0.0001481
0.000133
0.0001115
9.026e-05
7.584e-05
6.597e-05
5.864e-05
5.343e-05
4.887e-05
4.485e-05
4.111e-05
3.755e-05
3.432e-05
3.151e-05
2.917e-05
2.731e-05
2.587e-05
2.477e-05
2.391e-05
2.321e-05
2.26e-05
2.204e-05
2.149e-05
2.094e-05
2.039e-05
1.983e-05
1.926e-05
1.869e-05
1.813e-05
1.756e-05
1.699e-05
1.644e-05
1.589e-05
1.534e-05
1.481e-05
1.428e-05
1.377e-05
1.326e-05
1.276e-05
1.226e-05
1.178e-05
1.13e-05
1.082e-05
1.035e-05
9.89e-06
9.43e-06
8.975e-06
8.523e-06
8.074e-06
7.628e-06
7.184e-06
6.743e-06
6.304e-06
5.867e-06
5.432e-06
4.998e-06
4.566e-06
4.136e-06
3.707e-06
3.279e-06
2.853e-06
2.429e-06
2.006e-06
1.585e-06
1.165e-06
7.472e-07
2.904e-07
0.0001991
0.0002002
0.0002012
0.0002021
0.0002027
0.0002031
0.0002034
0.0002035
0.0002035
0.0002034
0.0002032
0.000203
0.0002027
0.0002024
0.000202
0.0002017
0.0002013
0.0002009
0.0002005
0.0002001
0.0001998
0.0001994
0.000199
0.0001986
0.0001982
0.0001979
0.0001975
0.0001971
0.0001967
0.0001963
0.0001959
0.0001956
0.0001952
0.0001948
0.0001944
0.000194
0.0001936
0.0001932
0.0001928
0.0001924
0.000192
0.0001916
0.0001912
0.0001908
0.0001905
0.0001902
0.0001899
0.0001896
0.0001894
0.0001893
0.0001891
0.0001889
0.0001886
0.000188
0.0001872
0.000186
0.0001844
0.0001826
0.000181
0.0001791
0.000176
0.0001734
0.0001585
0.0001125
7.636e-05
5.461e-05
4.806e-05
4.61e-05
4.357e-05
3.902e-05
3.631e-05
3.369e-05
3.086e-05
2.818e-05
2.582e-05
2.391e-05
2.249e-05
2.151e-05
2.085e-05
2.041e-05
2.008e-05
1.979e-05
1.95e-05
1.919e-05
1.884e-05
1.847e-05
1.807e-05
1.764e-05
1.72e-05
1.674e-05
1.628e-05
1.582e-05
1.535e-05
1.488e-05
1.442e-05
1.395e-05
1.349e-05
1.304e-05
1.258e-05
1.214e-05
1.169e-05
1.125e-05
1.081e-05
1.038e-05
9.943e-06
9.513e-06
9.084e-06
8.657e-06
8.232e-06
7.808e-06
7.385e-06
6.964e-06
6.543e-06
6.123e-06
5.704e-06
5.286e-06
4.868e-06
4.452e-06
4.036e-06
3.621e-06
3.208e-06
2.795e-06
2.385e-06
1.976e-06
1.569e-06
1.164e-06
7.626e-07
3.095e-07
0.0001986
0.0001997
0.0002007
0.0002015
0.0002021
0.0002026
0.0002029
0.0002031
0.0002031
0.0002031
0.0002029
0.0002027
0.0002025
0.0002022
0.0002019
0.0002016
0.0002012
0.0002009
0.0002005
0.0002002
0.0001998
0.0001995
0.0001991