/*--------------------------------*- C++ -*----------------------------------*\
  =========                 |
  \\      /  F ield         | OpenFOAM: The Open Source CFD Toolbox
   \\    /   O peration     | Website:  https://openfoam.org
    \\  /    A nd           | Version:  7
     \\/     M anipulation  |
\*---------------------------------------------------------------------------*/
FoamFile
{
    version     2.0;
    format      ascii;
    class       surfaceScalarField;
    location    "2039.99947343277609";
    object      phi;
}
// * * * * * * * * * * * * * * * * * * * * * * * * * * * * * * * * * * * * * //

dimensions      [0 3 -1 0 0 0 0];

internalField   nonuniform List<scalar> 
8032
(
6.857e-10
2.518e-10
4.804e-10
2.053e-10
3.48e-10
1.324e-10
2.643e-10
8.373e-11
2.101e-10
5.417e-11
1.737e-10
3.638e-11
1.482e-10
2.552e-11
1.296e-10
1.867e-11
1.154e-10
1.416e-11
1.043e-10
1.106e-11
9.55e-11
8.83e-12
8.833e-11
7.171e-12
8.243e-11
5.899e-12
7.753e-11
4.898e-12
7.344e-11
4.092e-12
7.001e-11
3.433e-12
6.713e-11
2.883e-12
6.471e-11
2.418e-12
6.269e-11
2.019e-12
6.101e-11
1.673e-12
5.965e-11
1.368e-12
5.855e-11
1.096e-12
5.77e-11
8.505e-13
5.707e-11
6.253e-13
5.666e-11
4.16e-13
5.644e-11
2.189e-13
5.641e-11
3.05e-14
5.656e-11
-1.519e-13
5.689e-11
-3.309e-13
5.74e-11
-5.087e-13
5.809e-11
-6.871e-13
5.896e-11
-8.679e-13
6.001e-11
-1.053e-12
6.125e-11
-1.242e-12
6.269e-11
-1.439e-12
6.433e-11
-1.642e-12
6.618e-11
-1.852e-12
6.825e-11
-2.071e-12
7.055e-11
-2.297e-12
7.308e-11
-2.53e-12
7.585e-11
-2.77e-12
7.886e-11
-3.014e-12
8.213e-11
-3.261e-12
8.563e-11
-3.508e-12
8.939e-11
-3.752e-12
9.338e-11
-3.989e-12
9.759e-11
-4.213e-12
1.02e-10
-4.42e-12
1.066e-10
-4.602e-12
1.114e-10
-4.753e-12
1.162e-10
-4.866e-12
1.212e-10
-4.933e-12
1.261e-10
-4.946e-12
1.31e-10
-4.897e-12
1.358e-10
-4.781e-12
1.404e-10
-4.592e-12
1.447e-10
-4.326e-12
1.487e-10
-3.983e-12
1.523e-10
-3.564e-12
1.553e-10
-3.074e-12
1.578e-10
-2.52e-12
1.598e-10
-1.914e-12
1.61e-10
-1.269e-12
1.616e-10
-6.015e-13
1.616e-10
7.304e-14
1.608e-10
7.378e-13
1.594e-10
1.378e-12
1.575e-10
1.979e-12
1.549e-10
2.532e-12
1.519e-10
3.028e-12
1.484e-10
3.461e-12
1.446e-10
3.829e-12
1.405e-10
4.131e-12
1.361e-10
4.368e-12
1.316e-10
4.541e-12
1.269e-10
4.654e-12
1.222e-10
4.711e-12
1.175e-10
4.717e-12
1.128e-10
4.678e-12
1.082e-10
4.598e-12
1.037e-10
4.484e-12
9.939e-11
4.341e-12
9.522e-11
4.175e-12
9.123e-11
3.991e-12
8.743e-11
3.794e-12
8.384e-11
3.588e-12
8.047e-11
3.378e-12
7.73e-11
3.165e-12
7.435e-11
2.954e-12
7.16e-11
2.747e-12
6.905e-11
2.546e-12
6.67e-11
2.352e-12
6.454e-11
2.166e-12
6.255e-11
1.989e-12
6.073e-11
1.822e-12
5.906e-11
1.664e-12
5.754e-11
1.517e-12
5.616e-11
1.38e-12
5.491e-11
1.253e-12
5.378e-11
1.135e-12
5.275e-11
1.027e-12
5.182e-11
9.271e-13
5.099e-11
8.355e-13
5.023e-11
7.518e-13
4.956e-11
6.753e-13
4.895e-11
6.057e-13
4.841e-11
5.424e-13
4.793e-11
4.85e-13
4.749e-11
4.33e-13
4.711e-11
3.86e-13
4.676e-11
3.437e-13
4.646e-11
3.057e-13
4.619e-11
2.716e-13
4.594e-11
2.413e-13
4.573e-11
2.144e-13
4.554e-11
1.907e-13
4.537e-11
1.703e-13
4.522e-11
1.529e-13
4.508e-11
1.386e-13
4.495e-11
1.275e-13
4.483e-11
1.2e-13
4.471e-11
1.165e-13
4.46e-11
1.182e-13
4.447e-11
1.269e-13
4.432e-11
1.464e-13
4.414e-11
1.827e-13
4.39e-11
2.427e-13
3.155e-13
9.523e-10
2.37e-10
8.501e-10
3.075e-10
7.275e-10
2.55e-10
6.182e-10
1.929e-10
5.293e-10
1.431e-10
4.592e-10
1.065e-10
4.041e-10
8.062e-11
3.605e-10
6.224e-11
3.256e-10
4.902e-11
2.974e-10
3.93e-11
2.743e-10
3.197e-11
2.551e-10
2.633e-11
2.391e-10
2.188e-11
2.257e-10
1.831e-11
2.144e-10
1.54e-11
2.049e-10
1.298e-11
1.968e-10
1.095e-11
1.9e-10
9.215e-12
1.843e-10
7.72e-12
1.796e-10
6.413e-12
1.757e-10
5.258e-12
1.725e-10
4.224e-12
1.701e-10
3.285e-12
1.683e-10
2.424e-12
1.671e-10
1.622e-12
1.665e-10
8.654e-13
1.663e-10
1.423e-13
1.667e-10
-5.578e-13
1.677e-10
-1.244e-12
1.691e-10
-1.925e-12
1.71e-10
-2.607e-12
1.734e-10
-3.298e-12
1.764e-10
-4.001e-12
1.799e-10
-4.722e-12
1.839e-10
-5.464e-12
1.885e-10
-6.231e-12
1.936e-10
-7.024e-12
1.994e-10
-7.843e-12
2.058e-10
-8.689e-12
2.128e-10
-9.558e-12
2.205e-10
-1.045e-11
2.288e-10
-1.135e-11
2.378e-10
-1.226e-11
2.475e-10
-1.317e-11
2.578e-10
-1.406e-11
2.688e-10
-1.492e-11
2.803e-10
-1.573e-11
2.923e-10
-1.647e-11
3.048e-10
-1.712e-11
3.177e-10
-1.765e-11
3.309e-10
-1.803e-11
3.442e-10
-1.825e-11
3.575e-10
-1.826e-11
3.707e-10
-1.806e-11
3.835e-10
-1.76e-11
3.958e-10
-1.688e-11
4.074e-10
-1.588e-11
4.18e-10
-1.461e-11
4.275e-10
-1.307e-11
4.357e-10
-1.127e-11
4.424e-10
-9.241e-12
4.475e-10
-7.029e-12
4.509e-10
-4.679e-12
4.526e-10
-2.246e-12
4.524e-10
2.127e-13
4.505e-10
2.638e-12
4.469e-10
4.978e-12
4.417e-10
7.184e-12
4.35e-10
9.218e-12
4.27e-10
1.105e-11
4.178e-10
1.266e-11
4.076e-10
1.404e-11
3.966e-10
1.517e-11
3.849e-10
1.607e-11
3.727e-10
1.674e-11
3.601e-10
1.719e-11
3.474e-10
1.744e-11
3.346e-10
1.749e-11
3.219e-10
1.738e-11
3.094e-10
1.711e-11
2.972e-10
1.672e-11
2.853e-10
1.622e-11
2.738e-10
1.563e-11
2.629e-10
1.497e-11
2.524e-10
1.426e-11
2.425e-10
1.351e-11
2.331e-10
1.274e-11
2.243e-10
1.196e-11
2.161e-10
1.119e-11
2.084e-10
1.042e-11
2.013e-10
9.674e-12
1.947e-10
8.952e-12
1.886e-10
8.26e-12
1.83e-10
7.599e-12
1.778e-10
6.973e-12
1.731e-10
6.383e-12
1.688e-10
5.83e-12
1.649e-10
5.313e-12
1.613e-10
4.832e-12
1.58e-10
4.386e-12
1.551e-10
3.974e-12
1.524e-10
3.595e-12
1.5e-10
3.246e-12
1.478e-10
2.926e-12
1.459e-10
2.634e-12
1.441e-10
2.367e-12
1.425e-10
2.124e-12
1.411e-10
1.903e-12
1.399e-10
1.703e-12
1.387e-10
1.522e-12
1.377e-10
1.358e-12
1.368e-10
1.211e-12
1.36e-10
1.079e-12
1.353e-10
9.609e-13
1.346e-10
8.562e-13
1.341e-10
7.641e-13
1.335e-10
6.84e-13
1.331e-10
6.156e-13
1.327e-10
5.59e-13
1.323e-10
5.143e-13
1.319e-10
4.824e-13
1.316e-10
4.645e-13
1.312e-10
4.628e-13
1.309e-10
4.805e-13
1.305e-10
5.223e-13
1.301e-10
5.938e-13
1.296e-10
6.938e-13
7.881e-13
9.779e-10
1.966e-10
9.637e-10
3.217e-10
9.013e-10
3.175e-10
8.211e-10
2.731e-10
7.408e-10
2.234e-10
6.678e-10
1.796e-10
6.044e-10
1.441e-10
5.504e-10
1.162e-10
5.048e-10
9.461e-11
4.663e-10
7.774e-11
4.339e-10
6.443e-11
4.064e-10
5.382e-11
3.831e-10
4.523e-11
3.632e-10
3.818e-11
3.462e-10
3.233e-11
3.318e-10
2.741e-11
3.195e-10
2.323e-11
3.091e-10
1.963e-11
3.003e-10
1.65e-11
2.93e-10
1.374e-11
2.87e-10
1.129e-11
2.821e-10
9.089e-12
2.783e-10
7.083e-12
2.755e-10
5.234e-12
2.736e-10
3.509e-12
2.726e-10
1.879e-12
2.724e-10
3.179e-13
2.731e-10
-1.195e-12
2.745e-10
-2.678e-12
2.767e-10
-4.149e-12
2.797e-10
-5.622e-12
2.836e-10
-7.11e-12
2.882e-10
-8.625e-12
2.936e-10
-1.018e-11
2.999e-10
-1.177e-11
3.071e-10
-1.341e-11
3.152e-10
-1.511e-11
3.242e-10
-1.686e-11
3.342e-10
-1.866e-11
3.452e-10
-2.051e-11
3.571e-10
-2.24e-11
3.701e-10
-2.431e-11
3.84e-10
-2.624e-11
3.99e-10
-2.815e-11
4.15e-10
-3.002e-11
4.319e-10
-3.182e-11
4.497e-10
-3.351e-11
4.682e-10
-3.505e-11
4.875e-10
-3.639e-11
5.073e-10
-3.748e-11
5.276e-10
-3.826e-11
5.48e-10
-3.868e-11
5.684e-10
-3.868e-11
5.886e-10
-3.82e-11
6.082e-10
-3.721e-11
6.27e-10
-3.567e-11
6.446e-10
-3.355e-11
6.609e-10
-3.084e-11
6.754e-10
-2.758e-11
6.879e-10
-2.378e-11
6.982e-10
-1.951e-11
7.06e-10
-1.486e-11
7.112e-10
-9.915e-12
7.138e-10
-4.798e-12
7.136e-10
3.726e-13
7.108e-10
5.478e-12
7.053e-10
1.041e-11
6.975e-10
1.506e-11
6.873e-10
1.936e-11
6.751e-10
2.324e-11
6.611e-10
2.666e-11
6.456e-10
2.96e-11
6.287e-10
3.203e-11
6.108e-10
3.397e-11
5.921e-10
3.542e-11
5.729e-10
3.641e-11
5.534e-10
3.697e-11
5.337e-10
3.713e-11
5.142e-10
3.693e-11
4.949e-10
3.641e-11
4.76e-10
3.561e-11
4.576e-10
3.458e-11
4.399e-10
3.336e-11
4.229e-10
3.199e-11
4.066e-10
3.051e-11
3.912e-10
2.894e-11
3.766e-10
2.733e-11
3.629e-10
2.569e-11
3.5e-10
2.405e-11
3.38e-10
2.243e-11
3.268e-10
2.085e-11
3.165e-10
1.932e-11
3.069e-10
1.785e-11
2.98e-10
1.644e-11
2.899e-10
1.511e-11
2.824e-10
1.384e-11
2.756e-10
1.266e-11
2.694e-10
1.155e-11
2.637e-10
1.052e-11
2.585e-10
9.561e-12
2.538e-10
8.674e-12
2.495e-10
7.856e-12
2.457e-10
7.103e-12
2.422e-10
6.412e-12
2.39e-10
5.779e-12
2.362e-10
5.201e-12
2.337e-10
4.673e-12
2.314e-10
4.194e-12
2.293e-10
3.758e-12
2.275e-10
3.364e-12
2.258e-10
3.007e-12
2.244e-10
2.686e-12
2.23e-10
2.397e-12
2.219e-10
2.139e-12
2.208e-10
1.909e-12
2.199e-10
1.707e-12
2.19e-10
1.53e-12
2.183e-10
1.378e-12
2.176e-10
1.251e-12
2.169e-10
1.149e-12
2.163e-10
1.073e-12
2.158e-10
1.024e-12
2.152e-10
1.005e-12
2.147e-10
1.019e-12
2.142e-10
1.067e-12
2.136e-10
1.151e-12
2.13e-10
1.259e-12
1.347e-12
9.752e-10
1.589e-10
9.93e-10
3.039e-10
9.727e-10
3.377e-10
9.268e-10
3.191e-10
8.688e-10
2.813e-10
8.082e-10
2.402e-10
7.5e-10
2.023e-10
6.966e-10
1.696e-10
6.49e-10
1.422e-10
6.071e-10
1.196e-10
5.705e-10
1.01e-10
5.387e-10
8.565e-11
5.111e-10
7.283e-11
4.872e-10
6.208e-11
4.665e-10
5.298e-11
4.487e-10
4.521e-11
4.334e-10
3.851e-11
4.204e-10
3.269e-11
4.093e-10
2.757e-11
4e-10
2.304e-11
3.923e-10
1.897e-11
3.861e-10
1.53e-11
3.813e-10
1.194e-11
3.777e-10
8.824e-12
3.753e-10
5.909e-12
3.74e-10
3.147e-12
3.738e-10
4.973e-13
3.747e-10
-2.075e-12
3.766e-10
-4.599e-12
3.796e-10
-7.104e-12
3.836e-10
-9.612e-12
3.886e-10
-1.215e-11
3.947e-10
-1.472e-11
4.019e-10
-1.736e-11
4.102e-10
-2.006e-11
4.196e-10
-2.285e-11
4.302e-10
-2.572e-11
4.421e-10
-2.868e-11
4.551e-10
-3.172e-11
4.694e-10
-3.483e-11
4.85e-10
-3.801e-11
5.019e-10
-4.122e-11
5.202e-10
-4.444e-11
5.396e-10
-4.764e-11
5.604e-10
-5.076e-11
5.823e-10
-5.376e-11
6.054e-10
-5.657e-11
6.295e-10
-5.913e-11
6.544e-10
-6.134e-11
6.801e-10
-6.313e-11
7.062e-10
-6.439e-11
7.326e-10
-6.505e-11
7.589e-10
-6.501e-11
7.849e-10
-6.418e-11
8.101e-10
-6.248e-11
8.343e-10
-5.987e-11
8.571e-10
-5.629e-11
8.78e-10
-5.175e-11
8.967e-10
-4.626e-11
9.128e-10
-3.99e-11
9.26e-10
-3.275e-11
9.361e-10
-2.496e-11
9.429e-10
-1.669e-11
9.462e-10
-8.129e-12
9.461e-10
5.253e-13
9.425e-10
9.074e-12
9.356e-10
1.733e-11
9.255e-10
2.514e-11
9.125e-10
3.235e-11
8.969e-10
3.888e-11
8.789e-10
4.464e-11
8.589e-10
4.959e-11
8.372e-10
5.371e-11
8.142e-10
5.7e-11
7.902e-10
5.948e-11
7.654e-10
6.12e-11
7.401e-10
6.219e-11
7.148e-10
6.251e-11
6.895e-10
6.222e-11
6.645e-10
6.14e-11
6.4e-10
6.012e-11
6.161e-10
5.844e-11
5.931e-10
5.643e-11
5.709e-10
5.416e-11
5.497e-10
5.17e-11
5.295e-10
4.909e-11
5.105e-10
4.64e-11
4.925e-10
4.366e-11
4.756e-10
4.092e-11
4.599e-10
3.821e-11
4.452e-10
3.555e-11
4.315e-10
3.297e-11
4.189e-10
3.049e-11
4.072e-10
2.812e-11
3.964e-10
2.586e-11
3.866e-10
2.373e-11
3.775e-10
2.172e-11
3.692e-10
1.984e-11
3.617e-10
1.809e-11
3.548e-10
1.646e-11
3.485e-10
1.495e-11
3.428e-10
1.355e-11
3.376e-10
1.227e-11
3.33e-10
1.108e-11
3.287e-10
1e-11
3.249e-10
9.012e-12
3.215e-10
8.109e-12
3.184e-10
7.285e-12
3.156e-10
6.537e-12
3.131e-10
5.858e-12
3.109e-10
5.244e-12
3.089e-10
4.69e-12
3.071e-10
4.191e-12
3.055e-10
3.745e-12
3.04e-10
3.347e-12
3.027e-10
2.995e-12
3.016e-10
2.687e-12
3.005e-10
2.421e-12
2.996e-10
2.196e-12
2.987e-10
2.012e-12
2.979e-10
1.869e-12
2.972e-10
1.769e-12
2.965e-10
1.713e-12
2.958e-10
1.702e-12
2.951e-10
1.735e-12
2.945e-10
1.808e-12
2.938e-10
1.903e-12
1.976e-12
9.668e-10
1.296e-10
9.944e-10
2.762e-10
9.978e-10
3.343e-10
9.779e-10
3.389e-10
9.423e-10
3.169e-10
8.983e-10
2.842e-10
8.513e-10
2.492e-10
8.049e-10
2.16e-10
7.61e-10
1.861e-10
7.206e-10
1.601e-10
6.841e-10
1.376e-10
6.513e-10
1.184e-10
6.223e-10
1.019e-10
5.966e-10
8.771e-11
5.742e-10
7.547e-11
5.545e-10
6.484e-11
5.375e-10
5.555e-11
5.228e-10
4.737e-11
5.103e-10
4.011e-11
4.997e-10
3.362e-11
4.909e-10
2.775e-11
4.838e-10
2.241e-11
4.782e-10
1.75e-11
4.741e-10
1.293e-11
4.714e-10
8.628e-12
4.7e-10
4.539e-12
4.699e-10
6.061e-13
4.711e-10
-3.22e-12
4.734e-10
-6.981e-12
4.77e-10
-1.072e-11
4.819e-10
-1.446e-11
4.88e-10
-1.824e-11
4.953e-10
-2.208e-11
5.04e-10
-2.601e-11
5.14e-10
-3.004e-11
5.253e-10
-3.419e-11
5.381e-10
-3.846e-11
5.522e-10
-4.285e-11
5.679e-10
-4.736e-11
5.85e-10
-5.197e-11
6.037e-10
-5.666e-11
6.238e-10
-6.141e-11
6.456e-10
-6.617e-11
6.688e-10
-7.087e-11
6.935e-10
-7.547e-11
7.196e-10
-7.988e-11
7.471e-10
-8.4e-11
7.757e-10
-8.774e-11
8.053e-10
-9.097e-11
8.358e-10
-9.357e-11
8.668e-10
-9.541e-11
8.981e-10
-9.635e-11
9.293e-10
-9.625e-11
9.601e-10
-9.499e-11
9.901e-10
-9.246e-11
1.019e-09
-8.857e-11
1.046e-09
-8.328e-11
1.071e-09
-7.656e-11
1.093e-09
-6.845e-11
1.112e-09
-5.905e-11
1.128e-09
-4.849e-11
1.14e-09
-3.698e-11
1.148e-09
-2.477e-11
1.152e-09
-1.212e-11
1.152e-09
6.662e-13
1.147e-09
1.33e-11
1.139e-09
2.55e-11
1.127e-09
3.703e-11
1.112e-09
4.77e-11
1.093e-09
5.736e-11
1.072e-09
6.589e-11
1.049e-09
7.324e-11
1.023e-09
7.936e-11
9.956e-10
8.428e-11
9.671e-10
8.8e-11
9.377e-10
9.059e-11
9.078e-10
9.211e-11
8.777e-10
9.264e-11
8.476e-10
9.228e-11
8.179e-10
9.113e-11
7.887e-10
8.928e-11
7.603e-10
8.685e-11
7.328e-10
8.393e-11
7.064e-10
8.061e-11
6.811e-10
7.701e-11
6.57e-10
7.319e-11
6.341e-10
6.923e-11
6.126e-10
6.52e-11
5.924e-10
6.115e-11
5.734e-10
5.715e-11
5.558e-10
5.322e-11
5.393e-10
4.941e-11
5.241e-10
4.573e-11
5.1e-10
4.221e-11
4.97e-10
3.885e-11
4.85e-10
3.568e-11
4.741e-10
3.269e-11
4.64e-10
2.989e-11
4.548e-10
2.728e-11
4.464e-10
2.484e-11
4.388e-10
2.258e-11
4.319e-10
2.05e-11
4.256e-10
1.857e-11
4.198e-10
1.68e-11
4.147e-10
1.517e-11
4.1e-10
1.369e-11
4.058e-10
1.233e-11
4.02e-10
1.109e-11
3.985e-10
9.959e-12
3.955e-10
8.935e-12
3.927e-10
8.007e-12
3.902e-10
7.169e-12
3.88e-10
6.414e-12
3.86e-10
5.737e-12
3.842e-10
5.132e-12
3.826e-10
4.596e-12
3.812e-10
4.124e-12
3.799e-10
3.715e-12
3.787e-10
3.366e-12
3.777e-10
3.075e-12
3.767e-10
2.843e-12
3.758e-10
2.67e-12
3.749e-10
2.555e-12
3.741e-10
2.498e-12
3.734e-10
2.496e-12
3.727e-10
2.539e-12
3.72e-10
2.608e-12
2.662e-12
9.592e-10
1.08e-10
9.875e-10
2.479e-10
1.003e-09
3.192e-10
1e-09
3.416e-10
9.822e-10
3.347e-10
9.54e-10
3.124e-10
9.198e-10
2.835e-10
8.829e-10
2.528e-10
8.458e-10
2.232e-10
8.1e-10
1.959e-10
7.764e-10
1.713e-10
7.453e-10
1.494e-10
7.171e-10
1.301e-10
6.916e-10
1.131e-10
6.689e-10
9.816e-11
6.489e-10
8.492e-11
6.312e-10
7.318e-11
6.159e-10
6.27e-11
6.027e-10
5.331e-11
5.915e-10
4.482e-11
5.822e-10
3.709e-11
5.746e-10
2.999e-11
5.687e-10
2.342e-11
5.643e-10
1.727e-11
5.615e-10
1.146e-11
5.601e-10
5.919e-12
5.601e-10
5.661e-13
5.616e-10
-4.654e-12
5.644e-10
-9.795e-12
5.686e-10
-1.491e-11
5.742e-10
-2.004e-11
5.811e-10
-2.522e-11
5.895e-10
-3.049e-11
5.994e-10
-3.587e-11
6.108e-10
-4.14e-11
6.236e-10
-4.707e-11
6.381e-10
-5.291e-11
6.542e-10
-5.892e-11
6.719e-10
-6.508e-11
6.913e-10
-7.137e-11
7.124e-10
-7.778e-11
7.352e-10
-8.424e-11
7.598e-10
-9.072e-11
7.86e-10
-9.712e-11
8.139e-10
-1.034e-10
8.434e-10
-1.094e-10
8.744e-10
-1.15e-10
9.066e-10
-1.2e-10
9.401e-10
-1.244e-10
9.744e-10
-1.279e-10
1.009e-09
-1.304e-10
1.045e-09
-1.317e-10
1.08e-09
-1.315e-10
1.115e-09
-1.298e-10
1.149e-09
-1.263e-10
1.181e-09
-1.21e-10
1.212e-09
-1.138e-10
1.24e-09
-1.046e-10
1.265e-09
-9.358e-11
1.287e-09
-8.075e-11
1.304e-09
-6.634e-11
1.318e-09
-5.062e-11
1.327e-09
-3.393e-11
1.332e-09
-1.666e-11
1.332e-09
8.077e-13
1.327e-09
1.806e-11
1.318e-09
3.472e-11
1.304e-09
5.047e-11
1.287e-09
6.504e-11
1.266e-09
7.822e-11
1.242e-09
8.988e-11
1.215e-09
9.992e-11
1.186e-09
1.083e-10
1.156e-09
1.15e-10
1.123e-09
1.202e-10
1.09e-09
1.237e-10
1.057e-09
1.259e-10
1.023e-09
1.266e-10
9.886e-10
1.262e-10
9.55e-10
1.247e-10
9.221e-10
1.222e-10
8.9e-10
1.19e-10
8.589e-10
1.15e-10
8.29e-10
1.105e-10
8.003e-10
1.057e-10
7.73e-10
1.005e-10
7.471e-10
9.51e-11
7.227e-10
8.963e-11
6.997e-10
8.413e-11
6.782e-10
7.867e-11
6.581e-10
7.332e-11
6.394e-10
6.811e-11
6.22e-10
6.309e-11
6.06e-10
5.827e-11
5.911e-10
5.369e-11
5.775e-10
4.934e-11
5.649e-10
4.525e-11
5.534e-10
4.141e-11
5.429e-10
3.781e-11
5.332e-10
3.447e-11
5.245e-10
3.136e-11
5.165e-10
2.849e-11
5.092e-10
2.583e-11
5.026e-10
2.339e-11
4.966e-10
2.115e-11
4.912e-10
1.909e-11
4.864e-10
1.721e-11
4.819e-10
1.549e-11
4.78e-10
1.393e-11
4.744e-10
1.251e-11
4.712e-10
1.122e-11
4.683e-10
1.006e-11
4.657e-10
9.006e-12
4.634e-10
8.062e-12
4.613e-10
7.217e-12
4.594e-10
6.466e-12
4.577e-10
5.804e-12
4.562e-10
5.225e-12
4.549e-10
4.728e-12
4.536e-10
4.309e-12
4.525e-10
3.966e-12
4.515e-10
3.699e-12
4.505e-10
3.506e-12
4.497e-10
3.383e-12
4.488e-10
3.327e-12
4.48e-10
3.325e-12
4.473e-10
3.358e-12
3.391e-12
9.536e-10
9.186e-11
9.794e-10
2.221e-10
9.995e-10
2.992e-10
1.007e-09
3.338e-10
1.002e-09
3.395e-10
9.873e-10
3.276e-10
9.648e-10
3.059e-10
9.379e-10
2.798e-10
9.088e-10
2.523e-10
8.791e-10
2.255e-10
8.501e-10
2.003e-10
8.224e-10
1.771e-10
7.966e-10
1.56e-10
7.728e-10
1.369e-10
7.513e-10
1.197e-10
7.319e-10
1.043e-10
7.146e-10
9.041e-11
6.995e-10
7.784e-11
6.864e-10
6.644e-11
6.752e-10
5.603e-11
6.658e-10
4.646e-11
6.582e-10
3.762e-11
6.522e-10
2.937e-11
6.479e-10
2.16e-11
6.451e-10
1.423e-11
6.439e-10
7.154e-12
6.442e-10
3.039e-13
6.459e-10
-6.396e-12
6.491e-10
-1.301e-11
6.538e-10
-1.96e-11
6.6e-10
-2.622e-11
6.677e-10
-3.291e-11
6.769e-10
-3.972e-11
6.877e-10
-4.668e-11
7.001e-10
-5.381e-11
7.142e-10
-6.115e-11
7.3e-10
-6.869e-11
7.475e-10
-7.644e-11
7.668e-10
-8.438e-11
7.879e-10
-9.25e-11
8.109e-10
-1.008e-10
8.358e-10
-1.091e-10
8.625e-10
-1.174e-10
8.91e-10
-1.257e-10
9.214e-10
-1.337e-10
9.534e-10
-1.414e-10
9.871e-10
-1.486e-10
1.022e-09
-1.551e-10
1.059e-09
-1.608e-10
1.096e-09
-1.653e-10
1.134e-09
-1.685e-10
1.173e-09
-1.702e-10
1.211e-09
-1.7e-10
1.249e-09
-1.678e-10
1.286e-09
-1.634e-10
1.322e-09
-1.566e-10
1.355e-09
-1.473e-10
1.386e-09
-1.355e-10
1.414e-09
-1.212e-10
1.438e-09
-1.046e-10
1.457e-09
-8.597e-11
1.472e-09
-6.562e-11
1.482e-09
-4.401e-11
1.487e-09
-2.164e-11
1.487e-09
9.761e-13
1.482e-09
2.33e-11
1.472e-09
4.485e-11
1.457e-09
6.521e-11
1.438e-09
8.404e-11
1.415e-09
1.011e-10
1.389e-09
1.161e-10
1.36e-09
1.291e-10
1.328e-09
1.399e-10
1.294e-09
1.486e-10
1.259e-09
1.553e-10
1.223e-09
1.599e-10
1.186e-09
1.627e-10
1.149e-09
1.637e-10
1.112e-09
1.632e-10
1.076e-09
1.613e-10
1.04e-09
1.581e-10
1.005e-09
1.54e-10
9.71e-10
1.489e-10
9.384e-10
1.432e-10
9.071e-10
1.369e-10
8.773e-10
1.302e-10
8.491e-10
1.233e-10
8.224e-10
1.163e-10
7.973e-10
1.092e-10
7.738e-10
1.022e-10
7.519e-10
9.529e-11
7.314e-10
8.858e-11
7.124e-10
8.21e-11
6.948e-10
7.588e-11
6.785e-10
6.995e-11
6.635e-10
6.434e-11
6.497e-10
5.904e-11
6.371e-10
5.406e-11
6.255e-10
4.941e-11
6.149e-10
4.507e-11
6.052e-10
4.104e-11
5.964e-10
3.73e-11
5.884e-10
3.386e-11
5.811e-10
3.068e-11
5.745e-10
2.776e-11
5.685e-10
2.508e-11
5.631e-10
2.263e-11
5.582e-10
2.039e-11
5.538e-10
1.835e-11
5.498e-10
1.649e-11
5.462e-10
1.48e-11
5.43e-10
1.328e-11
5.401e-10
1.19e-11
5.375e-10
1.066e-11
5.352e-10
9.548e-12
5.331e-10
8.558e-12
5.312e-10
7.681e-12
5.295e-10
6.912e-12
5.28e-10
6.246e-12
5.266e-10
5.678e-12
5.254e-10
5.207e-12
5.242e-10
4.827e-12
5.232e-10
4.538e-12
5.223e-10
4.333e-12
5.214e-10
4.207e-12
5.206e-10
4.149e-12
5.198e-10
4.138e-12
4.148e-12
9.498e-10
7.96e-11
9.724e-10
1.994e-10
9.937e-10
2.778e-10
1.007e-09
3.202e-10
1.011e-09
3.356e-10
1.006e-09
3.328e-10
9.936e-10
3.184e-10
9.758e-10
2.975e-10
9.547e-10
2.735e-10
9.317e-10
2.485e-10
9.081e-10
2.239e-10
8.849e-10
2.003e-10
8.625e-10
1.783e-10
8.414e-10
1.58e-10
8.219e-10
1.393e-10
8.041e-10
1.221e-10
7.88e-10
1.064e-10
7.738e-10
9.208e-11
7.614e-10
7.889e-11
7.507e-10
6.672e-11
7.417e-10
5.544e-11
7.344e-10
4.492e-11
7.287e-10
3.504e-11
7.246e-10
2.568e-11
7.221e-10
1.674e-11
7.211e-10
8.131e-12
7.217e-10
-2.412e-13
7.237e-10
-8.456e-12
7.273e-10
-1.659e-11
7.324e-10
-2.471e-11
7.391e-10
-3.287e-11
7.473e-10
-4.114e-11
7.571e-10
-4.955e-11
7.686e-10
-5.815e-11
7.818e-10
-6.698e-11
7.967e-10
-7.605e-11
8.134e-10
-8.538e-11
8.319e-10
-9.496e-11
8.523e-10
-1.048e-10
8.746e-10
-1.148e-10
8.989e-10
-1.25e-10
9.251e-10
-1.353e-10
9.534e-10
-1.456e-10
9.835e-10
-1.558e-10
1.016e-09
-1.658e-10
1.049e-09
-1.753e-10
1.085e-09
-1.842e-10
1.122e-09
-1.923e-10
1.161e-09
-1.994e-10
1.201e-09
-2.05e-10
1.241e-09
-2.091e-10
1.282e-09
-2.111e-10
1.323e-09
-2.11e-10
1.364e-09
-2.084e-10
1.403e-09
-2.03e-10
1.441e-09
-1.946e-10
1.477e-09
-1.831e-10
1.51e-09
-1.685e-10
1.54e-09
-1.509e-10
1.566e-09
-1.303e-10
1.587e-09
-1.071e-10
1.603e-09
-8.177e-11
1.614e-09
-5.485e-11
1.619e-09
-2.696e-11
1.619e-09
1.21e-12
1.613e-09
2.9e-11
1.602e-09
5.58e-11
1.586e-09
8.109e-11
1.566e-09
1.044e-10
1.541e-09
1.255e-10
1.513e-09
1.442e-10
1.482e-09
1.602e-10
1.448e-09
1.736e-10
1.413e-09
1.844e-10
1.375e-09
1.926e-10
1.337e-09
1.984e-10
1.298e-09
2.018e-10
1.258e-09
2.031e-10
1.219e-09
2.025e-10
1.18e-09
2.001e-10
1.142e-09
1.962e-10
1.105e-09
1.911e-10
1.069e-09
1.849e-10
1.034e-09
1.778e-10
1.001e-09
1.7e-10
9.697e-10
1.618e-10
9.398e-10
1.533e-10
9.116e-10
1.446e-10
8.85e-10
1.358e-10
8.6e-10
1.271e-10
8.367e-10
1.186e-10
8.15e-10
1.103e-10
7.948e-10
1.023e-10
7.762e-10
9.457e-11
7.589e-10
8.723e-11
7.429e-10
8.027e-11
7.283e-10
7.37e-11
7.148e-10
6.753e-11
7.025e-10
6.175e-11
6.912e-10
5.637e-11
6.808e-10
5.136e-11
6.714e-10
4.672e-11
6.629e-10
4.243e-11
6.551e-10
3.847e-11
6.48e-10
3.483e-11
6.416e-10
3.149e-11
6.358e-10
2.843e-11
6.305e-10
2.564e-11
6.258e-10
2.309e-11
6.215e-10
2.077e-11
6.176e-10
1.866e-11
6.142e-10
1.675e-11
6.111e-10
1.502e-11
6.083e-10
1.346e-11
6.057e-10
1.206e-11
6.035e-10
1.082e-11
6.015e-10
9.707e-12
5.996e-10
8.73e-12
5.98e-10
7.879e-12
5.965e-10
7.148e-12
5.952e-10
6.531e-12
5.94e-10
6.025e-12
5.929e-10
5.625e-12
5.919e-10
5.326e-12
5.91e-10
5.119e-12
5.902e-10
4.994e-12
5.894e-10
4.936e-12
4.92e-12
9.471e-10
6.996e-11
9.668e-10
1.798e-10
9.877e-10
2.569e-10
1.004e-09
3.036e-10
1.014e-09
3.26e-10
1.016e-09
3.306e-10
1.011e-09
3.23e-10
1.001e-09
3.075e-10
9.877e-10
2.873e-10
9.712e-10
2.649e-10
9.533e-10
2.418e-10
9.348e-10
2.188e-10
9.165e-10
1.967e-10
8.987e-10
1.757e-10
8.819e-10
1.561e-10
8.662e-10
1.377e-10
8.52e-10
1.207e-10
8.392e-10
1.049e-10
8.279e-10
9.018e-11
8.181e-10
7.648e-11
8.099e-10
6.365e-11
8.032e-10
5.159e-11
7.981e-10
4.018e-11
7.945e-10
2.931e-11
7.923e-10
1.887e-11
7.917e-10
8.759e-12
7.926e-10
-1.111e-12
7.95e-10
-1.083e-11
7.988e-10
-2.048e-11
8.043e-10
-3.013e-11
8.112e-10
-3.985e-11
8.198e-10
-4.971e-11
8.3e-10
-5.976e-11
8.419e-10
-7.004e-11
8.555e-10
-8.059e-11
8.709e-10
-9.143e-11
8.881e-10
-1.026e-10
9.072e-10
-1.141e-10
9.282e-10
-1.258e-10
9.512e-10
-1.378e-10
9.762e-10
-1.5e-10
1.003e-09
-1.624e-10
1.032e-09
-1.747e-10
1.063e-09
-1.869e-10
1.097e-09
-1.989e-10
1.132e-09
-2.103e-10
1.168e-09
-2.211e-10
1.207e-09
-2.309e-10
1.247e-09
-2.394e-10
1.288e-09
-2.463e-10
1.33e-09
-2.512e-10
1.373e-09
-2.539e-10
1.416e-09
-2.538e-10
1.458e-09
-2.508e-10
1.5e-09
-2.445e-10
1.54e-09
-2.346e-10
1.578e-09
-2.209e-10
1.613e-09
-2.035e-10
1.644e-09
-1.822e-10
1.671e-09
-1.574e-10
1.693e-09
-1.295e-10
1.711e-09
-9.886e-11
1.722e-09
-6.627e-11
1.728e-09
-3.252e-11
1.727e-09
1.562e-12
1.721e-09
3.515e-11
1.709e-09
6.749e-11
1.692e-09
9.795e-11
1.671e-09
1.26e-10
1.645e-09
1.514e-10
1.616e-09
1.737e-10
1.583e-09
1.929e-10
1.548e-09
2.089e-10
1.51e-09
2.218e-10
1.471e-09
2.316e-10
1.431e-09
2.385e-10
1.39e-09
2.426e-10
1.349e-09
2.441e-10
1.308e-09
2.433e-10
1.268e-09
2.404e-10
1.229e-09
2.358e-10
1.19e-09
2.296e-10
1.153e-09
2.221e-10
1.117e-09
2.136e-10
1.083e-09
2.043e-10
1.05e-09
1.944e-10
1.019e-09
1.842e-10
9.899e-10
1.738e-10
9.624e-10
1.633e-10
9.366e-10
1.529e-10
9.126e-10
1.427e-10
8.901e-10
1.327e-10
8.693e-10
1.231e-10
8.499e-10
1.139e-10
8.321e-10
1.051e-10
8.156e-10
9.676e-11
8.004e-10
8.888e-11
7.865e-10
8.148e-11
7.737e-10
7.455e-11
7.62e-10
6.808e-11
7.512e-10
6.206e-11
7.415e-10
5.649e-11
7.326e-10
5.133e-11
7.245e-10
4.657e-11
7.171e-10
4.219e-11
7.104e-10
3.817e-11
7.044e-10
3.449e-11
6.989e-10
3.112e-11
6.94e-10
2.804e-11
6.895e-10
2.524e-11
6.855e-10
2.269e-11
6.818e-10
2.038e-11
6.786e-10
1.828e-11
6.756e-10
1.64e-11
6.73e-10
1.47e-11
6.706e-10
1.318e-11
6.685e-10
1.183e-11
6.666e-10
1.063e-11
6.649e-10
9.585e-12
6.634e-10
8.679e-12
6.62e-10
7.907e-12
6.608e-10
7.263e-12
6.596e-10
6.742e-12
6.586e-10
6.338e-12
6.577e-10
6.043e-12
6.568e-10
5.846e-12
6.56e-10
5.735e-12
5.693e-12
9.453e-10
6.215e-11
9.624e-10
1.628e-10
9.822e-10
2.37e-10
1e-09
2.858e-10
1.013e-09
3.13e-10
1.02e-09
3.234e-10
1.022e-09
3.214e-10
1.018e-09
3.109e-10
1.011e-09
2.948e-10
1.001e-09
2.754e-10
9.881e-10
2.542e-10
9.744e-10
2.325e-10
9.602e-10
2.109e-10
9.461e-10
1.899e-10
9.323e-10
1.698e-10
9.193e-10
1.508e-10
9.072e-10
1.328e-10
8.962e-10
1.159e-10
8.864e-10
9.996e-11
8.779e-10
8.498e-11
8.707e-10
7.083e-11
8.649e-10
5.741e-11
8.605e-10
4.462e-11
8.574e-10
3.235e-11
8.558e-10
2.05e-11
8.556e-10
8.975e-12
8.568e-10
-2.326e-12
8.595e-10
-1.349e-11
8.636e-10
-2.461e-11
8.692e-10
-3.576e-11
8.764e-10
-4.701e-11
8.851e-10
-5.844e-11
8.955e-10
-7.01e-11
9.075e-10
-8.205e-11
9.212e-10
-9.431e-11
9.367e-10
-1.069e-10
9.541e-10
-1.199e-10
9.733e-10
-1.333e-10
9.944e-10
-1.47e-10
1.018e-09
-1.61e-10
1.043e-09
-1.752e-10
1.07e-09
-1.896e-10
1.099e-09
-2.04e-10
1.131e-09
-2.183e-10
1.164e-09
-2.323e-10
1.2e-09
-2.458e-10
1.237e-09
-2.584e-10
1.276e-09
-2.7e-10
1.317e-09
-2.8e-10
1.359e-09
-2.883e-10
1.402e-09
-2.943e-10
1.446e-09
-2.976e-10
1.49e-09
-2.978e-10
1.533e-09
-2.945e-10
1.576e-09
-2.874e-10
1.618e-09
-2.76e-10
1.657e-09
-2.602e-10
1.693e-09
-2.398e-10
1.726e-09
-2.149e-10
1.754e-09
-1.858e-10
1.778e-09
-1.528e-10
1.795e-09
-1.167e-10
1.807e-09
-7.814e-11
1.813e-09
-3.821e-11
1.812e-09
2.094e-12
1.806e-09
4.175e-11
1.794e-09
7.985e-11
1.776e-09
1.156e-10
1.753e-09
1.486e-10
1.726e-09
1.782e-10
1.696e-09
2.043e-10
1.662e-09
2.267e-10
1.626e-09
2.453e-10
1.587e-09
2.603e-10
1.547e-09
2.717e-10
1.506e-09
2.796e-10
1.464e-09
2.843e-10
1.422e-09
2.86e-10
1.381e-09
2.85e-10
1.34e-09
2.816e-10
1.299e-09
2.76e-10
1.26e-09
2.687e-10
1.222e-09
2.599e-10
1.186e-09
2.499e-10
1.151e-09
2.391e-10
1.118e-09
2.275e-10
1.087e-09
2.155e-10
1.057e-09
2.033e-10
1.03e-09
1.911e-10
1.004e-09
1.789e-10
9.792e-10
1.67e-10
9.566e-10
1.554e-10
9.355e-10
1.442e-10
9.16e-10
1.334e-10
8.98e-10
1.231e-10
8.813e-10
1.134e-10
8.66e-10
1.042e-10
8.519e-10
9.557e-11
8.39e-10
8.747e-11
8.271e-10
7.992e-11
8.163e-10
7.289e-11
8.064e-10
6.637e-11
7.974e-10
6.034e-11
7.892e-10
5.478e-11
7.817e-10
4.965e-11
7.75e-10
4.495e-11
7.688e-10
4.063e-11
7.633e-10
3.668e-11
7.582e-10
3.307e-11
7.537e-10
2.978e-11
7.496e-10
2.679e-11
7.459e-10
2.407e-11
7.426e-10
2.161e-11
7.396e-10
1.939e-11
7.369e-10
1.739e-11
7.345e-10
1.559e-11
7.323e-10
1.399e-11
7.304e-10
1.257e-11
7.286e-10
1.132e-11
7.271e-10
1.023e-11
7.257e-10
9.299e-12
7.244e-10
8.511e-12
7.233e-10
7.863e-12
7.223e-10
7.348e-12
7.214e-10
6.959e-12
7.205e-10
6.686e-12
7.198e-10
6.521e-12
6.451e-12
9.44e-10
5.564e-11
9.589e-10
1.479e-10
9.775e-10
2.185e-10
9.956e-10
2.676e-10
1.011e-09
2.978e-10
1.022e-09
3.126e-10
1.028e-09
3.153e-10
1.029e-09
3.092e-10
1.027e-09
2.969e-10
1.022e-09
2.806e-10
1.015e-09
2.617e-10
1.005e-09
2.416e-10
9.954e-10
2.21e-10
9.849e-10
2.004e-10
9.744e-10
1.804e-10
9.641e-10
1.61e-10
9.544e-10
1.425e-10
9.455e-10
1.248e-10
9.374e-10
1.08e-10
9.304e-10
9.201e-11
9.244e-10
7.677e-11
9.197e-10
6.219e-11
9.161e-10
4.82e-11
9.137e-10
3.469e-11
9.126e-10
2.157e-11
9.129e-10
8.749e-12
9.144e-10
-3.879e-12
9.173e-10
-1.64e-11
9.216e-10
-2.891e-11
9.274e-10
-4.149e-11
9.346e-10
-5.421e-11
9.433e-10
-6.715e-11
9.535e-10
-8.037e-11
9.654e-10
-9.392e-11
9.789e-10
-1.079e-10
9.942e-10
-1.222e-10
1.011e-09
-1.37e-10
1.03e-09
-1.522e-10
1.051e-09
-1.678e-10
1.074e-09
-1.838e-10
1.099e-09
-2e-10
1.126e-09
-2.165e-10
1.154e-09
-2.33e-10
1.186e-09
-2.494e-10
1.219e-09
-2.655e-10
1.254e-09
-2.81e-10
1.291e-09
-2.956e-10
1.33e-09
-3.089e-10
1.371e-09
-3.207e-10
1.413e-09
-3.304e-10
1.456e-09
-3.375e-10
1.5e-09
-3.417e-10
1.544e-09
-3.423e-10
1.589e-09
-3.389e-10
1.632e-09
-3.31e-10
1.675e-09
-3.182e-10
1.715e-09
-3.003e-10
1.752e-09
-2.771e-10
1.786e-09
-2.486e-10
1.815e-09
-2.151e-10
1.839e-09
-1.77e-10
1.858e-09
-1.35e-10
1.87e-09
-9.029e-11
1.875e-09
-4.389e-11
1.875e-09
2.885e-12
1.868e-09
4.881e-11
1.855e-09
9.282e-11
1.836e-09
1.34e-10
1.813e-09
1.718e-10
1.785e-09
2.058e-10
1.754e-09
2.355e-10
1.72e-09
2.611e-10
1.683e-09
2.823e-10
1.644e-09
2.993e-10
1.603e-09
3.121e-10
1.562e-09
3.21e-10
1.52e-09
3.263e-10
1.478e-09
3.281e-10
1.436e-09
3.268e-10
1.395e-09
3.227e-10
1.355e-09
3.163e-10
1.316e-09
3.078e-10
1.278e-09
2.976e-10
1.242e-09
2.861e-10
1.207e-09
2.736e-10
1.174e-09
2.603e-10
1.143e-09
2.466e-10
1.114e-09
2.326e-10
1.087e-09
2.186e-10
1.061e-09
2.047e-10
1.037e-09
1.91e-10
1.014e-09
1.778e-10
9.936e-10
1.65e-10
9.744e-10
1.527e-10
9.566e-10
1.409e-10
9.402e-10
1.298e-10
9.25e-10
1.193e-10
9.111e-10
1.095e-10
8.984e-10
1.002e-10
8.867e-10
9.161e-11
8.76e-10
8.358e-11
8.663e-10
7.614e-11
8.573e-10
6.925e-11
8.492e-10
6.289e-11
8.419e-10
5.703e-11
8.352e-10
5.165e-11
8.291e-10
4.671e-11
8.236e-10
4.219e-11
8.186e-10
3.806e-11
8.141e-10
3.429e-11
8.1e-10
3.086e-11
8.063e-10
2.774e-11
8.03e-10
2.492e-11
8e-10
2.236e-11
7.974e-10
2.006e-11
7.95e-10
1.799e-11
7.928e-10
1.614e-11
7.909e-10
1.45e-11
7.892e-10
1.304e-11
7.876e-10
1.177e-11
7.863e-10
1.067e-11
7.85e-10
9.739e-12
7.839e-10
8.961e-12
7.829e-10
8.333e-12
7.821e-10
7.848e-12
7.812e-10
7.498e-12
7.805e-10
7.278e-12
7.181e-12
9.43e-10
5.011e-11
9.563e-10
1.346e-10
9.735e-10
2.013e-10
9.914e-10
2.497e-10
1.008e-09
2.816e-10
1.021e-09
2.994e-10
1.03e-09
3.058e-10
1.036e-09
3.035e-10
1.038e-09
2.947e-10
1.038e-09
2.813e-10
1.035e-09
2.648e-10
1.03e-09
2.465e-10
1.023e-09
2.271e-10
1.017e-09
2.074e-10
1.009e-09
1.878e-10
1.002e-09
1.685e-10
9.945e-10
1.497e-10
9.877e-10
1.316e-10
9.815e-10
1.142e-10
9.76e-10
9.746e-11
9.714e-10
8.137e-11
9.678e-10
6.585e-11
9.651e-10
5.086e-11
9.635e-10
3.629e-11
9.63e-10
2.206e-11
9.637e-10
8.08e-12
9.656e-10
-5.743e-12
9.687e-10
-1.95e-11
9.73e-10
-3.328e-11
9.787e-10
-4.718e-11
9.858e-10
-6.127e-11
9.943e-10
-7.562e-11
1.004e-09
-9.031e-11
1.016e-09
-1.054e-10
1.029e-09
-1.209e-10
1.043e-09
-1.369e-10
1.06e-09
-1.534e-10
1.078e-09
-1.704e-10
1.098e-09
-1.878e-10
1.12e-09
-2.057e-10
1.144e-09
-2.24e-10
1.17e-09
-2.424e-10
1.198e-09
-2.61e-10
1.228e-09
-2.795e-10
1.26e-09
-2.976e-10
1.294e-09
-3.152e-10
1.331e-09
-3.318e-10
1.369e-09
-3.47e-10
1.408e-09
-3.605e-10
1.45e-09
-3.718e-10
1.493e-09
-3.802e-10
1.536e-09
-3.853e-10
1.58e-09
-3.864e-10
1.625e-09
-3.831e-10
1.668e-09
-3.747e-10
1.711e-09
-3.608e-10