/*--------------------------------*- C++ -*----------------------------------*\
  =========                 |
  \\      /  F ield         | OpenFOAM: The Open Source CFD Toolbox
   \\    /   O peration     | Website:  https://openfoam.org
    \\  /    A nd           | Version:  7
     \\/     M anipulation  |
\*---------------------------------------------------------------------------*/
FoamFile
{
    version     2.0;
    format      ascii;
    class       volVectorField;
    location    "2039.99947343277609";
    object      U;
}
// * * * * * * * * * * * * * * * * * * * * * * * * * * * * * * * * * * * * * //

dimensions      [0 1 -1 0 0 0 0];

internalField   nonuniform List<vector> 
4096
(
(0.001039 0.0001611 0)
(0.0007463 0.0001314 0)
(0.0005302 8.474e-05 0)
(0.0003919 5.358e-05 0)
(0.0003036 3.467e-05 0)
(0.0002457 2.328e-05 0)
(0.0002061 1.633e-05 0)
(0.0001778 1.195e-05 0)
(0.0001568 9.064e-06 0)
(0.0001406 7.077e-06 0)
(0.0001279 5.651e-06 0)
(0.0001177 4.59e-06 0)
(0.0001093 3.775e-06 0)
(0.0001024 3.135e-06 0)
(9.662e-05 2.619e-06 0)
(9.181e-05 2.197e-06 0)
(8.777e-05 1.845e-06 0)
(8.437e-05 1.548e-06 0)
(8.153e-05 1.292e-06 0)
(7.917e-05 1.071e-06 0)
(7.722e-05 8.757e-07 0)
(7.565e-05 7.017e-07 0)
(7.44e-05 5.443e-07 0)
(7.346e-05 4.002e-07 0)
(7.279e-05 2.663e-07 0)
(7.238e-05 1.401e-07 0)
(7.222e-05 1.952e-08 0)
(7.23e-05 -9.724e-08 0)
(7.261e-05 -2.118e-07 0)
(7.315e-05 -3.255e-07 0)
(7.391e-05 -4.397e-07 0)
(7.491e-05 -5.555e-07 0)
(7.614e-05 -6.737e-07 0)
(7.761e-05 -7.952e-07 0)
(7.932e-05 -9.207e-07 0)
(8.129e-05 -1.051e-06 0)
(8.353e-05 -1.185e-06 0)
(8.604e-05 -1.325e-06 0)
(8.883e-05 -1.47e-06 0)
(9.192e-05 -1.619e-06 0)
(9.532e-05 -1.773e-06 0)
(9.902e-05 -1.929e-06 0)
(0.000103 -2.087e-06 0)
(0.0001074 -2.245e-06 0)
(0.000112 -2.402e-06 0)
(0.000117 -2.553e-06 0)
(0.0001222 -2.697e-06 0)
(0.0001277 -2.829e-06 0)
(0.0001335 -2.945e-06 0)
(0.0001395 -3.042e-06 0)
(0.0001457 -3.114e-06 0)
(0.0001519 -3.157e-06 0)
(0.0001583 -3.165e-06 0)
(0.0001646 -3.134e-06 0)
(0.0001707 -3.06e-06 0)
(0.0001767 -2.939e-06 0)
(0.0001825 -2.769e-06 0)
(0.0001878 -2.549e-06 0)
(0.0001926 -2.281e-06 0)
(0.0001969 -1.967e-06 0)
(0.0002004 -1.613e-06 0)
(0.0002033 -1.225e-06 0)
(0.0002053 -8.124e-07 0)
(0.0002065 -3.85e-07 0)
(0.0002068 4.674e-08 0)
(0.0002063 4.722e-07 0)
(0.000205 8.816e-07 0)
(0.0002028 1.267e-06 0)
(0.0001999 1.62e-06 0)
(0.0001964 1.938e-06 0)
(0.0001922 2.215e-06 0)
(0.0001876 2.451e-06 0)
(0.0001825 2.644e-06 0)
(0.000177 2.795e-06 0)
(0.0001713 2.906e-06 0)
(0.0001654 2.978e-06 0)
(0.0001594 3.015e-06 0)
(0.0001534 3.019e-06 0)
(0.0001474 2.994e-06 0)
(0.0001415 2.943e-06 0)
(0.0001357 2.87e-06 0)
(0.00013 2.778e-06 0)
(0.0001246 2.672e-06 0)
(0.0001193 2.554e-06 0)
(0.0001143 2.428e-06 0)
(0.0001096 2.297e-06 0)
(0.0001052 2.162e-06 0)
(0.000101 2.026e-06 0)
(9.706e-05 1.891e-06 0)
(9.341e-05 1.758e-06 0)
(9.002e-05 1.629e-06 0)
(8.688e-05 1.505e-06 0)
(8.399e-05 1.386e-06 0)
(8.133e-05 1.273e-06 0)
(7.89e-05 1.166e-06 0)
(7.666e-05 1.065e-06 0)
(7.463e-05 9.712e-07 0)
(7.277e-05 8.834e-07 0)
(7.109e-05 8.02e-07 0)
(6.956e-05 7.267e-07 0)
(6.818e-05 6.572e-07 0)
(6.693e-05 5.933e-07 0)
(6.58e-05 5.347e-07 0)
(6.478e-05 4.811e-07 0)
(6.387e-05 4.322e-07 0)
(6.305e-05 3.876e-07 0)
(6.231e-05 3.471e-07 0)
(6.166e-05 3.104e-07 0)
(6.107e-05 2.771e-07 0)
(6.054e-05 2.471e-07 0)
(6.008e-05 2.2e-07 0)
(5.966e-05 1.956e-07 0)
(5.929e-05 1.738e-07 0)
(5.896e-05 1.544e-07 0)
(5.867e-05 1.372e-07 0)
(5.841e-05 1.221e-07 0)
(5.818e-05 1.09e-07 0)
(5.798e-05 9.784e-08 0)
(5.779e-05 8.869e-08 0)
(5.762e-05 8.162e-08 0)
(5.746e-05 7.68e-08 0)
(5.731e-05 7.459e-08 0)
(5.716e-05 7.566e-08 0)
(5.7e-05 8.124e-08 0)
(5.683e-05 9.37e-08 0)
(5.662e-05 1.169e-07 0)
(5.634e-05 1.553e-07 0)
(5.599e-05 2.019e-07 0)
(0.001209 0.0003128 0)
(0.001154 0.0003282 0)
(0.00101 0.000248 0)
(0.0008613 0.0001771 0)
(0.0007345 0.0001262 0)
(0.0006326 9.147e-05 0)
(0.0005525 6.793e-05 0)
(0.0004893 5.178e-05 0)
(0.0004391 4.044e-05 0)
(0.0003988 3.223e-05 0)
(0.0003659 2.611e-05 0)
(0.0003388 2.144e-05 0)
(0.0003163 1.778e-05 0)
(0.0002975 1.485e-05 0)
(0.0002817 1.247e-05 0)
(0.0002683 1.05e-05 0)
(0.0002571 8.851e-06 0)
(0.0002475 7.445e-06 0)
(0.0002395 6.233e-06 0)
(0.0002329 5.175e-06 0)
(0.0002273 4.241e-06 0)
(0.0002229 3.405e-06 0)
(0.0002193 2.647e-06 0)
(0.0002166 1.951e-06 0)
(0.0002147 1.304e-06 0)
(0.0002135 6.939e-07 0)
(0.000213 1.106e-07 0)
(0.0002132 -4.542e-07 0)
(0.000214 -1.008e-06 0)
(0.0002155 -1.558e-06 0)
(0.0002176 -2.109e-06 0)
(0.0002204 -2.666e-06 0)
(0.0002239 -3.234e-06 0)
(0.000228 -3.817e-06 0)
(0.0002328 -4.418e-06 0)
(0.0002383 -5.038e-06 0)
(0.0002445 -5.681e-06 0)
(0.0002516 -6.345e-06 0)
(0.0002593 -7.031e-06 0)
(0.0002679 -7.737e-06 0)
(0.0002773 -8.459e-06 0)
(0.0002876 -9.194e-06 0)
(0.0002987 -9.935e-06 0)
(0.0003106 -1.067e-05 0)
(0.0003234 -1.14e-05 0)
(0.000337 -1.21e-05 0)
(0.0003514 -1.276e-05 0)
(0.0003665 -1.337e-05 0)
(0.0003822 -1.39e-05 0)
(0.0003984 -1.434e-05 0)
(0.0004151 -1.466e-05 0)
(0.0004321 -1.484e-05 0)
(0.0004491 -1.485e-05 0)
(0.0004661 -1.469e-05 0)
(0.0004827 -1.432e-05 0)
(0.0004988 -1.374e-05 0)
(0.000514 -1.294e-05 0)
(0.0005282 -1.19e-05 0)
(0.0005411 -1.064e-05 0)
(0.0005524 -9.178e-06 0)
(0.000562 -7.527e-06 0)
(0.0005695 -5.724e-06 0)
(0.000575 -3.807e-06 0)
(0.0005782 -1.822e-06 0)
(0.0005792 1.828e-07 0)
(0.0005779 2.161e-06 0)
(0.0005744 4.068e-06 0)
(0.0005687 5.865e-06 0)
(0.0005611 7.52e-06 0)
(0.0005517 9.01e-06 0)
(0.0005407 1.032e-05 0)
(0.0005283 1.143e-05 0)
(0.0005147 1.236e-05 0)
(0.0005001 1.308e-05 0)
(0.0004848 1.362e-05 0)
(0.000469 1.398e-05 0)
(0.0004528 1.417e-05 0)
(0.0004365 1.421e-05 0)
(0.0004202 1.411e-05 0)
(0.000404 1.389e-05 0)
(0.0003882 1.357e-05 0)
(0.0003728 1.316e-05 0)
(0.0003578 1.267e-05 0)
(0.0003435 1.213e-05 0)
(0.0003298 1.155e-05 0)
(0.0003167 1.094e-05 0)
(0.0003044 1.031e-05 0)
(0.0002928 9.681e-06 0)
(0.0002819 9.05e-06 0)
(0.0002717 8.427e-06 0)
(0.0002622 7.821e-06 0)
(0.0002534 7.235e-06 0)
(0.0002453 6.672e-06 0)
(0.0002378 6.136e-06 0)
(0.0002309 5.629e-06 0)
(0.0002246 5.151e-06 0)
(0.0002188 4.702e-06 0)
(0.0002136 4.284e-06 0)
(0.0002087 3.895e-06 0)
(0.0002044 3.534e-06 0)
(0.0002004 3.201e-06 0)
(0.0001968 2.894e-06 0)
(0.0001936 2.612e-06 0)
(0.0001906 2.354e-06 0)
(0.000188 2.118e-06 0)
(0.0001856 1.902e-06 0)
(0.0001835 1.706e-06 0)
(0.0001815 1.528e-06 0)
(0.0001798 1.367e-06 0)
(0.0001783 1.221e-06 0)
(0.0001769 1.089e-06 0)
(0.0001757 9.706e-07 0)
(0.0001746 8.643e-07 0)
(0.0001736 7.694e-07 0)
(0.0001727 6.852e-07 0)
(0.000172 6.111e-07 0)
(0.0001713 5.467e-07 0)
(0.0001706 4.918e-07 0)
(0.0001701 4.464e-07 0)
(0.0001696 4.108e-07 0)
(0.0001691 3.855e-07 0)
(0.0001686 3.719e-07 0)
(0.0001682 3.719e-07 0)
(0.0001677 3.888e-07 0)
(0.0001673 4.28e-07 0)
(0.0001668 4.969e-07 0)
(0.0001662 5.994e-07 0)
(0.0001656 7.063e-07 0)
(0.001226 0.0002775 0)
(0.001243 0.0004027 0)
(0.001194 0.0003664 0)
(0.001102 0.0002983 0)
(0.0009997 0.0002345 0)
(0.0009015 0.0001831 0)
(0.0008142 0.0001438 0)
(0.000739 0.0001142 0)
(0.0006753 9.192e-05 0)
(0.0006215 7.49e-05 0)
(0.0005762 6.17e-05 0)
(0.0005378 5.129e-05 0)
(0.0005052 4.295e-05 0)
(0.0004776 3.616e-05 0)
(0.000454 3.055e-05 0)
(0.000434 2.585e-05 0)
(0.0004169 2.187e-05 0)
(0.0004023 1.846e-05 0)
(0.0003901 1.55e-05 0)
(0.0003798 1.29e-05 0)
(0.0003712 1.059e-05 0)
(0.0003642 8.52e-06 0)
(0.0003587 6.636e-06 0)
(0.0003545 4.901e-06 0)
(0.0003514 3.284e-06 0)
(0.0003496 1.756e-06 0)
(0.0003488 2.945e-07 0)
(0.0003491 -1.122e-06 0)
(0.0003505 -2.51e-06 0)
(0.0003528 -3.887e-06 0)
(0.0003561 -5.267e-06 0)
(0.0003605 -6.661e-06 0)
(0.0003659 -8.081e-06 0)
(0.0003724 -9.535e-06 0)
(0.0003799 -1.103e-05 0)
(0.0003885 -1.257e-05 0)
(0.0003983 -1.417e-05 0)
(0.0004092 -1.581e-05 0)
(0.0004214 -1.75e-05 0)
(0.0004348 -1.924e-05 0)
(0.0004494 -2.102e-05 0)
(0.0004654 -2.282e-05 0)
(0.0004826 -2.464e-05 0)
(0.0005011 -2.644e-05 0)
(0.0005209 -2.821e-05 0)
(0.000542 -2.991e-05 0)
(0.0005642 -3.152e-05 0)
(0.0005874 -3.298e-05 0)
(0.0006117 -3.425e-05 0)
(0.0006367 -3.528e-05 0)
(0.0006623 -3.603e-05 0)
(0.0006884 -3.643e-05 0)
(0.0007145 -3.644e-05 0)
(0.0007405 -3.601e-05 0)
(0.0007659 -3.508e-05 0)
(0.0007905 -3.363e-05 0)
(0.0008138 -3.164e-05 0)
(0.0008355 -2.909e-05 0)
(0.0008552 -2.601e-05 0)
(0.0008725 -2.243e-05 0)
(0.0008871 -1.84e-05 0)
(0.0008986 -1.401e-05 0)
(0.000907 -9.34e-06 0)
(0.000912 -4.508e-06 0)
(0.0009135 3.746e-07 0)
(0.0009116 5.195e-06 0)
(0.0009063 9.847e-06 0)
(0.0008978 1.424e-05 0)
(0.0008863 1.829e-05 0)
(0.000872 2.195e-05 0)
(0.0008552 2.517e-05 0)
(0.0008363 2.793e-05 0)
(0.0008155 3.021e-05 0)
(0.0007933 3.203e-05 0)
(0.0007699 3.338e-05 0)
(0.0007456 3.43e-05 0)
(0.0007208 3.482e-05 0)
(0.0006958 3.495e-05 0)
(0.0006707 3.475e-05 0)
(0.0006458 3.425e-05 0)
(0.0006214 3.349e-05 0)
(0.0005975 3.251e-05 0)
(0.0005744 3.136e-05 0)
(0.0005522 3.006e-05 0)
(0.0005309 2.865e-05 0)
(0.0005106 2.717e-05 0)
(0.0004914 2.564e-05 0)
(0.0004733 2.41e-05 0)
(0.0004563 2.255e-05 0)
(0.0004403 2.103e-05 0)
(0.0004255 1.954e-05 0)
(0.0004117 1.81e-05 0)
(0.0003989 1.671e-05 0)
(0.0003871 1.539e-05 0)
(0.0003763 1.413e-05 0)
(0.0003663 1.295e-05 0)
(0.0003571 1.183e-05 0)
(0.0003488 1.079e-05 0)
(0.0003411 9.825e-06 0)
(0.0003342 8.926e-06 0)
(0.0003279 8.095e-06 0)
(0.0003221 7.328e-06 0)
(0.0003169 6.623e-06 0)
(0.0003122 5.976e-06 0)
(0.000308 5.384e-06 0)
(0.0003042 4.843e-06 0)
(0.0003007 4.35e-06 0)
(0.0002976 3.902e-06 0)
(0.0002948 3.495e-06 0)
(0.0002923 3.127e-06 0)
(0.0002901 2.794e-06 0)
(0.0002881 2.494e-06 0)
(0.0002863 2.225e-06 0)
(0.0002847 1.984e-06 0)
(0.0002833 1.77e-06 0)
(0.000282 1.581e-06 0)
(0.0002809 1.417e-06 0)
(0.0002799 1.276e-06 0)
(0.0002789 1.158e-06 0)
(0.0002781 1.065e-06 0)
(0.0002773 9.955e-07 0)
(0.0002766 9.529e-07 0)
(0.0002758 9.396e-07 0)
(0.0002752 9.595e-07 0)
(0.0002745 1.017e-06 0)
(0.0002738 1.117e-06 0)
(0.000273 1.25e-06 0)
(0.0002723 1.366e-06 0)
(0.001224 0.0002275 0)
(0.00126 0.0004003 0)
(0.001258 0.0004193 0)
(0.001216 0.000379 0)
(0.001149 0.000323 0)
(0.001073 0.0002687 0)
(0.0009972 0.0002217 0)
(0.0009258 0.0001829 0)
(0.0008612 0.0001516 0)
(0.0008039 0.0001263 0)
(0.0007537 0.0001059 0)
(0.0007099 8.926e-05 0)
(0.0006718 7.556e-05 0)
(0.0006389 6.417e-05 0)
(0.0006104 5.46e-05 0)
(0.0005858 4.648e-05 0)
(0.0005646 3.951e-05 0)
(0.0005465 3.348e-05 0)
(0.000531 2.82e-05 0)
(0.000518 2.354e-05 0)
(0.0005071 1.937e-05 0)
(0.0004982 1.561e-05 0)
(0.0004911 1.217e-05 0)
(0.0004857 8.997e-06 0)
(0.0004819 6.028e-06 0)
(0.0004796 3.216e-06 0)
(0.0004786 5.217e-07 0)
(0.0004791 -2.092e-06 0)
(0.0004809 -4.657e-06 0)
(0.000484 -7.202e-06 0)
(0.0004884 -9.75e-06 0)
(0.0004942 -1.232e-05 0)
(0.0005013 -1.494e-05 0)
(0.0005098 -1.762e-05 0)
(0.0005197 -2.037e-05 0)
(0.0005311 -2.321e-05 0)
(0.0005439 -2.613e-05 0)
(0.0005583 -2.914e-05 0)
(0.0005742 -3.224e-05 0)
(0.0005917 -3.542e-05 0)
(0.0006109 -3.866e-05 0)
(0.0006317 -4.194e-05 0)
(0.0006541 -4.523e-05 0)
(0.0006783 -4.85e-05 0)
(0.000704 -5.17e-05 0)
(0.0007313 -5.477e-05 0)
(0.0007601 -5.766e-05 0)
(0.0007903 -6.027e-05 0)
(0.0008217 -6.255e-05 0)
(0.0008541 -6.439e-05 0)
(0.0008872 -6.57e-05 0)
(0.0009208 -6.639e-05 0)
(0.0009545 -6.636e-05 0)
(0.000988 -6.553e-05 0)
(0.001021 -6.381e-05 0)
(0.001052 -6.114e-05 0)
(0.001083 -5.75e-05 0)
(0.00111 -5.286e-05 0)
(0.001136 -4.726e-05 0)
(0.001158 -4.075e-05 0)
(0.001177 -3.345e-05 0)
(0.001192 -2.548e-05 0)
(0.001203 -1.703e-05 0)
(0.001209 -8.274e-06 0)
(0.001211 5.747e-07 0)
(0.001209 9.313e-06 0)
(0.001202 1.775e-05 0)
(0.001191 2.573e-05 0)
(0.001176 3.31e-05 0)
(0.001158 3.976e-05 0)
(0.001137 4.563e-05 0)
(0.001112 5.068e-05 0)
(0.001086 5.487e-05 0)
(0.001057 5.822e-05 0)
(0.001027 6.074e-05 0)
(0.0009955 6.247e-05 0)
(0.0009635 6.346e-05 0)
(0.0009311 6.377e-05 0)
(0.0008987 6.346e-05 0)
(0.0008665 6.26e-05 0)
(0.0008348 6.127e-05 0)
(0.0008039 5.953e-05 0)
(0.0007739 5.747e-05 0)
(0.0007449 5.514e-05 0)
(0.0007172 5.261e-05 0)
(0.0006907 4.994e-05 0)
(0.0006656 4.718e-05 0)
(0.0006419 4.438e-05 0)
(0.0006196 4.158e-05 0)
(0.0005987 3.881e-05 0)
(0.0005792 3.61e-05 0)
(0.0005611 3.347e-05 0)
(0.0005442 3.094e-05 0)
(0.0005287 2.852e-05 0)
(0.0005143 2.622e-05 0)
(0.0005011 2.404e-05 0)
(0.000489 2.2e-05 0)
(0.0004779 2.009e-05 0)
(0.0004678 1.831e-05 0)
(0.0004585 1.665e-05 0)
(0.0004501 1.512e-05 0)
(0.0004424 1.37e-05 0)
(0.0004355 1.24e-05 0)
(0.0004292 1.12e-05 0)
(0.0004235 1.01e-05 0)
(0.0004183 9.096e-06 0)
(0.0004137 8.181e-06 0)
(0.0004095 7.347e-06 0)
(0.0004058 6.589e-06 0)
(0.0004024 5.902e-06 0)
(0.0003994 5.281e-06 0)
(0.0003966 4.72e-06 0)
(0.0003942 4.217e-06 0)
(0.000392 3.766e-06 0)
(0.0003901 3.364e-06 0)
(0.0003883 3.009e-06 0)
(0.0003868 2.698e-06 0)
(0.0003854 2.431e-06 0)
(0.0003841 2.206e-06 0)
(0.0003829 2.023e-06 0)
(0.0003819 1.883e-06 0)
(0.0003809 1.788e-06 0)
(0.00038 1.74e-06 0)
(0.0003791 1.741e-06 0)
(0.0003782 1.794e-06 0)
(0.0003774 1.894e-06 0)
(0.0003765 2.024e-06 0)
(0.0003757 2.127e-06 0)
(0.001219 0.0001846 0)
(0.001255 0.0003713 0)
(0.001275 0.0004301 0)
(0.001264 0.0004211 0)
(0.001229 0.0003829 0)
(0.001178 0.0003356 0)
(0.00112 0.000289 0)
(0.00106 0.0002467 0)
(0.001002 0.0002101 0)
(0.0009483 0.000179 0)
(0.000899 0.0001527 0)
(0.0008546 0.0001306 0)
(0.0008151 0.0001118 0)
(0.0007801 9.586e-05 0)
(0.0007493 8.221e-05 0)
(0.0007224 7.043e-05 0)
(0.0006989 6.02e-05 0)
(0.0006786 5.123e-05 0)
(0.0006612 4.331e-05 0)
(0.0006464 3.626e-05 0)
(0.000634 2.991e-05 0)
(0.0006238 2.414e-05 0)
(0.0006157 1.884e-05 0)
(0.0006095 1.392e-05 0)
(0.0006051 9.304e-06 0)
(0.0006025 4.919e-06 0)
(0.0006016 7.061e-07 0)
(0.0006022 -3.388e-06 0)
(0.0006045 -7.411e-06 0)
(0.0006083 -1.14e-05 0)
(0.0006137 -1.541e-05 0)
(0.0006207 -1.945e-05 0)
(0.0006293 -2.356e-05 0)
(0.0006396 -2.776e-05 0)
(0.0006515 -3.207e-05 0)
(0.0006651 -3.65e-05 0)
(0.0006806 -4.107e-05 0)
(0.0006978 -4.578e-05 0)
(0.0007169 -5.061e-05 0)
(0.0007378 -5.555e-05 0)
(0.0007607 -6.059e-05 0)
(0.0007856 -6.568e-05 0)
(0.0008124 -7.079e-05 0)
(0.0008412 -7.585e-05 0)
(0.0008719 -8.079e-05 0)
(0.0009044 -8.553e-05 0)
(0.0009387 -8.997e-05 0)
(0.0009746 -9.399e-05 0)
(0.001012 -9.748e-05 0)
(0.00105 -0.0001003 0)
(0.00109 -0.0001023 0)
(0.00113 -0.0001033 0)
(0.00117 -0.0001032 0)
(0.001209 -0.0001019 0)
(0.001248 -9.916e-05 0)
(0.001286 -9.5e-05 0)
(0.001321 -8.932e-05 0)
(0.001354 -8.212e-05 0)
(0.001385 -7.342e-05 0)
(0.001411 -6.333e-05 0)
(0.001433 -5.2e-05 0)
(0.001451 -3.964e-05 0)
(0.001464 -2.653e-05 0)
(0.001472 -1.296e-05 0)
(0.001474 7.625e-07 0)
(0.001471 1.432e-05 0)
(0.001463 2.741e-05 0)
(0.001451 3.979e-05 0)
(0.001433 5.124e-05 0)
(0.001412 6.159e-05 0)
(0.001386 7.074e-05 0)
(0.001357 7.861e-05 0)
(0.001326 8.516e-05 0)
(0.001292 9.042e-05 0)
(0.001256 9.439e-05 0)
(0.001219 9.714e-05 0)
(0.001181 9.875e-05 0)
(0.001143 9.93e-05 0)
(0.001104 9.888e-05 0)
(0.001066 9.762e-05 0)
(0.001028 9.562e-05 0)
(0.0009914 9.298e-05 0)
(0.0009556 8.983e-05 0)
(0.0009211 8.626e-05 0)
(0.000888 8.237e-05 0)
(0.0008563 7.826e-05 0)
(0.0008263 7.4e-05 0)
(0.0007979 6.967e-05 0)
(0.0007712 6.533e-05 0)
(0.0007461 6.103e-05 0)
(0.0007227 5.682e-05 0)
(0.0007008 5.272e-05 0)
(0.0006806 4.878e-05 0)
(0.0006618 4.501e-05 0)
(0.0006445 4.142e-05 0)
(0.0006285 3.802e-05 0)
(0.0006138 3.482e-05 0)
(0.0006004 3.183e-05 0)
(0.0005881 2.903e-05 0)
(0.0005768 2.643e-05 0)
(0.0005666 2.402e-05 0)
(0.0005572 2.179e-05 0)
(0.0005487 1.974e-05 0)
(0.000541 1.785e-05 0)
(0.0005341 1.611e-05 0)
(0.0005278 1.453e-05 0)
(0.0005221 1.308e-05 0)
(0.000517 1.176e-05 0)
(0.0005123 1.056e-05 0)
(0.0005082 9.468e-06 0)
(0.0005044 8.481e-06 0)
(0.0005011 7.59e-06 0)
(0.0004981 6.788e-06 0)
(0.0004954 6.068e-06 0)
(0.000493 5.427e-06 0)
(0.0004908 4.858e-06 0)
(0.0004888 4.359e-06 0)
(0.0004871 3.927e-06 0)
(0.0004855 3.559e-06 0)
(0.0004841 3.256e-06 0)
(0.0004828 3.016e-06 0)
(0.0004816 2.841e-06 0)
(0.0004805 2.732e-06 0)
(0.0004794 2.688e-06 0)
(0.0004784 2.708e-06 0)
(0.0004775 2.783e-06 0)
(0.0004766 2.887e-06 0)
(0.0004757 2.969e-06 0)
(0.001214 0.000152 0)
(0.001246 0.0003355 0)
(0.001274 0.0004183 0)
(0.001282 0.0004355 0)
(0.001269 0.0004171 0)
(0.001239 0.0003819 0)
(0.001199 0.0003409 0)
(0.001154 0.0003 0)
(0.001106 0.000262 0)
(0.00106 0.0002278 0)
(0.001015 0.0001977 0)
(0.0009739 0.0001714 0)
(0.0009359 0.0001485 0)
(0.0009016 0.0001285 0)
(0.0008708 0.0001111 0)
(0.0008434 9.585e-05 0)
(0.0008193 8.238e-05 0)
(0.0007982 7.045e-05 0)
(0.0007799 5.979e-05 0)
(0.0007643 5.02e-05 0)
(0.0007511 4.15e-05 0)
(0.0007403 3.354e-05 0)
(0.0007317 2.619e-05 0)
(0.0007251 1.933e-05 0)
(0.0007205 1.286e-05 0)
(0.0007178 6.693e-06 0)
(0.000717 7.502e-07 0)
(0.0007179 -5.039e-06 0)
(0.0007206 -1.074e-05 0)
(0.0007251 -1.64e-05 0)
(0.0007314 -2.208e-05 0)
(0.0007394 -2.781e-05 0)
(0.0007492 -3.365e-05 0)
(0.0007609 -3.961e-05 0)
(0.0007745 -4.572e-05 0)
(0.00079 -5.201e-05 0)
(0.0008075 -5.848e-05 0)
(0.0008271 -6.513e-05 0)
(0.0008487 -7.196e-05 0)
(0.0008724 -7.894e-05 0)
(0.0008984 -8.604e-05 0)
(0.0009265 -9.322e-05 0)
(0.0009568 -0.0001004 0)
(0.0009893 -0.0001075 0)
(0.001024 -0.0001145 0)
(0.001061 -0.0001211 0)
(0.001099 -0.0001273 0)
(0.00114 -0.000133 0)
(0.001182 -0.0001378 0)
(0.001225 -0.0001418 0)
(0.00127 -0.0001445 0)
(0.001315 -0.0001459 0)
(0.00136 -0.0001458 0)
(0.001405 -0.0001439 0)
(0.001449 -0.00014 0)
(0.001491 -0.0001341 0)
(0.001531 -0.0001261 0)
(0.001569 -0.000116 0)
(0.001603 -0.0001037 0)
(0.001633 -8.947e-05 0)
(0.001658 -7.349e-05 0)
(0.001678 -5.607e-05 0)
(0.001693 -3.757e-05 0)
(0.001702 -1.842e-05 0)
(0.001705 9.433e-07 0)
(0.001701 2.007e-05 0)
(0.001692 3.854e-05 0)
(0.001678 5.6e-05 0)
(0.001658 7.215e-05 0)
(0.001634 8.677e-05 0)
(0.001605 9.969e-05 0)
(0.001573 0.0001108 0)
(0.001537 0.0001201 0)
(0.001499 0.0001276 0)
(0.001459 0.0001332 0)
(0.001417 0.0001372 0)
(0.001374 0.0001395 0)
(0.001331 0.0001403 0)
(0.001287 0.0001398 0)
(0.001244 0.0001381 0)
(0.001201 0.0001354 0)
(0.00116 0.0001317 0)
(0.001119 0.0001273 0)
(0.00108 0.0001223 0)
(0.001043 0.0001169 0)
(0.001007 0.0001111 0)
(0.0009729 0.0001052 0)
(0.0009407 9.909e-05 0)
(0.0009104 9.298e-05 0)
(0.0008819 8.693e-05 0)
(0.0008552 8.099e-05 0)
(0.0008304 7.521e-05 0)
(0.0008073 6.964e-05 0)
(0.0007859 6.431e-05 0)
(0.0007661 5.923e-05 0)
(0.0007479 5.442e-05 0)
(0.0007311 4.988e-05 0)
(0.0007157 4.563e-05 0)
(0.0007016 4.166e-05 0)
(0.0006887 3.796e-05 0)
(0.0006769 3.453e-05 0)
(0.0006662 3.135e-05 0)
(0.0006564 2.842e-05 0)
(0.0006476 2.572e-05 0)
(0.0006395 2.325e-05 0)
(0.0006322 2.098e-05 0)
(0.0006257 1.89e-05 0)
(0.0006197 1.701e-05 0)
(0.0006144 1.529e-05 0)
(0.0006095 1.372e-05 0)
(0.0006052 1.231e-05 0)
(0.0006013 1.102e-05 0)
(0.0005978 9.869e-06 0)
(0.0005946 8.831e-06 0)
(0.0005918 7.904e-06 0)
(0.0005893 7.08e-06 0)
(0.000587 6.354e-06 0)
(0.0005849 5.722e-06 0)
(0.0005831 5.18e-06 0)
(0.0005814 4.726e-06 0)
(0.0005799 4.358e-06 0)
(0.0005786 4.076e-06 0)
(0.0005773 3.879e-06 0)
(0.0005761 3.764e-06 0)
(0.000575 3.726e-06 0)
(0.000574 3.753e-06 0)
(0.000573 3.818e-06 0)
(0.0005721 3.874e-06 0)
(0.00121 0.0001279 0)
(0.001237 0.0003008 0)
(0.001266 0.0003958 0)
(0.001284 0.0004322 0)
(0.001286 0.0004315 0)
(0.001273 0.0004096 0)
(0.001249 0.0003772 0)
(0.001218 0.0003409 0)
(0.001182 0.0003044 0)
(0.001144 0.0002697 0)
(0.001107 0.0002378 0)
(0.00107 0.000209 0)
(0.001036 0.0001831 0)
(0.001004 0.00016 0)
(0.0009754 0.0001395 0)
(0.0009492 0.0001211 0)
(0.0009258 0.0001047 0)
(0.0009051 8.995e-05 0)
(0.000887 7.664e-05 0)
(0.0008714 6.454e-05 0)
(0.0008582 5.347e-05 0)
(0.0008473 4.327e-05 0)
(0.0008386 3.378e-05 0)
(0.0008321 2.488e-05 0)
(0.0008275 1.644e-05 0)
(0.000825 8.366e-06 0)
(0.0008244 5.568e-07 0)
(0.0008256 -7.072e-06 0)
(0.0008288 -1.46e-05 0)
(0.0008339 -2.209e-05 0)
(0.0008408 -2.96e-05 0)
(0.0008497 -3.72e-05 0)
(0.0008605 -4.493e-05 0)
(0.0008734 -5.283e-05 0)
(0.0008882 -6.093e-05 0)
(0.0009052 -6.926e-05 0)
(0.0009243 -7.783e-05 0)
(0.0009456 -8.663e-05 0)
(0.0009692 -9.565e-05 0)
(0.000995 -0.0001049 0)
(0.001023 -0.0001143 0)
(0.001054 -0.0001237 0)
(0.001087 -0.0001332 0)
(0.001122 -0.0001426 0)
(0.00116 -0.0001517 0)
(0.0012 -0.0001605 0)
(0.001242 -0.0001687 0)
(0.001286 -0.0001761 0)
(0.001332 -0.0001825 0)
(0.001379 -0.0001877 0)
(0.001427 -0.0001913 0)
(0.001476 -0.0001932 0)
(0.001526 -0.000193 0)
(0.001575 -0.0001905 0)
(0.001623 -0.0001854 0)
(0.001669 -0.0001777 0)
(0.001713 -0.0001671 0)
(0.001754 -0.0001537 0)
(0.001792 -0.0001375 0)
(0.001825 -0.0001186 0)
(0.001853 -9.748e-05 0)
(0.001875 -7.44e-05 0)
(0.001891 -4.989e-05 0)
(0.0019 -2.451e-05 0)
(0.001904 1.142e-06 0)
(0.0019 2.647e-05 0)
(0.00189 5.093e-05 0)
(0.001874 7.404e-05 0)
(0.001853 9.541e-05 0)
(0.001826 0.0001147 0)
(0.001795 0.0001318 0)
(0.001759 0.0001466 0)
(0.00172 0.0001589 0)
(0.001678 0.0001687 0)
(0.001634 0.0001763 0)
(0.001589 0.0001815 0)
(0.001542 0.0001847 0)
(0.001495 0.0001858 0)
(0.001448 0.0001852 0)
(0.0014 0.000183 0)
(0.001354 0.0001794 0)
(0.001309 0.0001747 0)
(0.001265 0.0001689 0)
(0.001222 0.0001624 0)
(0.001181 0.0001552 0)
(0.001142 0.0001477 0)
(0.001105 0.0001398 0)
(0.00107 0.0001318 0)
(0.001037 0.0001237 0)
(0.001006 0.0001158 0)
(0.0009764 0.0001079 0)
(0.0009493 0.0001003 0)
(0.000924 9.292e-05 0)
(0.0009006 8.586e-05 0)
(0.0008789 7.913e-05 0)
(0.0008589 7.276e-05 0)
(0.0008405 6.674e-05 0)
(0.0008236 6.11e-05 0)
(0.000808 5.582e-05 0)
(0.0007938 5.09e-05 0)
(0.0007809 4.634e-05 0)
(0.000769 4.211e-05 0)
(0.0007582 3.82e-05 0)
(0.0007484 3.46e-05 0)
(0.0007395 3.13e-05 0)
(0.0007315 2.827e-05 0)
(0.0007242 2.55e-05 0)
(0.0007176 2.296e-05 0)
(0.0007116 2.066e-05 0)
(0.0007063 1.856e-05 0)
(0.0007014 1.666e-05 0)
(0.0006971 1.493e-05 0)
(0.0006932 1.338e-05 0)
(0.0006896 1.198e-05 0)
(0.0006865 1.073e-05 0)
(0.0006837 9.616e-06 0)
(0.0006811 8.63e-06 0)
(0.0006788 7.768e-06 0)
(0.0006768 7.023e-06 0)
(0.0006749 6.392e-06 0)
(0.0006733 5.871e-06 0)
(0.0006718 5.457e-06 0)
(0.0006704 5.148e-06 0)
(0.0006691 4.939e-06 0)
(0.0006679 4.822e-06 0)
(0.0006668 4.783e-06 0)
(0.0006658 4.797e-06 0)
(0.0006648 4.825e-06 0)
(0.001208 0.0001097 0)
(0.00123 0.0002698 0)
(0.001258 0.0003693 0)
(0.001281 0.0004185 0)
(0.001292 0.0004321 0)
(0.001291 0.0004226 0)
(0.00128 0.0003996 0)
(0.00126 0.0003695 0)
(0.001236 0.0003365 0)
(0.001207 0.0003034 0)
(0.001177 0.0002715 0)
(0.001148 0.0002415 0)
(0.001118 0.0002139 0)
(0.00109 0.0001887 0)
(0.001065 0.0001658 0)
(0.001041 0.0001449 0)
(0.001019 0.000126 0)
(0.0009996 0.0001088 0)
(0.0009825 9.301e-05 0)
(0.0009677 7.856e-05 0)
(0.0009551 6.522e-05 0)
(0.0009447 5.282e-05 0)
(0.0009364 4.122e-05 0)
(0.0009301 3.026e-05 0)
(0.0009259 1.982e-05 0)
(0.0009237 9.782e-06 0)
(0.0009234 4.014e-08 0)
(0.0009251 -9.505e-06 0)
(0.0009287 -1.894e-05 0)
(0.0009342 -2.836e-05 0)
(0.0009418 -3.782e-05 0)
(0.0009513 -4.739e-05 0)
(0.0009628 -5.713e-05 0)
(0.0009765 -6.709e-05 0)
(0.0009923 -7.731e-05 0)
(0.00101 -8.781e-05 0)
(0.00103 -9.86e-05 0)
(0.001053 -0.0001097 0)
(0.001078 -0.0001211 0)
(0.001105 -0.0001327 0)
(0.001135 -0.0001445 0)
(0.001167 -0.0001564 0)
(0.001202 -0.0001684 0)
(0.00124 -0.0001802 0)
(0.001279 -0.0001917 0)
(0.001322 -0.0002027 0)
(0.001366 -0.000213 0)
(0.001413 -0.0002224 0)
(0.001461 -0.0002305 0)
(0.001511 -0.000237 0)
(0.001563 -0.0002417 0)
(0.001615 -0.000244 0)
(0.001667 -0.0002438 0)
(0.001719 -0.0002407 0)
(0.001771 -0.0002345 0)
(0.00182 -0.0002247 0)
(0.001868 -0.0002115 0)
(0.001912 -0.0001946 0)
(0.001952 -0.0001741 0)
(0.001987 -0.0001503 0)
(0.002017 -0.0001236 0)
(0.002041 -9.433e-05 0)
(0.002059 -6.327e-05 0)
(0.002069 -3.11e-05 0)
(0.002072 1.399e-06 0)
(0.002068 3.348e-05 0)
(0.002058 6.442e-05 0)
(0.002041 9.363e-05 0)
(0.002017 0.0001206 0)
(0.001989 0.000145 0)
(0.001955 0.0001666 0)
(0.001917 0.0001852 0)
(0.001876 0.0002007 0)
(0.001831 0.0002131 0)
(0.001784 0.0002226 0)
(0.001736 0.0002293 0)
(0.001686 0.0002333 0)
(0.001636 0.0002348 0)
(0.001585 0.000234 0)
(0.001535 0.0002313 0)
(0.001486 0.0002268 0)
(0.001438 0.0002208 0)
(0.001391 0.0002136 0)
(0.001346 0.0002054 0)
(0.001303 0.0001964 0)
(0.001261 0.0001869 0)
(0.001222 0.000177 0)
(0.001185 0.0001669 0)
(0.00115 0.0001568 0)
(0.001117 0.0001468 0)
(0.001086 0.0001369 0)
(0.001057 0.0001273 0)
(0.00103 0.000118 0)
(0.001005 0.0001091 0)
(0.0009824 0.0001006 0)
(0.0009612 9.255e-05 0)
(0.0009416 8.495e-05 0)
(0.0009236 7.782e-05 0)
(0.0009071 7.114e-05 0)
(0.0008919 6.492e-05 0)
(0.0008781 5.913e-05 0)
(0.0008655 5.377e-05 0)
(0.000854 4.882e-05 0)
(0.0008435 4.425e-05 0)
(0.000834 4.006e-05 0)
(0.0008253 3.621e-05 0)
(0.0008175 3.268e-05 0)
(0.0008104 2.946e-05 0)
(0.000804 2.652e-05 0)
(0.0007983 2.384e-05 0)
(0.0007931 2.141e-05 0)
(0.0007884 1.921e-05 0)
(0.0007841 1.723e-05 0)
(0.0007804 1.544e-05 0)
(0.000777 1.383e-05 0)
(0.0007739 1.24e-05 0)
(0.0007712 1.113e-05 0)
(0.0007687 1.001e-05 0)
(0.0007665 9.04e-06 0)
(0.0007645 8.209e-06 0)
(0.0007627 7.512e-06 0)
(0.0007611 6.946e-06 0)
(0.0007596 6.504e-06 0)
(0.0007583 6.182e-06 0)
(0.0007571 5.969e-06 0)
(0.000756 5.851e-06 0)
(0.0007549 5.807e-06 0)
(0.0007539 5.804e-06 0)
(0.001206 9.572e-05 0)
(0.001225 0.0002427 0)
(0.001251 0.0003422 0)
(0.001275 0.0003992 0)
(0.001292 0.0004234 0)
(0.001299 0.0004246 0)
(0.001298 0.0004105 0)
(0.001288 0.0003872 0)
(0.001273 0.0003589 0)
(0.001254 0.0003286 0)
(0.001232 0.000298 0)
(0.001208 0.0002683 0)
(0.001185 0.00024 0)
(0.001162 0.0002136 0)
(0.00114 0.000189 0)
(0.001119 0.0001663 0)
(0.0011 0.0001454 0)
(0.001082 0.0001261 0)
(0.001067 0.0001082 0)
(0.001053 9.164e-05 0)
(0.001042 7.622e-05 0)
(0.001032 6.177e-05 0)
(0.001025 4.814e-05 0)
(0.001019 3.519e-05 0)
(0.001016 2.279e-05 0)
(0.001014 1.081e-05 0)
(0.001014 -8.656e-07 0)
(0.001016 -1.234e-05 0)
(0.00102 -2.372e-05 0)
(0.001026 -3.509e-05 0)
(0.001034 -4.654e-05 0)
(0.001044 -5.814e-05 0)
(0.001056 -6.996e-05 0)
(0.00107 -8.204e-05 0)
(0.001086 -9.444e-05 0)
(0.001105 -0.0001072 0)
(0.001126 -0.0001203 0)
(0.001149 -0.0001338 0)
(0.001175 -0.0001476 0)
(0.001203 -0.0001617 0)
(0.001234 -0.000176 0)
(0.001267 -0.0001905 0)
(0.001303 -0.000205 0)
(0.001341 -0.0002194 0)
(0.001382 -0.0002334 0)
(0.001426 -0.0002468 0)
(0.001472 -0.0002594 0)
(0.00152 -0.0002709 0)
(0.00157 -0.0002808 0)
(0.001622 -0.0002888 0)
(0.001676 -0.0002946 0)
(0.00173 -0.0002976 0)
(0.001785 -0.0002975 0)
(0.001839 -0.0002939 0)
(0.001893 -0.0002864 0)
(0.001945 -0.0002747 0)
(0.001995 -0.0002586 0)
(0.002042 -0.0002381 0)
(0.002084 -0.0002132 0)
(0.002122 -0.0001841 0)
(0.002153 -0.0001514 0)
(0.002179 -0.0001156 0)
(0.002197 -7.752e-05 0)
(0.002208 -3.807e-05 0)
(0.002211 1.774e-06 0)
(0.002207 4.106e-05 0)
(0.002195 7.891e-05 0)
(0.002177 0.0001146 0)
(0.002153 0.0001475 0)
(0.002122 0.0001772 0)
(0.002087 0.0002034 0)
(0.002047 0.000226 0)
(0.002003 0.0002448 0)
(0.001957 0.00026 0)
(0.001908 0.0002715 0)
(0.001857 0.0002796 0)
(0.001806 0.0002844 0)
(0.001753 0.0002862 0)
(0.001701 0.0002853 0)
(0.001649 0.000282 0)
(0.001598 0.0002765 0)
(0.001548 0.0002692 0)
(0.001499 0.0002604 0)
(0.001453 0.0002505 0)
(0.001408 0.0002396 0)
(0.001365 0.000228 0)
(0.001324 0.000216 0)
(0.001286 0.0002037 0)
(0.001249 0.0001914 0)
(0.001215 0.0001792 0)
(0.001183 0.0001672 0)
(0.001154 0.0001555 0)
(0.001126 0.0001442 0)
(0.0011 0.0001334 0)
(0.001076 0.0001231 0)
(0.001054 0.0001133 0)
(0.001034 0.0001041 0)
(0.001016 9.537e-05 0)
(0.0009985 8.723e-05 0)
(0.0009828 7.964e-05 0)
(0.0009684 7.259e-05 0)
(0.0009553 6.605e-05 0)
(0.0009434 6e-05 0)
(0.0009325 5.443e-05 0)
(0.0009226 4.93e-05 0)
(0.0009136 4.458e-05 0)
(0.0009055 4.027e-05 0)
(0.0008981 3.632e-05 0)
(0.0008914 3.272e-05 0)
(0.0008854 2.944e-05 0)
(0.00088 2.646e-05 0)
(0.0008751 2.376e-05 0)
(0.0008707 2.131e-05 0)
(0.0008667 1.911e-05 0)
(0.0008631 1.713e-05 0)
(0.0008599 1.536e-05 0)
(0.000857 1.378e-05 0)
(0.0008545 1.239e-05 0)
(0.0008522 1.118e-05 0)
(0.0008501 1.013e-05 0)
(0.0008482 9.24e-06 0)
(0.0008466 8.505e-06 0)
(0.000845 7.915e-06 0)
(0.0008437 7.465e-06 0)
(0.0008424 7.144e-06 0)
(0.0008413 6.938e-06 0)
(0.0008403 6.829e-06 0)
(0.0008392 6.793e-06 0)
(0.001205 8.455e-05 0)
(0.001221 0.0002193 0)
(0.001245 0.0003161 0)
(0.001269 0.0003772 0)
(0.001288 0.000409 0)
(0.001301 0.0004186 0)
(0.001307 0.0004124 0)
(0.001306 0.0003958 0)
(0.001299 0.0003726 0)
(0.001287 0.0003458 0)
(0.001273 0.0003174 0)
(0.001256 0.0002888 0)
(0.001238 0.0002609 0)
(0.00122 0.000234 0)
(0.001202 0.0002086 0)
(0.001185 0.0001846 0)
(0.001169 0.0001622 0)
(0.001154 0.0001413 0)
(0.001141 0.0001217 0)
(0.001129 0.0001033 0)
(0.001119 8.607e-05 0)
(0.001111 6.976e-05 0)
(0.001104 5.427e-05 0)
(0.001099 3.946e-05 0)
(0.001096 2.52e-05 0)
(0.001095 1.135e-05 0)
(0.001096 -2.2e-06 0)
(0.001098 -1.557e-05 0)
(0.001103 -2.886e-05 0)
(0.001109 -4.217e-05 0)
(0.001117 -5.559e-05 0)
(0.001127 -6.922e-05 0)
(0.00114 -8.311e-05 0)
(0.001154 -9.733e-05 0)
(0.00117 -0.0001119 0)
(0.001189 -0.000127 0)
(0.00121 -0.0001424 0)
(0.001233 -0.0001583 0)
(0.001259 -0.0001746 0)
(0.001288 -0.0001912 0)
(0.001319 -0.0002082 0)
(0.001352 -0.0002253 0)
(0.001388 -0.0002424 0)
(0.001427 -0.0002594 0)
(0.001469 -0.000276 0)
(0.001513 -0.0002919 0)
(0.001559 -0.0003069 0)
(0.001608 -0.0003205 0)
(0.001659 -0.0003324 0)
(0.001712 -0.0003421 0)
(0.001767 -0.0003491 0)
(0.001822 -0.0003529 0)
(0.001879 -0.0003531 0)
(0.001935 -0.000349 0)
(0.00199 -0.0003404 0)
(0.002044 -0.0003268 0)
(0.002096 -0.0003079 0)
(0.002144 -0.0002837 0)
(0.002188 -0.0002542 0)
(0.002227 -0.0002197 0)
(0.00226 -0.0001807 0)
(0.002287 -0.0001379 0)
(0.002306 -9.243e-05 0)
(0.002317 -4.527e-05 0)
(0.00232 2.34e-06 0)
(0.002316 4.921e-05 0)
(0.002304 9.43e-05 0)
(0.002284 0.0001367 0)
(0.002259 0.0001757 0)
(0.002227 0.0002109 0)
(0.00219 0.0002419 0)
(0.002149 0.0002685 0)
(0.002104 0.0002907 0)
(0.002056 0.0003086 0)
(0.002006 0.0003221 0)
(0.001954 0.0003316 0)
(0.001901 0.0003372 0)
(0.001848 0.0003393 0)
(0.001794 0.0003381 0)
(0.001741 0.0003341 0)
(0.001689 0.0003276 0)
(0.001638 0.0003189 0)
(0.001589 0.0003085 0)