/*--------------------------------*- C++ -*----------------------------------*\
  =========                 |
  \\      /  F ield         | OpenFOAM: The Open Source CFD Toolbox
   \\    /   O peration     | Website:  https://openfoam.org
    \\  /    A nd           | Version:  7
     \\/     M anipulation  |
\*---------------------------------------------------------------------------*/
FoamFile
{
    version     2.0;
    format      ascii;
    class       volScalarField;
    location    "2039.99947343277609";
    object      Y.K;
}
// * * * * * * * * * * * * * * * * * * * * * * * * * * * * * * * * * * * * * //

dimensions      [0 0 0 0 0 0 0];

internalField   nonuniform List<scalar> 
4096
(
3.162e-73
2.827e-71
-9.641e-72
3.572e-71
-2.965e-72
-1.109e-71
4.977e-72
3.72e-72
-2.684e-72
6.101e-72
-1.091e-70
1.657e-69
-2.379e-68
3.507e-67
-4.661e-66
5.892e-65
-6.888e-64
7.602e-63
-7.772e-62
7.463e-61
-6.548e-60
5.345e-59
-3.794e-58
2.505e-57
-1.039e-56
-2.07e-56
1.105e-54
-1.611e-53
1.813e-52
-1.84e-51
1.761e-50
-1.62e-49
1.443e-48
-1.251e-47
1.051e-46
-8.572e-46
6.765e-45
-5.151e-44
3.771e-43
-2.652e-42
1.763e-41
-1.122e-40
6.866e-40
-3.944e-39
2.137e-38
-1.091e-37
5.233e-37
-2.358e-36
9.838e-36
-3.817e-35
1.351e-34
-3.929e-34
8.13e-34
1.698e-33
-2.318e-32
2.211e-31
-7.466e-31
5.026e-30
-1.974e-30
5.431e-29
3.806e-28
5.896e-28
5.218e-27
3.793e-26
3.424e-26
4.875e-25
1.48e-24
3.24e-24
2.485e-23
7.03e-23
1.865e-22
1.351e-21
5.98e-21
8.835e-20
1.342e-18
3.669e-18
7.403e-18
1.326e-17
2.229e-17
3.598e-17
5.633e-17
8.609e-17
1.289e-16
1.893e-16
2.736e-16
3.893e-16
5.462e-16
7.562e-16
1.034e-15
1.398e-15
1.869e-15
2.475e-15
3.245e-15
4.219e-15
5.439e-15
6.958e-15
8.837e-15
1.115e-14
1.397e-14
1.741e-14
2.157e-14
2.659e-14
3.26e-14
3.979e-14
4.836e-14
5.852e-14
7.053e-14
8.469e-14
1.013e-13
1.208e-13
1.436e-13
1.702e-13
2.01e-13
2.368e-13
2.782e-13
3.26e-13
3.81e-13
4.443e-13
5.169e-13
5.999e-13
6.947e-13
8.025e-13
9.247e-13
1.062e-12
1.214e-12
1.378e-12
1.541e-12
1.671e-12
-9.404e-71
4.969e-70
-6.428e-70
8.11e-71
4.658e-70
-4.259e-70
1.177e-71
2.563e-70
-8.265e-71
3.247e-70
-6.563e-69
9.179e-68
-1.388e-66
1.984e-65
-2.661e-64
3.341e-63
-3.923e-62
4.303e-61
-4.406e-60
4.202e-59
-3.715e-58
3.022e-57
-2.17e-56
1.418e-55
-6.426e-55
-5.773e-55
5.36e-53
-8.117e-52
9.256e-51
-9.447e-50
9.059e-49
-8.334e-48
7.419e-47
-6.419e-46
5.382e-45
-4.378e-44
3.445e-43
-2.615e-42
1.908e-41
-1.335e-40
8.922e-40
-5.678e-39
3.43e-38
-1.961e-37
1.059e-36
-5.384e-36
2.575e-35
-1.156e-34
4.849e-34
-1.885e-33
6.656e-33
-1.977e-32
4.648e-32
4.831e-32
-9.434e-31
1.018e-29
-2.966e-29
2.418e-28
3.548e-29
3.155e-27
2.032e-26
3.712e-26
2.997e-25
1.883e-24
2.418e-24
2.383e-23
7.343e-23
1.711e-22
1.124e-21
3.204e-21
8.087e-21
4.989e-20
1.633e-19
1.093e-18
2.96e-18
6.055e-18
1.099e-17
1.863e-17
3.021e-17
4.745e-17
7.264e-17
1.088e-16
1.6e-16
2.314e-16
3.295e-16
4.625e-16
6.409e-16
8.774e-16
1.187e-15
1.59e-15
2.109e-15
2.77e-15
3.608e-15
4.661e-15
5.975e-15
7.605e-15
9.614e-15
1.208e-14
1.508e-14
1.873e-14
2.314e-14
2.844e-14
3.48e-14
4.238e-14
5.14e-14
6.208e-14
7.471e-14
8.957e-14
1.07e-13
1.275e-13
1.513e-13
1.791e-13
2.114e-13
2.489e-13
2.921e-13
3.421e-13
3.996e-13
4.656e-13
5.413e-13
6.28e-13
7.269e-13
8.395e-13
9.673e-13
1.112e-12
1.274e-12
1.452e-12
1.643e-12
1.825e-12
2.106e-69
-1.469e-68
3.725e-68
-5.1e-68
3.678e-68
-6.384e-69
-1.348e-68
1.254e-68
5.355e-70
1.75e-68
-3.693e-67
5.007e-66
-7.6e-65
1.091e-63
-1.466e-62
1.841e-61
-2.159e-60
2.364e-59
-2.415e-58
2.299e-57
-2.033e-56
1.656e-55
-1.212e-54
7.884e-54
-4.091e-53
3.191e-53
2.19e-51
-3.658e-50
4.299e-49
-4.443e-48
4.285e-47
-3.952e-46
3.521e-45
-3.046e-44
2.55e-43
-2.07e-42
1.626e-41
-1.231e-40
8.968e-40
-6.26e-39
4.175e-38
-2.651e-37
1.599e-36
-9.123e-36
4.92e-35
-2.497e-34
1.192e-33
-5.344e-33
2.243e-32
-8.758e-32
3.135e-31
-9.678e-31
2.677e-30
-1.055e-31
-2.795e-29
4.329e-28
-9.003e-28
1.113e-26
1.178e-26
1.922e-25
1.071e-24
2.452e-24
1.737e-23
9.015e-23
1.625e-22
1.163e-21
3.53e-21
8.673e-21
4.754e-20
1.327e-19
3.13e-19
1.465e-18
3.657e-18
7.154e-18
1.266e-17
2.114e-17
3.388e-17
5.264e-17
7.971e-17
1.18e-16
1.714e-16
2.446e-16
3.437e-16
4.761e-16
6.51e-16
8.796e-16
1.176e-15
1.556e-15
2.04e-15
2.653e-15
3.423e-15
4.385e-15
5.578e-15
7.053e-15
8.864e-15
1.108e-14
1.378e-14
1.704e-14
2.099e-14
2.574e-14
3.142e-14
3.821e-14
4.63e-14
5.588e-14
6.722e-14
8.059e-14
9.631e-14
1.148e-13
1.363e-13
1.615e-13
1.907e-13
2.247e-13
2.641e-13
3.096e-13
3.621e-13
4.225e-13
4.919e-13
5.714e-13
6.624e-13
7.663e-13
8.846e-13
1.019e-12
1.172e-12
1.344e-12
1.539e-12
1.757e-12
2.001e-12
2.278e-12
-3.444e-68
2.741e-67
-9.744e-67
2.146e-66
-3.114e-66
3.014e-66
-1.796e-66
4.044e-67
1.808e-67
1.026e-66
-2.022e-65
2.612e-64
-3.978e-63
5.728e-62
-7.703e-61
9.663e-60
-1.13e-58
1.233e-57
-1.256e-56
1.193e-55
-1.055e-54
8.633e-54
-6.446e-53
4.18e-52
-2.516e-51
6.07e-51
6.341e-50
-1.375e-48
1.722e-47
-1.826e-46
1.784e-45
-1.655e-44
1.479e-43
-1.282e-42
1.072e-41
-8.702e-41
6.828e-40
-5.167e-39
3.76e-38
-2.623e-37
1.748e-36
-1.11e-35
6.694e-35
-3.821e-34
2.062e-33
-1.047e-32
5.001e-32
-2.245e-31
9.452e-31
-3.718e-30
1.357e-29
-4.403e-29
1.329e-28
-1.13e-28
-2.738e-28
1.649e-26
-6.837e-27
4.631e-25
1.026e-24
1.157e-23
5.285e-23
1.649e-22
9.582e-22
3.907e-21
9.604e-21
5.155e-20
1.499e-19
3.73e-19
1.538e-18
3.943e-18
7.887e-18
1.435e-17
2.462e-17
4.042e-17
6.402e-17
9.836e-17
1.471e-16
2.149e-16
3.072e-16
4.308e-16
5.937e-16
8.055e-16
1.078e-15
1.423e-15
1.859e-15
2.403e-15
3.079e-15
3.912e-15
4.936e-15
6.187e-15
7.71e-15
9.556e-15
1.179e-14
1.448e-14
1.771e-14
2.159e-14
2.621e-14
3.173e-14
3.829e-14
4.607e-14
5.528e-14
6.614e-14
7.893e-14
9.396e-14
1.116e-13
1.322e-13
1.562e-13
1.842e-13
2.167e-13
2.544e-13
2.981e-13
3.485e-13
4.065e-13
4.733e-13
5.5e-13
6.379e-13
7.383e-13
8.53e-13
9.836e-13
1.132e-12
1.301e-12
1.492e-12
1.708e-12
1.951e-12
2.225e-12
2.534e-12
2.883e-12
3.33e-12
4.854e-67
-4.194e-66
1.845e-65
-5.436e-65
1.132e-64
-1.727e-64
1.94e-64
-1.555e-64
7.801e-65
5.08e-65
-1.08e-63
1.315e-62
-2.003e-61
2.883e-60
-3.868e-59
4.829e-58
-5.614e-57
6.086e-56
-6.16e-55
5.828e-54
-5.15e-53
4.234e-52
-3.206e-51
2.18e-50
-1.286e-49
5.238e-49
3.511e-49
-3.844e-47
5.625e-46
-6.295e-45
6.309e-44
-5.926e-43
5.336e-42
-4.651e-41
3.895e-40
-3.163e-39
2.484e-38
-1.882e-37
1.371e-36
-9.575e-36
6.394e-35
-4.069e-34
2.46e-33
-1.409e-32
7.631e-32
-3.883e-31
1.862e-30
-8.386e-30
3.549e-29
-1.409e-28
5.249e-28
-1.783e-27
5.931e-27
-7.922e-27
1.979e-26
5.537e-25
1.062e-24
1.627e-23
8.54e-23
6.575e-22
2.754e-21
9.017e-21
4.736e-20
1.655e-19
4.382e-19
1.75e-18
4.766e-18
1.019e-17
1.969e-17
3.569e-17
6.154e-17
1.017e-16
1.618e-16
2.49e-16
3.718e-16
5.399e-16
7.645e-16
1.058e-15
1.435e-15
1.91e-15
2.502e-15
3.228e-15
4.112e-15
5.179e-15
6.459e-15
7.987e-15
9.804e-15
1.196e-14
1.451e-14
1.752e-14
2.107e-14
2.525e-14
3.018e-14
3.597e-14
4.279e-14
5.078e-14
6.016e-14
7.116e-14
8.402e-14
9.907e-14
1.166e-13
1.371e-13
1.61e-13
1.887e-13
2.208e-13
2.581e-13
3.013e-13
3.511e-13
4.086e-13
4.748e-13
5.509e-13
6.383e-13
7.383e-13
8.527e-13
9.833e-13
1.132e-12
1.302e-12
1.494e-12
1.712e-12
1.959e-12
2.238e-12
2.552e-12
2.906e-12
3.303e-12
3.749e-12
4.247e-12
4.811e-12
5.587e-12
-6.26e-66
5.706e-65
-2.911e-64
1.055e-63
-2.831e-63
5.813e-63
-9.272e-63
1.142e-62
-1.063e-62
8.639e-63
-5.591e-62
6.439e-61
-9.738e-60
1.394e-58
-1.855e-57
2.292e-56
-2.634e-55
2.822e-54
-2.827e-53
2.653e-52
-2.334e-51
1.923e-50
-1.474e-49
1.037e-48
-6.504e-48
3.376e-47
-1.026e-46
-4.724e-46
1.324e-44
-1.693e-43
1.8e-42
-1.735e-41
1.59e-40
-1.404e-39
1.179e-38
-9.605e-38
7.572e-37
-5.757e-36
4.21e-35
-2.953e-34
1.982e-33
-1.269e-32
7.721e-32
-4.453e-31
2.434e-30
-1.245e-29
6.013e-29
-2.725e-28
1.161e-27
-4.645e-27
1.761e-26
-6.132e-26
2.263e-25
-2.281e-25
1.714e-24
1.582e-23
1.131e-22
9.253e-22
4.836e-21
3.321e-20
1.27e-19
4.166e-19
1.777e-18
5.303e-18
1.258e-17
2.686e-17
5.347e-17
1.004e-16
1.79e-16
3.046e-16
4.964e-16
7.776e-16
1.174e-15
1.714e-15
2.427e-15
3.341e-15
4.485e-15
5.885e-15
7.567e-15
9.556e-15
1.188e-14
1.457e-14
1.765e-14
2.119e-14
2.521e-14
2.98e-14
3.503e-14
4.099e-14
4.78e-14
5.559e-14
6.452e-14
7.477e-14
8.655e-14
1.001e-13
1.158e-13
1.338e-13
1.546e-13
1.786e-13
2.064e-13
2.384e-13
2.754e-13
3.18e-13
3.671e-13
4.237e-13
4.887e-13
5.635e-13
6.493e-13
7.478e-13
8.605e-13
9.894e-13
1.137e-12
1.304e-12
1.496e-12
1.713e-12
1.96e-12
2.24e-12
2.556e-12
2.914e-12
3.318e-12
3.773e-12
4.284e-12
4.858e-12
5.501e-12
6.22e-12
7.022e-12
7.916e-12
8.916e-12
1.036e-11
7.596e-65
-7.17e-64
4.074e-63
-1.728e-62
5.637e-62
-1.454e-61
3.006e-61
-4.974e-61
6.391e-61
-5.175e-61
-2.231e-60
3.049e-59
-4.574e-58
6.46e-57
-8.452e-56
1.025e-54
-1.156e-53
1.216e-52
-1.198e-51
1.109e-50
-9.665e-50
7.936e-49
-6.123e-48
4.406e-47
-2.914e-46
1.715e-45
-8.19e-45
2.281e-44
1.18e-43
-2.933e-42
3.754e-41
-3.852e-40
3.686e-39
-3.357e-38
2.836e-37
-2.325e-36
1.849e-35
-1.417e-34
1.045e-33
-7.4e-33
5.018e-32
-3.249e-31
2.003e-30
-1.171e-29
6.51e-29
-3.36e-28
1.644e-27
-7.519e-27
3.238e-26
-1.302e-25
4.991e-25
-1.714e-24
6.74e-24
2.519e-24
9.539e-23
9.326e-22
6.786e-21
4.737e-20
2.469e-19
1.269e-18
4.389e-18
1.213e-17
3.007e-17
6.891e-17
1.475e-16
2.965e-16
5.619e-16
1.008e-15
1.718e-15
2.79e-15
4.332e-15
6.454e-15
9.257e-15
1.282e-14
1.721e-14
2.244e-14
2.853e-14
3.545e-14
4.317e-14
5.166e-14
6.091e-14
7.093e-14
8.174e-14
9.341e-14
1.06e-13
1.198e-13
1.348e-13
1.513e-13
1.696e-13
1.899e-13
2.127e-13
2.383e-13
2.672e-13
2.999e-13
3.371e-13
3.795e-13
4.277e-13
4.828e-13
5.457e-13
6.176e-13
6.999e-13
7.938e-13
9.013e-13
1.024e-12
1.164e-12
1.324e-12
1.506e-12
1.713e-12
1.949e-12
2.218e-12
2.522e-12
2.867e-12
3.258e-12
3.701e-12
4.2e-12
4.763e-12
5.398e-12
6.111e-12
6.913e-12
7.811e-12
8.816e-12
9.938e-12
1.119e-11
1.258e-11
1.413e-11
1.585e-11
1.775e-11
2.059e-11
-8.766e-64
8.466e-63
-5.217e-62
2.504e-61
-9.573e-61
2.976e-60
-7.614e-60
1.602e-59
-2.738e-59
4.123e-59
-1.388e-58
1.416e-57
-2.065e-56
2.846e-55
-3.624e-54
4.273e-53
-4.682e-52
4.793e-51
-4.607e-50
4.176e-49
-3.582e-48
2.912e-47
-2.242e-46
1.631e-45
-1.112e-44
7.011e-44
-3.945e-43
1.928e-42
-6.504e-42
-4.174e-43
3.559e-40
-5.231e-39
5.882e-38
-5.857e-37
5.047e-36
-4.159e-35
3.373e-34
-2.635e-33
1.98e-32
-1.427e-31
9.876e-31
-6.541e-30
4.13e-29
-2.481e-28
1.425e-27
-7.42e-27
3.712e-26
-1.72e-25
7.56e-25
-3.06e-24
1.195e-23
-3.74e-23
1.432e-22
7.335e-22
5.294e-21
5.396e-20
3.301e-19
1.884e-18
7.268e-18
2.261e-17
6.299e-17
1.615e-16
3.841e-16
8.51e-16
1.761e-15
3.416e-15
6.23e-15
1.072e-14
1.747e-14
2.706e-14
3.999e-14
5.659e-14
7.699e-14
1.01e-13
1.283e-13
1.584e-13
1.904e-13
2.238e-13
2.579e-13
2.924e-13
3.269e-13
3.613e-13
3.959e-13
4.309e-13
4.668e-13
5.04e-13
5.432e-13
5.852e-13
6.307e-13
6.805e-13
7.357e-13
7.973e-13
8.663e-13
9.44e-13
1.032e-12
1.131e-12
1.244e-12
1.373e-12
1.518e-12
1.684e-12
1.872e-12
2.086e-12
2.33e-12
2.606e-12
2.92e-12
3.276e-12
3.679e-12
4.135e-12
4.652e-12
5.236e-12
5.895e-12
6.639e-12
7.477e-12
8.42e-12
9.48e-12
1.067e-11
1.2e-11
1.349e-11
1.516e-11
1.702e-11
1.91e-11
2.14e-11
2.396e-11
2.68e-11
2.994e-11
3.341e-11
3.721e-11
4.302e-11
9.622e-63
-9.432e-62
6.186e-61
-3.285e-60
1.434e-59
-5.233e-59
1.609e-58
-4.153e-58
8.777e-58
-1.182e-57
-3.504e-57
6.137e-56
-8.862e-55
1.176e-53
-1.438e-52
1.628e-51
-1.714e-50
1.691e-49
-1.572e-48
1.385e-47
-1.16e-46
9.268e-46
-7.066e-45
5.135e-44
-3.546e-43
2.311e-42
-1.402e-41
7.784e-41
-4.044e-40
1.987e-39
-6.771e-39
2.891e-40
3.191e-37
-4.412e-36
4.528e-35
-4.389e-34
3.868e-33
-3.202e-32
2.524e-31
-1.893e-30
1.368e-29
-9.491e-29
6.273e-28
-3.969e-27
2.412e-26
-1.282e-25
6.715e-25
-3.13e-24
1.44e-23
-5.873e-23
2.482e-22
-4.613e-22
4.613e-21
4.128e-20
3.214e-19
2.147e-18
9.469e-18
3.396e-17
1.092e-16
3.215e-16
8.726e-16
2.188e-15
5.078e-15
1.094e-14
2.191e-14
4.097e-14
7.175e-14
1.182e-13
1.837e-13
2.709e-13
3.803e-13
5.104e-13
6.574e-13
8.162e-13
9.803e-13
1.143e-12
1.299e-12
1.443e-12
1.573e-12
1.688e-12
1.79e-12
1.879e-12
1.959e-12
2.033e-12
2.102e-12
2.172e-12
2.244e-12
2.322e-12
2.409e-12
2.507e-12
2.619e-12
2.747e-12
2.895e-12
3.065e-12
3.261e-12
3.486e-12
3.744e-12
4.038e-12
4.374e-12
4.757e-12
5.192e-12
5.687e-12
6.248e-12
6.883e-12
7.602e-12
8.415e-12
9.333e-12
1.037e-11
1.153e-11
1.284e-11
1.432e-11
1.598e-11
1.783e-11
1.991e-11
2.224e-11
2.484e-11
2.774e-11
3.097e-11
3.457e-11
3.857e-11
4.3e-11
4.792e-11
5.335e-11
5.934e-11
6.595e-11
7.323e-11
8.11e-11
9.337e-11
-9.965e-62
9.852e-61
-6.788e-60
3.922e-59
-1.921e-58
8.075e-58
-2.934e-57
9.207e-57
-2.467e-56
7.116e-56
-2.629e-55
2.665e-54
-3.541e-53
4.451e-52
-5.152e-51
5.522e-50
-5.525e-49
5.2e-48
-4.636e-47
3.938e-46
-3.201e-45
2.497e-44
-1.872e-43
1.348e-42
-9.304e-42
6.137e-41
-3.838e-40
2.274e-39
-1.32e-38
7.443e-38
-4.034e-37
2.062e-36
-9.513e-36
3.934e-35
-6.005e-35
-7.815e-34
1.265e-32
-1.313e-31
1.164e-30
-9.229e-30
7.075e-29
-5.206e-28
3.584e-27
-2.385e-26
1.502e-25
-8.77e-25
5.23e-24
-2.662e-23
1.45e-22
-6.384e-22
4.337e-21
4.451e-21
1.893e-19
1.703e-18
8.933e-18
3.797e-17
1.442e-16
4.997e-16
1.587e-15
4.621e-15
1.236e-14
3.039e-14
6.883e-14
1.439e-13
2.784e-13
5.004e-13
8.395e-13
1.32e-12
1.954e-12
2.736e-12
3.64e-12
4.625e-12
5.631e-12
6.607e-12
7.49e-12
8.245e-12
8.843e-12
9.279e-12
9.571e-12
9.74e-12
9.802e-12
9.778e-12
9.713e-12
9.618e-12
9.514e-12
9.416e-12
9.34e-12
9.289e-12
9.299e-12
9.345e-12
9.444e-12
9.601e-12
9.827e-12
1.012e-11
1.05e-11
1.095e-11
1.149e-11
1.214e-11
1.288e-11
1.375e-11
1.475e-11
1.589e-11
1.718e-11
1.865e-11
2.032e-11
2.221e-11
2.433e-11
2.672e-11
2.94e-11
3.241e-11
3.578e-11
3.955e-11
4.377e-11
4.847e-11
5.371e-11
5.954e-11
6.602e-11
7.321e-11
8.119e-11
9.001e-11
9.975e-11
1.105e-10
1.224e-10
1.354e-10
1.497e-10
1.654e-10
1.822e-10
2.087e-10
9.568e-61
-9.491e-60
6.799e-59
-4.22e-58
2.287e-57
-1.093e-56
4.631e-56
-1.717e-55
5.429e-55
-3.689e-55
-5.098e-54
9.715e-53
-1.281e-51
1.497e-50
-1.611e-49
1.613e-48
-1.515e-47
1.347e-46
-1.143e-45
9.31e-45
-7.306e-44
5.541e-43
-4.066e-42
2.887e-41
-1.981e-40
1.31e-39
-8.292e-39
5.056e-38
-3.041e-37
1.797e-36
-1.042e-35
5.911e-35
-3.279e-34
1.779e-33
-9.46e-33
4.957e-32
-2.585e-31
1.356e-30
-7.325e-30
4.935e-29
-2.949e-28
1.356e-27
-7.246e-27
2.592e-26
-7.79e-26
3.589e-25
6.66e-24
2.76e-24
2.176e-22
5.516e-22
7.32e-20
6.22e-19
5.187e-18
2.906e-17
1.346e-16
5.605e-16
2.127e-15
7.367e-15
2.328e-14
6.716e-14
1.769e-13
4.258e-13
9.387e-13
1.9e-12
3.539e-12
6.1e-12
9.773e-12
1.463e-11
2.056e-11
2.728e-11
3.432e-11
4.123e-11
4.735e-11
5.248e-11
5.6e-11
5.817e-11
5.881e-11
5.831e-11
5.705e-11
5.511e-11
5.273e-11
5.013e-11
4.748e-11
4.493e-11
4.255e-11
4.042e-11
3.856e-11
3.699e-11
3.571e-11
3.473e-11
3.403e-11
3.358e-11
3.348e-11
3.363e-11
3.401e-11
3.468e-11
3.563e-11
3.687e-11
3.841e-11
4.027e-11
4.248e-11
4.505e-11
4.801e-11
5.141e-11
5.528e-11
5.966e-11
6.461e-11
7.018e-11
7.643e-11
8.343e-11
9.126e-11
9.999e-11
1.097e-10
1.205e-10
1.325e-10
1.459e-10
1.606e-10
1.769e-10
1.95e-10
2.148e-10
2.367e-10
2.607e-10
2.871e-10
3.16e-10
3.476e-10
3.822e-10
4.189e-10
4.774e-10
-8.272e-60
8.189e-59
-6.046e-58
3.985e-57
-2.361e-56
1.275e-55
-6.302e-55
2.892e-54
-1.232e-53
6.671e-53
-3.547e-52
3.637e-51
-4.023e-50
4.262e-49
-4.2e-48
3.872e-47
-3.376e-46
2.813e-45
-2.258e-44
1.754e-43
-1.325e-42
9.753e-42
-7.001e-41
4.9e-40
-3.341e-39
2.214e-38
-1.418e-37
8.848e-37
-5.445e-36
3.294e-35
-1.952e-34
1.13e-33
-6.367e-33
3.475e-32
-1.831e-31
9.279e-31
-4.527e-30
2.14e-29
-1.012e-28
5.384e-28
-2.676e-27
1.049e-26
-4.369e-26
2.281e-25
-1.42e-24
1.546e-23
9.857e-24
1.059e-21
-2.038e-21
1.905e-19
2.216e-18
1.499e-17
8.402e-17
4.243e-16
1.952e-15
8.187e-15
3.123e-14
1.082e-13
3.401e-13
9.702e-13
2.511e-12
5.906e-12
1.264e-11
2.469e-11
4.415e-11
7.272e-11
1.109e-10
1.576e-10
2.098e-10
2.631e-10
3.123e-10
3.546e-10
3.827e-10
4.01e-10
3.999e-10
3.921e-10
3.764e-10
3.543e-10
3.286e-10
3.014e-10
2.743e-10
2.487e-10
2.252e-10
2.041e-10
1.855e-10
1.695e-10
1.559e-10
1.445e-10
1.351e-10
1.274e-10
1.213e-10
1.166e-10
1.132e-10
1.11e-10
1.096e-10
1.098e-10
1.105e-10
1.123e-10
1.149e-10
1.185e-10
1.231e-10
1.287e-10
1.353e-10
1.43e-10
1.519e-10
1.62e-10
1.736e-10
1.866e-10
2.012e-10
2.176e-10
2.36e-10
2.564e-10
2.791e-10
3.043e-10
3.322e-10
3.63e-10
3.971e-10
4.346e-10
4.759e-10
5.213e-10
5.711e-10
6.257e-10
6.853e-10
7.504e-10
8.214e-10
8.988e-10
9.803e-10
1.111e-09
6.131e-59
-6.062e-58
4.57e-57
-3.137e-56
1.984e-55
-1.165e-54
6.586e-54
-3.302e-53
1.377e-52
2.577e-52
-6.338e-51
9.197e-50
-1.014e-48
9.696e-48
-8.538e-47
7.109e-46
-5.681e-45
4.4e-44
-3.324e-43
2.458e-42
-1.785e-41
1.275e-40
-8.965e-40
6.201e-39
-4.217e-38
2.814e-37
-1.839e-36
1.183e-35
-7.534e-35
4.733e-34
-2.927e-33
1.777e-32
-1.055e-31
6.099e-31
-3.415e-30
1.837e-29
-9.386e-29
4.455e-28
-1.951e-27
7.052e-27
-1.232e-26
-7.146e-26
1.126e-24
-9.676e-24
6.908e-23
-3.798e-22
4.04e-21
-4.581e-21
3.463e-19
4.396e-18
3.266e-17
2.039e-16
1.151e-15
5.913e-15
2.764e-14
1.171e-13
4.492e-13
1.556e-12
4.859e-12
1.368e-11
3.473e-11
7.958e-11
1.649e-10
3.098e-10
5.298e-10
8.308e-10
1.202e-09
1.616e-09
2.032e-09
2.404e-09
2.689e-09
2.885e-09
2.901e-09
2.846e-09
2.712e-09
2.517e-09
2.284e-09
2.038e-09
1.794e-09
1.566e-09
1.36e-09
1.179e-09
1.023e-09
8.903e-10
7.793e-10
6.871e-10
6.111e-10
5.487e-10
4.978e-10
4.566e-10
4.236e-10
3.974e-10
3.77e-10
3.617e-10
3.506e-10
3.436e-10
3.395e-10
3.4e-10
3.426e-10
3.481e-10
3.564e-10
3.676e-10
3.817e-10
3.987e-10
4.188e-10
4.421e-10
4.688e-10
4.992e-10
5.336e-10
5.721e-10
6.152e-10
6.631e-10
7.165e-10
7.755e-10
8.408e-10
9.128e-10
9.921e-10
1.079e-09
1.175e-09
1.28e-09
1.394e-09
1.52e-09
1.656e-09
1.804e-09
1.966e-09
2.141e-09
2.324e-09
2.621e-09
-4.026e-58
3.98e-57
-3.029e-56
2.086e-55
-1.321e-54
8.806e-54
-5.409e-53
4.395e-52
-3.834e-51
3.402e-50
-2.943e-49
2.455e-48
-1.971e-47
1.532e-46
-1.159e-45
8.58e-45
-6.246e-44
4.487e-43
-3.188e-42
2.245e-41
-1.569e-40
1.089e-39
-7.502e-39
5.133e-38
-3.486e-37
2.346e-36
-1.569e-35
1.041e-34
-6.857e-34
4.475e-33
-2.892e-32
1.849e-31
-1.168e-30
7.279e-30
-4.471e-29
2.703e-28
-1.605e-27
9.358e-27
-5.345e-26
2.988e-25
-1.632e-24
8.699e-24
-4.518e-23
2.291e-22
-1.106e-21
6.25e-21
1.366e-20
5.576e-19
7.31e-18
5.961e-17
4.153e-16
2.628e-15
1.516e-14
7.947e-14
3.771e-13
1.614e-12
6.217e-12
2.149e-11
6.66e-11
1.848e-10
4.59e-10
1.022e-09
2.041e-09
3.675e-09
5.986e-09
8.903e-09
1.218e-08
1.545e-08
1.831e-08
2.035e-08
2.15e-08
2.127e-08
2.043e-08
1.896e-08
1.707e-08
1.498e-08
1.289e-08
1.092e-08
9.162e-09
7.634e-09
6.344e-09
5.274e-09
4.4e-09
3.692e-09
3.122e-09
2.665e-09
2.299e-09
2.007e-09
1.773e-09
1.587e-09
1.438e-09
1.32e-09
1.227e-09
1.155e-09
1.1e-09
1.06e-09
1.033e-09
1.016e-09
1.01e-09
1.014e-09
1.025e-09
1.045e-09
1.073e-09
1.109e-09
1.153e-09
1.206e-09
1.267e-09
1.338e-09
1.418e-09
1.508e-09
1.609e-09
1.722e-09
1.848e-09
1.987e-09
2.14e-09
2.309e-09
2.495e-09
2.699e-09
2.921e-09
3.165e-09
3.431e-09
3.72e-09
4.035e-09
4.376e-09
4.745e-09
5.146e-09
5.562e-09
6.238e-09
2.451e-57
-2.986e-56
2.349e-55
-1.425e-54
6.102e-54
1.383e-53
-3.465e-52
4.403e-51
-4.295e-50
3.642e-49
-2.845e-48
2.108e-47
-1.508e-46
1.054e-45
-7.251e-45
4.942e-44
-3.349e-43
2.261e-42
-1.525e-41
1.025e-40
-6.903e-40
4.647e-39
-3.135e-38
2.113e-37
-1.423e-36
9.569e-36
-6.408e-35
4.266e-34
-2.819e-33
1.848e-32
-1.2e-31
7.709e-31
-4.895e-30
3.068e-29
-1.895e-28
1.152e-27
-6.884e-27
4.036e-26
-2.317e-25
1.301e-24
-7.126e-24
3.806e-23
-1.967e-22
1.003e-21
-4.433e-21
3.766e-20
9.909e-19
1.041e-17
8.919e-17
6.926e-16
4.927e-15
3.202e-14
1.891e-13
1.01e-12
4.864e-12
2.101e-11
8.115e-11
2.796e-10
8.578e-10
2.339e-09
5.669e-09
1.222e-08
2.345e-08
4.028e-08
6.22e-08
8.736e-08
1.126e-07
1.345e-07
1.498e-07
1.56e-07
1.529e-07
1.443e-07
1.31e-07
1.149e-07
9.788e-08
8.151e-08
6.669e-08
5.389e-08
4.32e-08
3.45e-08
2.754e-08
2.206e-08
1.776e-08
1.443e-08
1.183e-08
9.816e-09
8.248e-09
7.023e-09
6.064e-09
5.312e-09
4.719e-09
4.252e-09
3.885e-09
3.597e-09
3.374e-09
3.204e-09
3.079e-09
2.991e-09
2.937e-09
2.909e-09
2.916e-09
2.942e-09
2.991e-09
3.063e-09
3.157e-09
3.273e-09
3.411e-09
3.573e-09
3.759e-09
3.97e-09
4.208e-09
4.474e-09
4.769e-09
5.096e-09
5.457e-09
5.855e-09
6.291e-09
6.768e-09
7.289e-09
7.857e-09
8.476e-09
9.147e-09
9.875e-09
1.066e-08
1.151e-08
1.243e-08
1.338e-08
1.493e-08
-7.431e-56
7.36e-55
-5.772e-54
4.266e-53
-2.968e-52
1.954e-51
-1.225e-50
7.366e-50
-4.278e-49
2.417e-48
-1.338e-47
7.317e-47
-3.98e-46
2.17e-45
-1.195e-44
6.696e-44
-3.839e-43
2.264e-42
-1.378e-41
8.695e-41
-5.656e-40
3.795e-39
-2.614e-38
1.846e-37
-1.332e-36
9.814e-36
-7.141e-35
5.145e-34
-3.669e-33
2.587e-32
-1.803e-31
1.241e-30
-8.436e-30
5.655e-29
-3.735e-28
2.43e-27
-1.555e-26
9.778e-26
-6.036e-25
3.655e-24
-2.165e-23
1.263e-22
-7.057e-22
4.158e-21
-1.676e-20
6.037e-19
1.043e-17
1.056e-16
9.251e-16
7.411e-15
5.432e-14
3.624e-13
2.189e-12
1.191e-11
5.804e-11
2.524e-10
9.761e-10
3.345e-09
1.013e-08
2.708e-08
6.38e-08
1.325e-07
2.433e-07
3.967e-07
5.78e-07
7.634e-07
9.246e-07
1.04e-06
1.075e-06
1.048e-06
9.767e-07
8.712e-07
7.477e-07
6.214e-07
5.032e-07
3.993e-07
3.122e-07
2.417e-07
1.861e-07
1.431e-07
1.103e-07
8.548e-08
6.679e-08
5.272e-08
4.213e-08
3.412e-08
2.803e-08
2.338e-08
1.98e-08
1.704e-08
1.489e-08
1.321e-08
1.189e-08
1.087e-08
1.006e-08
9.444e-09
8.973e-09
8.626e-09
8.383e-09
8.232e-09
8.153e-09
8.171e-09
8.24e-09
8.369e-09
8.56e-09
8.809e-09
9.118e-09
9.485e-09
9.914e-09
1.04e-08
1.096e-08
1.158e-08
1.228e-08
1.305e-08
1.39e-08
1.483e-08
1.585e-08
1.697e-08
1.819e-08
1.952e-08
2.096e-08
2.252e-08
2.421e-08
2.603e-08
2.799e-08
3.011e-08
3.229e-08
3.584e-08
3.825e-55
-3.748e-54
2.952e-53
-2.221e-52
1.593e-51
-1.093e-50
7.204e-50
-4.585e-49
2.835e-48
-1.712e-47
1.016e-46
-5.96e-46
3.47e-45
-2.016e-44
1.174e-43
-6.886e-43
4.084e-42
-2.46e-41
1.51e-40
-9.46e-40
6.06e-39
-3.965e-38
2.645e-37
-1.795e-36
1.234e-35
-8.609e-35
5.898e-34
-4.004e-33
2.694e-32
-1.796e-31
1.186e-30
-7.76e-30
5.025e-29
-3.219e-28
2.039e-27
-1.276e-26
7.886e-26
-4.807e-25
2.888e-24
-1.707e-23
9.971e-23
-5.578e-22
3.318e-21
-1.353e-20
4.722e-19
8.95e-18
9.978e-17
9.757e-16
8.775e-15
7.247e-14
5.463e-13
3.734e-12
2.301e-11
1.271e-10
6.256e-10
2.732e-09
1.054e-08
3.579e-08
1.066e-07
2.781e-07
6.339e-07
1.263e-06
2.207e-06
3.398e-06
4.649e-06
5.756e-06
6.567e-06
6.825e-06
6.629e-06
6.135e-06
5.409e-06
4.571e-06
3.728e-06
2.954e-06
2.287e-06
1.74e-06
1.308e-06
9.756e-07
7.258e-07
5.406e-07
4.045e-07
3.051e-07
2.324e-07
1.793e-07
1.402e-07
1.114e-07
8.987e-08
7.373e-08
6.151e-08
5.218e-08
4.5e-08
3.944e-08
3.512e-08
3.174e-08
2.911e-08
2.706e-08
2.548e-08
2.429e-08
2.342e-08
2.282e-08
2.245e-08
2.229e-08
2.235e-08
2.256e-08
2.293e-08
2.345e-08
2.412e-08
2.495e-08
2.593e-08
2.706e-08
2.836e-08
2.981e-08
3.144e-08
3.325e-08
3.524e-08
3.743e-08
3.983e-08
4.245e-08
4.53e-08
4.84e-08
5.176e-08
5.539e-08
5.93e-08
6.352e-08
6.804e-08
7.292e-08
7.79e-08
8.605e-08
-1.514e-54
1.472e-53
-1.162e-52
8.858e-52
-6.493e-51
4.586e-50
-3.132e-49
2.078e-48
-1.346e-47
8.562e-47
-5.377e-46
3.35e-45
-2.079e-44
1.29e-43
-8.01e-43
4.986e-42
-3.112e-41
1.947e-40
-1.221e-39
7.678e-39
-4.838e-38
3.056e-37
-1.937e-36
1.233e-35
-7.892e-35
5.085e-34
-3.253e-33
2.075e-32
-1.318e-31
8.341e-31
-5.252e-30
3.289e-29
-2.047e-28
1.265e-27
-7.761e-27
4.72e-26
-2.844e-25
1.696e-24
-1e-23
5.841e-23
-3.306e-22
2.057e-21
-8.492e-21
2.887e-19
5.999e-18
7.36e-17
8.008e-16
8.057e-15
7.475e-14
6.352e-13
4.911e-12
3.429e-11
2.148e-10
1.199e-09
5.935e-09
2.589e-08
9.908e-08
3.315e-07
9.654e-07
2.441e-06
5.346e-06
1.016e-05
1.681e-05
2.43e-05
3.111e-05
3.625e-05
3.833e-05
3.728e-05
3.446e-05
3.024e-05
2.535e-05
2.045e-05
1.598e-05
1.217e-05
9.077e-06
6.673e-06
4.857e-06
3.518e-06
2.546e-06
1.849e-06
1.352e-06
9.98e-07
7.457e-07
5.651e-07
4.35e-07
3.404e-07
2.71e-07
2.196e-07
1.812e-07
1.521e-07
1.3e-07
1.129e-07
9.973e-08
8.946e-08
8.144e-08
7.519e-08
7.034e-08
6.664e-08
6.386e-08
6.186e-08
6.055e-08
5.971e-08
5.959e-08
5.985e-08
6.051e-08
6.157e-08
6.304e-08
6.488e-08
6.711e-08
6.972e-08
7.271e-08
7.611e-08
7.991e-08
8.413e-08
8.88e-08
9.393e-08
9.954e-08
1.057e-07
1.123e-07
1.195e-07
1.273e-07
1.358e-07
1.448e-07
1.546e-07
1.65e-07
1.762e-07
1.876e-07
2.063e-07
4.468e-54
-4.389e-53
3.497e-52
-2.69e-51
1.99e-50
-1.418e-49
9.728e-49
-6.442e-48
4.122e-47
-2.553e-46
1.535e-45
-8.985e-45
5.135e-44
-2.879e-43
1.593e-42
-8.764e-42
4.846e-41
-2.728e-40
1.583e-39
-9.585e-39
6.08e-38
-4.03e-37
2.766e-36
-1.945e-35
1.386e-34
-9.886e-34
6.879e-33
-4.695e-32
3.152e-31
-2.085e-30
1.362e-29
-8.786e-29
5.607e-28
-3.541e-27
2.214e-26
-1.371e-25
8.41e-25
-5.108e-24
3.075e-23
-1.821e-22
1.125e-21
-4.15e-21
1.368e-19
3.132e-18
4.217e-17
5.078e-16
5.685e-15
5.896e-14
5.626e-13
4.903e-12
3.871e-11
2.748e-10
1.741e-09
9.77e-09
4.825e-08
2.085e-07
7.848e-07
2.561e-06
7.217e-06
1.751e-05
3.655e-05
6.579e-05
0.0001024
0.0001384
0.0001665
0.0001817
0.0001779
0.0001655
0.0001458
0.0001224
9.862e-05
7.678e-05
5.81e-05
4.296e-05
3.12e-05
2.237e-05
1.591e-05
1.128e-05
8.004e-06
5.708e-06
4.104e-06
2.985e-06
2.2e-06
1.647e-06
1.254e-06
9.722e-07
7.674e-07
6.171e-07
5.055e-07
4.218e-07
3.583e-07
3.096e-07
2.72e-07
2.428e-07
2.201e-07
2.023e-07
1.885e-07
1.778e-07
1.697e-07
1.638e-07
1.596e-07
1.571e-07
1.556e-07
1.559e-07
1.571e-07
1.592e-07
1.624e-07
1.665e-07
1.716e-07
1.775e-07
1.845e-07
1.924e-07
2.012e-07
2.111e-07
2.219e-07
2.339e-07
2.47e-07
2.612e-07
2.767e-07
2.935e-07
3.115e-07
3.31e-07
3.519e-07
3.743e-07
3.982e-07
4.239e-07
4.499e-07
4.924e-07
-1.693e-53
1.551e-52
-1.191e-51
9.162e-51
-6.994e-50
5.282e-49
-3.932e-48
2.88e-47
-2.071e-46
1.461e-45
-1.012e-44
6.881e-44
-4.6e-43
3.027e-42
-1.963e-41
1.258e-40
-7.967e-40
4.999e-39
-3.11e-38
1.921e-37
-1.18e-36
7.206e-36
-4.382e-35
2.654e-34
-1.601e-33
9.621e-33
-5.748e-32
3.418e-31
-2.024e-30
1.193e-29
-7.004e-29
4.097e-28
-2.388e-27
1.387e-26
-8.03e-26
4.634e-25
-2.666e-24
1.53e-23
-8.722e-23
5.118e-22
-2.232e-21
3.852e-20
1.237e-18
1.87e-17
2.483e-16
3.073e-15
3.54e-14
3.772e-13
3.688e-12
3.281e-11
2.633e-10
1.89e-09
1.202e-08
6.725e-08
3.282e-07
1.389e-06
5.074e-06
1.592e-05
4.276e-05
9.819e-05
0.0001932
0.0003262
0.0004743
0.000598
0.0006883
0.0006823
0.0006451
0.0005767
0.0004904
0.0003995
0.000314
0.0002394
0.0001778
0.0001293
9.247e-05
6.535e-05
4.585e-05
3.209e-05
2.25e-05
1.588e-05
1.131e-05
8.154e-06
5.967e-06
4.439e-06
3.361e-06
2.593e-06
2.039e-06
1.634e-06
1.335e-06
1.111e-06
9.415e-07
8.12e-07
7.121e-07
6.345e-07
5.739e-07
5.266e-07
4.897e-07
4.611e-07
4.392e-07
4.229e-07
4.111e-07
4.038e-07
3.986e-07
3.987e-07
4.007e-07
4.051e-07
4.119e-07
4.211e-07
4.326e-07
4.464e-07
4.624e-07
4.806e-07
5.012e-07
5.241e-07
5.494e-07
5.772e-07
6.076e-07
6.406e-07
6.764e-07
7.151e-07
7.568e-07
8.016e-07
8.495e-07
9.008e-07
9.553e-07
1.014e-06
1.072e-06
1.169e-06
-3.737e-53
3.696e-52
-2.987e-51
2.348e-50
-1.786e-49
1.317e-48
-9.407e-48
6.525e-47
-4.402e-46
2.896e-45
-1.863e-44
1.175e-43
-7.293e-43
4.471e-42
-2.718e-41
1.644e-40
-9.931e-40
6.011e-39
-3.655e-38
2.238e-37
-1.381e-36
8.59e-36
-5.389e-35
3.407e-34
-2.17e-33
1.384e-32
-8.779e-32
5.529e-31
-3.461e-30
2.155e-29
-1.335e-28
8.242e-28
-5.069e-27
3.109e-26
-1.902e-25
1.161e-24
-7.08e-24
4.315e-23
-2.611e-22
1.674e-21
-5.784e-21
2.438e-19
6.214e-18
9.374e-17
1.275e-15
1.621e-14
1.915e-13
2.088e-12
2.083e-11
1.883e-10
1.527e-09
1.101e-08
6.977e-08
3.851e-07
1.835e-06
7.493e-06
2.611e-05
7.73e-05
0.0001943
0.0004155
0.000761
0.001188
0.001602
0.001917
0.00202
0.001949
0.001783
0.001552
0.001296
0.001043
0.000814
0.0006176
0.0004572
0.0003314
0.0002362
0.0001663
0.0001162
8.104e-05
5.662e-05
3.982e-05
2.829e-05
2.036e-05
1.488e-05
1.106e-05
8.376e-06
6.464e-06
5.087e-06
4.081e-06
3.338e-06
2.781e-06
2.36e-06
2.038e-06
1.789e-06
1.595e-06
1.444e-06
1.326e-06
1.233e-06
1.161e-06
1.106e-06
1.064e-06
1.034e-06
1.015e-06
1.001e-06
9.993e-07
1.003e-06
1.012e-06
1.028e-06
1.048e-06
1.075e-06
1.107e-06
1.144e-06
1.186e-06
1.234e-06
1.287e-06
1.346e-06
1.41e-06
1.48e-06
1.556e-06
1.639e-06
1.727e-06
1.823e-06
1.925e-06
2.034e-06
2.15e-06
2.273e-06
2.404e-06
2.535e-06
2.75e-06
1.167e-52
-1.082e-51
8.379e-51
-6.467e-50
4.935e-49
-3.714e-48
2.751e-47
-2.003e-46
1.431e-45
-1.004e-44
6.915e-44
-4.677e-43
3.109e-42
-2.034e-41
1.31e-40
-8.329e-40
5.229e-39
-3.246e-38
1.995e-37
-1.216e-36
7.353e-36
-4.417e-35
2.639e-34
-1.569e-33
9.288e-33
-5.474e-32
3.211e-31
-1.878e-30
1.095e-29
-6.375e-29
3.707e-28
-2.155e-27
1.253e-26
-7.296e-26
4.256e-25
-2.489e-24
1.461e-23
-8.587e-23
5.234e-22
-2.347e-21
4.911e-20
1.667e-18
2.764e-17
4.095e-16
5.694e-15
7.405e-14
8.941e-13
9.937e-12
1.007e-10
9.204e-10
7.506e-09
5.397e-08
3.379e-07
1.821e-06
8.352e-06
3.237e-05
0.0001056
0.0002888
0.0006664
0.001308
0.002202
0.003118
0.003956
0.004503
0.004435
0.004165
0.00373
0.00322
0.002696
0.00219
0.001728
0.001327
0.0009931
0.0007269
0.0005224
0.0003703
0.0002602
0.0001823
0.0001279
9.03e-05
6.441e-05
4.656e-05
3.419e-05
2.554e-05
1.944e-05
1.508e-05
1.193e-05
9.623e-06
7.91e-06
6.624e-06
5.647e-06
4.897e-06
4.316e-06
3.863e-06
3.509e-06
3.23e-06
3.012e-06
2.841e-06
2.71e-06
2.612e-06
2.54e-06
2.493e-06
2.462e-06
2.456e-06
2.464e-06
2.485e-06
2.521e-06
2.569e-06
2.631e-06
2.705e-06
2.791e-06
2.889e-06
3e-06
3.123e-06
3.258e-06
3.406e-06
3.566e-06
3.74e-06
3.928e-06
4.129e-06
4.344e-06
4.573e-06
4.817e-06
5.076e-06
5.348e-06
5.638e-06
5.925e-06
6.392e-06
1.832e-52
-1.798e-51
1.454e-50
-1.153e-49
8.919e-49
-6.721e-48
4.935e-47
-3.533e-46
2.469e-45
-1.686e-44
1.128e-43
-7.404e-43
4.781e-42
-3.043e-41
1.914e-40
-1.192e-39
7.367e-39
-4.528e-38
2.771e-37
-1.692e-36
1.032e-35
-6.292e-35
3.84e-34
-2.347e-33
1.439e-32
-8.815e-32
5.384e-31
-3.276e-30
1.989e-29
-1.205e-28
7.302e-28
-4.426e-27
2.687e-26
-1.635e-25
9.989e-25
-6.131e-24
3.787e-23
-2.343e-22
1.539e-21
-5.902e-21
2.209e-19
6.188e-18
1.026e-16
1.551e-15
2.203e-14
2.922e-13
3.593e-12
4.055e-11
4.158e-10
3.827e-09
3.122e-08
2.225e-07
1.366e-06
7.111e-06
3.099e-05
0.0001122
0.0003356
0.0008321
0.001736
0.003105
0.004773
0.006109
0.007595
0.009265
0.008726
0.007177
0.006124
0.005346
0.004602
0.003826
0.00309
0.002426
0.001855
0.001383
0.001011
0.0007272
0.0005179
0.0003671
0.0002605
0.0001859
0.000134
9.787e-05
7.261e-05
5.481e-05
4.214e-05
3.302e-05
2.637e-05
2.147e-05
1.781e-05
1.504e-05
1.292e-05