/*--------------------------------*- C++ -*----------------------------------*\
  =========                 |
  \\      /  F ield         | OpenFOAM: The Open Source CFD Toolbox
   \\    /   O peration     | Website:  https://openfoam.org
    \\  /    A nd           | Version:  7
     \\/     M anipulation  |
\*---------------------------------------------------------------------------*/
FoamFile
{
    version     2.0;
    format      ascii;
    class       volScalarField;
    location    "1079.99947341182133";
    object      p;
}
// * * * * * * * * * * * * * * * * * * * * * * * * * * * * * * * * * * * * * //

dimensions      [0 2 -2 0 0 0 0];

internalField   nonuniform List<scalar> 
4096
(
0.0006228
0.0004519
0.0003676
0.0003255
0.0003021
0.0002882
0.0002793
0.0002732
0.0002689
0.0002656
0.0002631
0.0002611
0.0002594
0.000258
0.0002569
0.0002559
0.000255
0.0002542
0.0002535
0.0002528
0.0002522
0.0002516
0.0002511
0.0002506
0.0002501
0.0002496
0.0002491
0.0002486
0.0002481
0.0002476
0.0002471
0.0002466
0.000246
0.0002454
0.0002448
0.0002442
0.0002434
0.0002426
0.0002418
0.0002408
0.0002397
0.0002385
0.0002371
0.0002356
0.0002339
0.0002319
0.0002296
0.0002271
0.0002243
0.0002211
0.0002176
0.0002137
0.0002093
0.0002046
0.0001994
0.0001938
0.0001877
0.0001812
0.0001744
0.0001672
0.0001597
0.000152
0.0001441
0.0001361
0.0001281
0.0001201
0.0001123
0.0001046
9.721e-05
9.009e-05
8.329e-05
7.686e-05
7.081e-05
6.516e-05
5.99e-05
5.505e-05
5.059e-05
4.652e-05
4.281e-05
3.946e-05
3.643e-05
3.372e-05
3.129e-05
2.912e-05
2.719e-05
2.547e-05
2.394e-05
2.257e-05
2.136e-05
2.027e-05
1.929e-05
1.84e-05
1.76e-05
1.686e-05
1.618e-05
1.555e-05
1.496e-05
1.44e-05
1.386e-05
1.335e-05
1.285e-05
1.236e-05
1.188e-05
1.141e-05
1.094e-05
1.048e-05
1.001e-05
9.552e-06
9.088e-06
8.624e-06
8.158e-06
7.689e-06
7.219e-06
6.745e-06
6.268e-06
5.788e-06
5.304e-06
4.817e-06
4.327e-06
3.833e-06
3.336e-06
2.837e-06
2.337e-06
1.837e-06
1.342e-06
8.588e-07
4.026e-07
6.157e-08
0.0004783
0.0004146
0.0003648
0.0003328
0.0003118
0.0002976
0.0002875
0.0002802
0.0002747
0.0002705
0.0002672
0.0002645
0.0002623
0.0002605
0.0002589
0.0002576
0.0002565
0.0002554
0.0002545
0.0002537
0.0002529
0.0002521
0.0002515
0.0002508
0.0002502
0.0002495
0.0002489
0.0002483
0.0002477
0.0002471
0.0002465
0.0002458
0.0002451
0.0002444
0.0002437
0.0002429
0.000242
0.0002411
0.0002401
0.0002389
0.0002377
0.0002363
0.0002348
0.0002331
0.0002313
0.0002291
0.0002268
0.0002242
0.0002213
0.000218
0.0002145
0.0002105
0.0002062
0.0002016
0.0001965
0.000191
0.0001851
0.0001789
0.0001723
0.0001655
0.0001583
0.000151
0.0001435
0.0001359
0.0001282
0.0001207
0.0001132
0.0001059
9.884e-05
9.202e-05
8.549e-05
7.929e-05
7.343e-05
6.793e-05
6.279e-05
5.802e-05
5.361e-05
4.955e-05
4.583e-05
4.244e-05
3.936e-05
3.657e-05
3.404e-05
3.177e-05
2.972e-05
2.788e-05
2.622e-05
2.472e-05
2.337e-05
2.215e-05
2.105e-05
2.004e-05
1.911e-05
1.826e-05
1.747e-05
1.673e-05
1.604e-05
1.539e-05
1.476e-05
1.417e-05
1.359e-05
1.304e-05
1.249e-05
1.196e-05
1.144e-05
1.093e-05
1.042e-05
9.914e-06
9.414e-06
8.915e-06
8.418e-06
7.922e-06
7.426e-06
6.93e-06
6.434e-06
5.936e-06
5.437e-06
4.937e-06
4.436e-06
3.933e-06
3.429e-06
2.924e-06
2.421e-06
1.919e-06
1.422e-06
9.352e-07
4.66e-07
8.785e-08
0.0003948
0.0003732
0.0003477
0.000327
0.0003114
0.0002997
0.0002908
0.0002837
0.0002782
0.0002737
0.0002701
0.0002671
0.0002646
0.0002625
0.0002607
0.0002591
0.0002577
0.0002565
0.0002554
0.0002544
0.0002535
0.0002526
0.0002518
0.000251
0.0002502
0.0002495
0.0002488
0.000248
0.0002473
0.0002466
0.0002458
0.0002451
0.0002443
0.0002435
0.0002426
0.0002417
0.0002407
0.0002396
0.0002384
0.0002372
0.0002358
0.0002343
0.0002327
0.0002309
0.0002289
0.0002266
0.0002242
0.0002215
0.0002185
0.0002153
0.0002117
0.0002078
0.0002035
0.0001989
0.0001939
0.0001886
0.0001829
0.0001769
0.0001705
0.0001639
0.0001571
0.00015
0.0001429
0.0001356
0.0001284
0.0001211
0.000114
0.000107
0.0001002
9.368e-05
8.739e-05
8.141e-05
7.573e-05
7.038e-05
6.535e-05
6.067e-05
5.631e-05
5.228e-05
4.856e-05
4.515e-05
4.203e-05
3.917e-05
3.658e-05
3.422e-05
3.207e-05
3.012e-05
2.835e-05
2.675e-05
2.528e-05
2.395e-05
2.273e-05
2.16e-05
2.057e-05
1.961e-05
1.872e-05
1.789e-05
1.71e-05
1.636e-05
1.565e-05
1.498e-05
1.433e-05
1.371e-05
1.31e-05
1.252e-05
1.194e-05
1.138e-05
1.083e-05
1.028e-05
9.744e-06
9.211e-06
8.684e-06
8.16e-06
7.639e-06
7.121e-06
6.605e-06
6.089e-06
5.575e-06
5.061e-06
4.548e-06
4.035e-06
3.523e-06
3.011e-06
2.5e-06
1.992e-06
1.488e-06
9.89e-07
4.994e-07
9.203e-08
0.0003501
0.000343
0.0003297
0.0003165
0.0003057
0.0002969
0.0002898
0.0002839
0.000279
0.0002749
0.0002714
0.0002685
0.0002659
0.0002637
0.0002618
0.0002601
0.0002586
0.0002573
0.0002561
0.000255
0.0002539
0.0002529
0.000252
0.0002511
0.0002503
0.0002494
0.0002486
0.0002478
0.000247
0.0002461
0.0002453
0.0002444
0.0002435
0.0002426
0.0002416
0.0002406
0.0002395
0.0002383
0.000237
0.0002357
0.0002342
0.0002326
0.0002309
0.0002289
0.0002268
0.0002246
0.000222
0.0002193
0.0002163
0.000213
0.0002094
0.0002055
0.0002013
0.0001968
0.0001919
0.0001867
0.0001811
0.0001753
0.0001691
0.0001627
0.0001561
0.0001493
0.0001424
0.0001354
0.0001284
0.0001214
0.0001146
0.0001078
0.0001013
9.494e-05
8.886e-05
8.305e-05
7.753e-05
7.23e-05
6.738e-05
6.277e-05
5.847e-05
5.448e-05
5.077e-05
4.736e-05
4.421e-05
4.133e-05
3.868e-05
3.626e-05
3.405e-05
3.202e-05
3.017e-05
2.848e-05
2.693e-05
2.55e-05
2.419e-05
2.297e-05
2.185e-05
2.08e-05
1.983e-05
1.891e-05
1.805e-05
1.723e-05
1.646e-05
1.572e-05
1.501e-05
1.432e-05
1.366e-05
1.302e-05
1.24e-05
1.18e-05
1.12e-05
1.062e-05
1.005e-05
9.488e-06
8.932e-06
8.383e-06
7.84e-06
7.301e-06
6.766e-06
6.234e-06
5.705e-06
5.179e-06
4.654e-06
4.131e-06
3.609e-06
3.088e-06
2.569e-06
2.052e-06
1.536e-06
1.024e-06
5.146e-07
8.86e-08
0.0003232
0.0003222
0.0003153
0.0003067
0.0002989
0.0002923
0.0002868
0.0002821
0.0002781
0.0002745
0.0002715
0.0002688
0.0002664
0.0002643
0.0002624
0.0002607
0.0002592
0.0002578
0.0002565
0.0002553
0.0002542
0.0002531
0.0002521
0.0002512
0.0002502
0.0002493
0.0002484
0.0002475
0.0002466
0.0002457
0.0002448
0.0002438
0.0002429
0.0002418
0.0002408
0.0002397
0.0002385
0.0002372
0.0002359
0.0002344
0.0002329
0.0002312
0.0002293
0.0002274
0.0002252
0.0002229
0.0002203
0.0002175
0.0002145
0.0002112
0.0002076
0.0002038
0.0001996
0.0001951
0.0001903
0.0001852
0.0001798
0.0001741
0.0001681
0.0001618
0.0001554
0.0001488
0.000142
0.0001352
0.0001284
0.0001216
0.0001149
0.0001084
0.000102
9.588e-05
8.996e-05
8.429e-05
7.889e-05
7.377e-05
6.895e-05
6.441e-05
6.016e-05
5.62e-05
5.252e-05
4.911e-05
4.596e-05
4.306e-05
4.038e-05
3.793e-05
3.567e-05
3.359e-05
3.168e-05
2.992e-05
2.831e-05
2.681e-05
2.543e-05
2.414e-05
2.295e-05
2.183e-05
2.079e-05
1.98e-05
1.887e-05
1.799e-05
1.716e-05
1.636e-05
1.56e-05
1.487e-05
1.416e-05
1.348e-05
1.281e-05
1.217e-05
1.154e-05
1.093e-05
1.033e-05
9.737e-06
9.157e-06
8.586e-06
8.022e-06
7.464e-06
6.913e-06
6.366e-06
5.824e-06
5.285e-06
4.75e-06
4.216e-06
3.685e-06
3.156e-06
2.628e-06
2.101e-06
1.575e-06
1.049e-06
5.239e-07
8.467e-08
0.0003058
0.0003073
0.000304
0.0002983
0.0002926
0.0002876
0.0002833
0.0002795
0.0002762
0.0002733
0.0002707
0.0002683
0.0002661
0.0002642
0.0002624
0.0002608
0.0002593
0.0002579
0.0002566
0.0002554
0.0002543
0.0002532
0.0002522
0.0002512
0.0002502
0.0002492
0.0002483
0.0002473
0.0002463
0.0002454
0.0002444
0.0002434
0.0002423
0.0002412
0.0002401
0.0002389
0.0002376
0.0002363
0.0002349
0.0002334
0.0002318
0.00023
0.0002282
0.0002261
0.0002239
0.0002216
0.000219
0.0002162
0.0002131
0.0002099
0.0002063
0.0002025
0.0001983
0.0001939
0.0001892
0.0001841
0.0001788
0.0001732
0.0001673
0.0001612
0.0001548
0.0001483
0.0001417
0.0001351
0.0001284
0.0001217
0.0001152
0.0001088
0.0001026
9.653e-05
9.073e-05
8.517e-05
7.988e-05
7.485e-05
7.01e-05
6.562e-05
6.142e-05
5.75e-05
5.385e-05
5.045e-05
4.731e-05
4.44e-05
4.171e-05
3.923e-05
3.695e-05
3.484e-05
3.289e-05
3.109e-05
2.942e-05
2.788e-05
2.644e-05
2.51e-05
2.385e-05
2.268e-05
2.158e-05
2.055e-05
1.957e-05
1.864e-05
1.775e-05
1.691e-05
1.61e-05
1.533e-05
1.458e-05
1.386e-05
1.317e-05
1.249e-05
1.183e-05
1.119e-05
1.057e-05
9.953e-06
9.352e-06
8.761e-06
8.18e-06
7.607e-06
7.041e-06
6.481e-06
5.927e-06
5.378e-06
4.833e-06
4.29e-06
3.751e-06
3.213e-06
2.677e-06
2.141e-06
1.606e-06
1.07e-06
5.313e-07
8.183e-08
0.0002939
0.0002964
0.0002951
0.0002915
0.0002873
0.0002833
0.0002798
0.0002767
0.000274
0.0002716
0.0002694
0.0002673
0.0002654
0.0002637
0.0002621
0.0002606
0.0002592
0.0002578
0.0002566
0.0002554
0.0002543
0.0002532
0.0002521
0.0002511
0.0002501
0.0002491
0.0002481
0.0002471
0.0002461
0.0002451
0.000244
0.000243
0.0002419
0.0002407
0.0002395
0.0002383
0.000237
0.0002356
0.0002342
0.0002326
0.0002309
0.0002292
0.0002273
0.0002252
0.000223
0.0002206
0.000218
0.0002152
0.0002122
0.0002089
0.0002054
0.0002015
0.0001974
0.0001931
0.0001884
0.0001834
0.0001781
0.0001726
0.0001668
0.0001607
0.0001544
0.000148
0.0001415
0.0001349
0.0001283
0.0001217
0.0001153
0.000109
0.0001029
9.692e-05
9.121e-05
8.575e-05
8.053e-05
7.557e-05
7.087e-05
6.645e-05
6.229e-05
5.84e-05
5.477e-05
5.14e-05
4.827e-05
4.536e-05
4.268e-05
4.02e-05
3.79e-05
3.577e-05
3.38e-05
3.198e-05
3.028e-05
2.87e-05
2.723e-05
2.586e-05
2.457e-05
2.336e-05
2.222e-05
2.114e-05
2.013e-05
1.916e-05
1.824e-05
1.736e-05
1.651e-05
1.571e-05
1.493e-05
1.418e-05
1.346e-05
1.275e-05
1.207e-05
1.141e-05
1.076e-05
1.013e-05
9.512e-06
8.906e-06
8.31e-06
7.724e-06
7.147e-06
6.576e-06
6.013e-06
5.455e-06
4.901e-06
4.351e-06
3.805e-06
3.26e-06
2.717e-06
2.175e-06
1.632e-06
1.087e-06
5.384e-07
8.064e-08
0.0002853
0.000288
0.0002879
0.0002857
0.0002827
0.0002795
0.0002767
0.0002741
0.0002718
0.0002698
0.0002679
0.0002661
0.0002645
0.000263
0.0002615
0.0002601
0.0002588
0.0002576
0.0002564
0.0002552
0.0002541
0.000253
0.000252
0.0002509
0.0002499
0.0002489
0.0002479
0.0002469
0.0002458
0.0002448
0.0002437
0.0002426
0.0002415
0.0002403
0.0002391
0.0002378
0.0002365
0.0002351
0.0002336
0.000232
0.0002304
0.0002286
0.0002266
0.0002246
0.0002223
0.00022
0.0002174
0.0002146
0.0002116
0.0002083
0.0002048
0.000201
0.0001969
0.0001926
0.0001879
0.000183
0.0001777
0.0001722
0.0001664
0.0001604
0.0001542
0.0001478
0.0001413
0.0001347
0.0001282
0.0001217
0.0001153
0.000109
0.0001029
9.708e-05
9.144e-05
8.602e-05
8.086e-05
7.595e-05
7.129e-05
6.691e-05
6.278e-05
5.892e-05
5.532e-05
5.197e-05
4.886e-05
4.598e-05
4.33e-05
4.083e-05
3.853e-05
3.641e-05
3.443e-05
3.26e-05
3.089e-05
2.93e-05
2.781e-05
2.641e-05
2.51e-05
2.386e-05
2.269e-05
2.159e-05
2.054e-05
1.955e-05
1.86e-05
1.769e-05
1.683e-05
1.599e-05
1.519e-05
1.442e-05
1.368e-05
1.296e-05
1.226e-05
1.158e-05
1.091e-05
1.027e-05
9.635e-06
9.017e-06
8.41e-06
7.814e-06
7.227e-06
6.649e-06
6.078e-06
5.513e-06
4.954e-06
4.398e-06
3.847e-06
3.297e-06
2.749e-06
2.202e-06
1.653e-06
1.102e-06
5.459e-07
8.141e-08
0.0002788
0.0002815
0.0002821
0.0002808
0.0002787
0.0002763
0.0002739
0.0002717
0.0002697
0.000268
0.0002663
0.0002648
0.0002634
0.000262
0.0002608
0.0002595
0.0002583
0.0002572
0.000256
0.0002549
0.0002539
0.0002528
0.0002518
0.0002508
0.0002498
0.0002488
0.0002477
0.0002467
0.0002457
0.0002446
0.0002435
0.0002424
0.0002413
0.0002401
0.0002389
0.0002376
0.0002362
0.0002348
0.0002333
0.0002317
0.00023
0.0002282
0.0002263
0.0002242
0.000222
0.0002196
0.0002171
0.0002143
0.0002113
0.0002081
0.0002046
0.0002008
0.0001968
0.0001924
0.0001878
0.0001828
0.0001776
0.0001721
0.0001663
0.0001603
0.0001541
0.0001477
0.0001412
0.0001346
0.000128
0.0001215
0.0001151
0.0001089
0.0001028
9.702e-05
9.14e-05
8.602e-05
8.089e-05
7.6e-05
7.137e-05
6.701e-05
6.292e-05
5.908e-05
5.551e-05
5.219e-05
4.91e-05
4.624e-05
4.359e-05
4.114e-05
3.886e-05
3.675e-05
3.479e-05
3.296e-05
3.125e-05
2.965e-05
2.816e-05
2.675e-05
2.543e-05
2.418e-05
2.3e-05
2.188e-05
2.082e-05
1.981e-05
1.884e-05
1.792e-05
1.704e-05
1.619e-05
1.537e-05
1.459e-05
1.383e-05
1.309e-05
1.238e-05
1.169e-05
1.101e-05
1.036e-05
9.717e-06
9.091e-06
8.477e-06
7.874e-06
7.281e-06
6.698e-06
6.122e-06
5.553e-06
4.989e-06
4.431e-06
3.876e-06
3.323e-06
2.772e-06
2.222e-06
1.67e-06
1.115e-06
5.543e-07
8.431e-08
0.0002738
0.0002763
0.0002773
0.0002767
0.0002752
0.0002734
0.0002714
0.0002696
0.0002679
0.0002663
0.0002649
0.0002636
0.0002623
0.0002611
0.0002599
0.0002588
0.0002577
0.0002567
0.0002556
0.0002546
0.0002536
0.0002526
0.0002516
0.0002506
0.0002496
0.0002486
0.0002476
0.0002466
0.0002455
0.0002445
0.0002434
0.0002423
0.0002411
0.00024
0.0002387
0.0002374
0.0002361
0.0002347
0.0002332
0.0002316
0.0002299
0.0002281
0.0002262
0.0002242
0.000222
0.0002196
0.0002171
0.0002144
0.0002114
0.0002082
0.0002047
0.000201
0.0001969
0.0001926
0.000188
0.000183
0.0001778
0.0001722
0.0001664
0.0001604
0.0001541
0.0001476
0.0001411
0.0001344
0.0001278
0.0001212
0.0001148
0.0001086
0.0001026
9.673e-05
9.112e-05
8.575e-05
8.061e-05
7.573e-05
7.112e-05
6.677e-05
6.269e-05
5.888e-05
5.534e-05
5.204e-05
4.899e-05
4.617e-05
4.356e-05
4.114e-05
3.889e-05
3.681e-05
3.487e-05
3.306e-05
3.137e-05
2.979e-05
2.83e-05
2.69e-05
2.558e-05
2.433e-05
2.315e-05
2.202e-05
2.096e-05
1.994e-05
1.897e-05
1.804e-05
1.714e-05
1.629e-05
1.546e-05
1.467e-05
1.39e-05
1.316e-05
1.244e-05
1.174e-05
1.106e-05
1.04e-05
9.758e-06
9.127e-06
8.509e-06
7.903e-06
7.307e-06
6.721e-06
6.143e-06
5.572e-06
5.008e-06
4.448e-06
3.892e-06
3.339e-06
2.787e-06
2.236e-06
1.683e-06
1.126e-06
5.638e-07
8.948e-08
0.0002697
0.0002721
0.0002732
0.0002731
0.0002722
0.0002708
0.0002692
0.0002677
0.0002662
0.0002648
0.0002635
0.0002624
0.0002612
0.0002602
0.0002591
0.0002581
0.0002571
0.0002561
0.0002552
0.0002542
0.0002533
0.0002523
0.0002514
0.0002504
0.0002494
0.0002485
0.0002475
0.0002465
0.0002455
0.0002444
0.0002434
0.0002423
0.0002411
0.00024
0.0002387
0.0002375
0.0002361
0.0002347
0.0002333
0.0002317
0.00023
0.0002283
0.0002264
0.0002244
0.0002223
0.00022
0.0002175
0.0002148
0.0002118
0.0002087
0.0002052
0.0002015
0.0001975
0.0001931
0.0001885
0.0001835
0.0001782
0.0001726
0.0001668
0.0001606
0.0001543
0.0001477
0.000141
0.0001343
0.0001275
0.0001209
0.0001144
0.0001081
0.0001021
9.621e-05
9.057e-05
8.517e-05
8.002e-05
7.513e-05
7.05e-05
6.616e-05
6.209e-05
5.831e-05
5.479e-05
5.154e-05
4.854e-05
4.576e-05
4.32e-05
4.082e-05
3.863e-05
3.659e-05
3.469e-05
3.291e-05
3.125e-05
2.97e-05
2.823e-05
2.685e-05
2.554e-05
2.431e-05
2.313e-05
2.202e-05
2.096e-05
1.994e-05
1.897e-05
1.804e-05
1.715e-05
1.629e-05
1.547e-05
1.467e-05
1.391e-05
1.316e-05
1.244e-05
1.174e-05
1.106e-05
1.04e-05
9.756e-06
9.124e-06
8.506e-06
7.9e-06
7.305e-06
6.719e-06
6.142e-06
5.572e-06
5.008e-06
4.449e-06
3.895e-06
3.343e-06
2.793e-06
2.243e-06
1.692e-06
1.136e-06
5.746e-07
9.703e-08
0.0002664
0.0002686
0.0002698
0.0002701
0.0002695
0.0002685
0.0002673
0.000266
0.0002647
0.0002635
0.0002623
0.0002613
0.0002603
0.0002593
0.0002583
0.0002574
0.0002565
0.0002556
0.0002547
0.0002538
0.0002529
0.000252
0.0002511
0.0002502
0.0002493
0.0002484
0.0002474
0.0002465
0.0002455
0.0002444
0.0002434
0.0002423
0.0002412
0.0002401
0.0002389
0.0002376
0.0002363
0.000235
0.0002335
0.000232
0.0002304
0.0002287
0.0002269
0.0002249
0.0002228
0.0002206
0.0002181
0.0002155
0.0002126
0.0002095
0.0002061
0.0002024
0.0001984
0.0001941
0.0001894
0.0001844
0.000179
0.0001733
0.0001674
0.0001611
0.0001546
0.0001479
0.000141
0.0001341
0.0001272
0.0001204
0.0001139
0.0001075
0.0001014
9.543e-05
8.974e-05
8.428e-05
7.908e-05
7.415e-05
6.951e-05
6.516e-05
6.11e-05
5.734e-05
5.387e-05
5.067e-05
4.772e-05
4.501e-05
4.251e-05
4.021e-05
3.807e-05
3.609e-05
3.425e-05
3.252e-05
3.091e-05
2.939e-05
2.796e-05
2.661e-05
2.533e-05
2.412e-05
2.297e-05
2.187e-05
2.082e-05
1.982e-05
1.886e-05
1.794e-05
1.706e-05
1.621e-05
1.539e-05
1.46e-05
1.384e-05
1.31e-05
1.238e-05
1.169e-05
1.101e-05
1.035e-05
9.711e-06
9.084e-06
8.469e-06
7.866e-06
7.274e-06
6.692e-06
6.118e-06
5.551e-06
4.991e-06
4.436e-06
3.885e-06
3.337e-06
2.79e-06
2.244e-06
1.696e-06
1.145e-06
5.866e-07
1.07e-07
0.0002637
0.0002657
0.000267
0.0002674
0.0002672
0.0002665
0.0002655
0.0002644
0.0002633
0.0002623
0.0002613
0.0002603
0.0002594
0.0002585
0.0002576
0.0002568
0.000256
0.0002551
0.0002543
0.0002535
0.0002526
0.0002518
0.0002509
0.0002501
0.0002492
0.0002483
0.0002474
0.0002465
0.0002455
0.0002445
0.0002435
0.0002425
0.0002414
0.0002403
0.0002392
0.0002379
0.0002367
0.0002354
0.000234
0.0002325
0.000231
0.0002293
0.0002276
0.0002257
0.0002237
0.0002215
0.0002192
0.0002166
0.0002138
0.0002107
0.0002074
0.0002037
0.0001998
0.0001954
0.0001907
0.0001856
0.0001802
0.0001744
0.0001682
0.0001618
0.0001551
0.0001482
0.0001411
0.000134
0.0001268
0.0001199
0.0001131
0.0001067
0.0001004
9.436e-05
8.857e-05
8.302e-05
7.775e-05
7.277e-05
6.809e-05
6.373e-05
5.97e-05
5.597e-05
5.255e-05
4.942e-05
4.655e-05
4.392e-05
4.151e-05
3.928e-05
3.723e-05
3.533e-05
3.356e-05
3.19e-05
3.034e-05
2.888e-05
2.75e-05
2.619e-05
2.495e-05
2.377e-05
2.265e-05
2.158e-05
2.056e-05
1.958e-05
1.864e-05
1.773e-05
1.687e-05
1.603e-05
1.523e-05
1.445e-05
1.37e-05
1.297e-05
1.226e-05
1.158e-05
1.091e-05
1.026e-05
9.626e-06
9.006e-06
8.398e-06
7.802e-06
7.216e-06
6.64e-06
6.072e-06
5.511e-06
4.957e-06
4.408e-06
3.862e-06
3.32e-06
2.78e-06
2.239e-06
1.697e-06
1.152e-06
6.001e-07
1.193e-07
0.0002614
0.0002632
0.0002645
0.0002651
0.0002651
0.0002646
0.0002639
0.0002631
0.0002621
0.0002612
0.0002603
0.0002594
0.0002586
0.0002578
0.000257
0.0002562
0.0002554
0.0002547
0.0002539
0.0002531
0.0002524
0.0002516
0.0002508
0.00025
0.0002491
0.0002483
0.0002474
0.0002465
0.0002456
0.0002447
0.0002437
0.0002428
0.0002417
0.0002407
0.0002396
0.0002384
0.0002372
0.0002359
0.0002346
0.0002332
0.0002318
0.0002302
0.0002285
0.0002267
0.0002248
0.0002228
0.0002205
0.0002181
0.0002154
0.0002124
0.0002091
0.0002056
0.0002016
0.0001973
0.0001925
0.0001874
0.0001818
0.0001758
0.0001695
0.0001629
0.0001559
0.0001487
0.0001414
0.0001339
0.0001264
0.0001192
0.0001122
0.0001055
9.91e-05
9.291e-05
8.698e-05
8.132e-05
7.596e-05
7.091e-05
6.62e-05
6.184e-05
5.783e-05
5.416e-05
5.082e-05
4.777e-05
4.501e-05
4.248e-05
4.018e-05
3.806e-05
3.611e-05
3.431e-05
3.262e-05
3.105e-05
2.957e-05
2.817e-05
2.685e-05
2.56e-05
2.441e-05
2.328e-05
2.22e-05
2.116e-05
2.017e-05
1.922e-05
1.831e-05
1.743e-05
1.659e-05
1.577e-05
1.499e-05
1.423e-05
1.349e-05
1.278e-05
1.209e-05
1.142e-05
1.076e-05
1.013e-05
9.502e-06
8.892e-06
8.294e-06
7.708e-06
7.132e-06
6.564e-06
6.005e-06
5.453e-06
4.906e-06
4.365e-06
3.828e-06
3.294e-06
2.761e-06
2.229e-06
1.695e-06
1.158e-06
6.148e-07
1.339e-07
0.0002594
0.0002611
0.0002624
0.0002631
0.0002633
0.000263
0.0002625
0.0002618
0.0002611
0.0002603
0.0002595
0.0002587
0.0002579
0.0002572
0.0002564
0.0002557
0.000255
0.0002543
0.0002536
0.0002529
0.0002521
0.0002514
0.0002507
0.0002499
0.0002491
0.0002483
0.0002475
0.0002467
0.0002458
0.0002449
0.000244
0.0002431
0.0002421
0.0002411
0.0002401
0.000239
0.0002379
0.0002367
0.0002354
0.0002341
0.0002327
0.0002313
0.0002297
0.000228
0.0002263
0.0002243
0.0002222
0.0002199
0.0002173
0.0002145
0.0002114
0.0002079
0.000204
0.0001997
0.0001949
0.0001897
0.000184
0.0001779
0.0001713
0.0001644
0.0001571
0.0001496
0.0001418
0.0001338
0.0001259
0.0001182
0.000111
0.000104
9.737e-05
9.098e-05
8.487e-05
7.907e-05
7.361e-05
6.85e-05
6.377e-05
5.943e-05
5.547e-05
5.188e-05
4.864e-05
4.572e-05
4.309e-05
4.07e-05
3.853e-05
3.655e-05
3.473e-05
3.304e-05
3.146e-05
2.999e-05
2.86e-05
2.728e-05
2.604e-05
2.485e-05
2.372e-05
2.264e-05
2.161e-05
2.062e-05
1.967e-05
1.876e-05
1.788e-05
1.704e-05
1.622e-05
1.544e-05
1.468e-05
1.394e-05
1.323e-05
1.254e-05
1.187e-05
1.121e-05
1.057e-05
9.951e-06
9.342e-06
8.746e-06
8.161e-06
7.587e-06
7.023e-06
6.467e-06
5.919e-06
5.377e-06
4.841e-06
4.31e-06
3.782e-06
3.258e-06
2.735e-06
2.213e-06
1.689e-06
1.163e-06
6.308e-07
1.506e-07
0.0002578
0.0002594
0.0002606
0.0002614
0.0002617
0.0002616
0.0002613
0.0002607
0.0002601
0.0002594
0.0002587
0.000258
0.0002573
0.0002566
0.0002559
0.0002553
0.0002546
0.000254
0.0002533
0.0002526
0.000252
0.0002513
0.0002506
0.0002499
0.0002492
0.0002484
0.0002477
0.0002469
0.0002461
0.0002453
0.0002444
0.0002435
0.0002426
0.0002417
0.0002407
0.0002397
0.0002386
0.0002375
0.0002364
0.0002352
0.0002339
0.0002325
0.0002311
0.0002296
0.0002279
0.0002262
0.0002242
0.0002221
0.0002197
0.0002171
0.0002141
0.0002107
0.000207
0.0002028
0.000198
0.0001928
0.000187
0.0001807
0.0001738
0.0001665
0.0001589
0.0001508
0.0001424
0.0001338
0.0001252
0.000117
0.0001093
0.000102
9.503e-05
8.838e-05
8.207e-05
7.613e-05
7.057e-05
6.543e-05
6.072e-05
5.643e-05
5.257e-05
4.91e-05
4.601e-05
4.326e-05
4.079e-05
3.858e-05
3.658e-05
3.476e-05
3.309e-05
3.154e-05
3.009e-05
2.873e-05
2.744e-05
2.622e-05
2.506e-05
2.396e-05
2.29e-05
2.188e-05
2.091e-05
1.997e-05
1.907e-05
1.821e-05
1.737e-05
1.656e-05
1.579e-05
1.503e-05
1.43e-05
1.36e-05
1.291e-05
1.224e-05
1.159e-05
1.096e-05
1.034e-05
9.74e-06
9.149e-06
8.57e-06
8.001e-06
7.442e-06
6.892e-06
6.35e-06
5.814e-06
5.285e-06
4.761e-06
4.242e-06
3.727e-06
3.214e-06
2.703e-06
2.192e-06
1.68e-06
1.166e-06
6.48e-07
1.693e-07
0.0002564
0.0002579
0.0002591
0.0002599
0.0002603
0.0002603
0.0002601
0.0002597
0.0002592
0.0002587
0.000258
0.0002574
0.0002568
0.0002562
0.0002555
0.0002549
0.0002543
0.0002537
0.0002531
0.0002525
0.0002519
0.0002512
0.0002506
0.0002499
0.0002493
0.0002486
0.0002479
0.0002471
0.0002464
0.0002456
0.0002448
0.000244
0.0002432
0.0002423
0.0002414
0.0002405
0.0002395
0.0002385
0.0002375
0.0002364
0.0002352
0.000234
0.0002327
0.0002313
0.0002299
0.0002283
0.0002265
0.0002246
0.0002225
0.0002201
0.0002173
0.0002142
0.0002107
0.0002066
0.000202
0.0001968
0.000191
0.0001846
0.0001774
0.0001697
0.0001615
0.0001528
0.0001436
0.0001339
0.0001243
0.0001152
0.0001069
9.91e-05
9.176e-05
8.483e-05
7.834e-05
7.231e-05
6.672e-05
6.161e-05
5.697e-05
5.28e-05
4.909e-05
4.581e-05
4.292e-05
4.038e-05
3.813e-05
3.614e-05
3.434e-05
3.271e-05
3.121e-05
2.982e-05
2.852e-05
2.729e-05
2.613e-05
2.501e-05
2.395e-05
2.293e-05
2.195e-05
2.101e-05
2.01e-05
1.923e-05
1.838e-05
1.757e-05
1.678e-05
1.602e-05
1.528e-05
1.456e-05
1.387e-05
1.32e-05
1.254e-05
1.19e-05
1.128e-05
1.067e-05
1.008e-05
9.497e-06
8.927e-06
8.367e-06
7.817e-06
7.276e-06
6.742e-06
6.215e-06
5.695e-06
5.18e-06
4.67e-06
4.164e-06
3.662e-06
3.162e-06
2.664e-06
2.167e-06
1.669e-06
1.169e-06
6.661e-07
1.896e-07
0.0002552
0.0002566
0.0002578
0.0002586
0.000259
0.0002592
0.0002591
0.0002589
0.0002585
0.000258
0.0002575
0.0002569
0.0002563
0.0002558
0.0002552
0.0002546
0.0002541
0.0002535
0.0002529
0.0002524
0.0002518
0.0002512
0.0002506
0.00025
0.0002494
0.0002488
0.0002481
0.0002475
0.0002468
0.0002461
0.0002454
0.0002446
0.0002438
0.0002431
0.0002422
0.0002414
0.0002405
0.0002396
0.0002387
0.0002377
0.0002367
0.0002356
0.0002345
0.0002333
0.000232
0.0002307
0.0002292
0.0002275
0.0002256
0.0002235
0.0002211
0.0002183
0.0002151
0.0002113
0.0002069
0.0002019
0.0001963
0.0001898
0.0001826
0.0001745
0.0001658
0.0001562
0.0001457
0.0001342
0.0001229
0.0001124
0.0001031
9.477e-05
8.708e-05
7.994e-05
7.341e-05
6.741e-05
6.191e-05
5.693e-05
5.246e-05
4.85e-05
4.502e-05
4.2e-05
3.938e-05
3.711e-05
3.513e-05
3.339e-05
3.184e-05
3.043e-05
2.913e-05
2.792e-05
2.678e-05
2.57e-05
2.467e-05
2.368e-05
2.272e-05
2.18e-05
2.09e-05
2.004e-05
1.921e-05
1.84e-05
1.762e-05
1.686e-05
1.612e-05
1.541e-05
1.472e-05
1.404e-05
1.339e-05
1.275e-05
1.213e-05
1.153e-05
1.093e-05
1.035e-05
9.786e-06
9.229e-06
8.681e-06
8.143e-06
7.613e-06
7.091e-06
6.575e-06
6.066e-06
5.562e-06
5.063e-06
4.568e-06
4.077e-06
3.59e-06
3.104e-06
2.621e-06
2.138e-06
1.655e-06
1.171e-06
6.849e-07
2.113e-07
0.0002541
0.0002555
0.0002566
0.0002575
0.000258
0.0002582
0.0002582
0.0002581
0.0002578
0.0002574
0.0002569
0.0002565
0.000256
0.0002554
0.0002549
0.0002544
0.0002539
0.0002534
0.0002528
0.0002523
0.0002518
0.0002512
0.0002507
0.0002501
0.0002496
0.000249
0.0002484
0.0002478
0.0002472
0.0002466
0.0002459
0.0002452
0.0002446
0.0002438
0.0002431
0.0002424
0.0002416
0.0002408
0.00024
0.0002391
0.0002383
0.0002373
0.0002364
0.0002354
0.0002343
0.0002332
0.000232
0.0002307
0.0002291
0.0002274
0.0002254
0.000223
0.0002201
0.0002168
0.0002129
0.0002083
0.0002031
0.000197
0.0001899
0.0001818
0.0001728
0.0001623
0.0001497
0.000135
0.0001202
0.0001074
9.69e-05
8.801e-05
8.024e-05
7.321e-05
6.696e-05
6.125e-05
5.604e-05
5.135e-05
4.719e-05
4.354e-05
4.039e-05
3.77e-05
3.541e-05
3.348e-05
3.183e-05
3.039e-05
2.911e-05
2.795e-05
2.688e-05
2.587e-05
2.491e-05
2.399e-05
2.31e-05
2.223e-05
2.139e-05
2.057e-05
1.977e-05
1.899e-05
1.824e-05
1.75e-05
1.679e-05
1.609e-05
1.541e-05
1.475e-05
1.411e-05
1.348e-05
1.287e-05
1.227e-05
1.169e-05
1.112e-05
1.056e-05
1.001e-05
9.469e-06
8.939e-06
8.416e-06
7.901e-06
7.393e-06
6.892e-06
6.396e-06
5.905e-06
5.419e-06
4.937e-06
4.459e-06
3.984e-06
3.511e-06
3.042e-06
2.573e-06
2.106e-06
1.64e-06
1.173e-06
7.044e-07
2.341e-07
0.0002533
0.0002545
0.0002557
0.0002565
0.000257
0.0002573
0.0002574
0.0002574
0.0002572
0.0002569
0.0002565
0.0002561
0.0002556
0.0002552
0.0002547
0.0002542
0.0002537
0.0002533
0.0002528
0.0002523
0.0002518
0.0002513
0.0002508
0.0002503
0.0002498
0.0002493
0.0002487
0.0002482
0.0002476
0.0002471
0.0002465
0.0002459
0.0002453
0.0002447
0.0002441
0.0002434
0.0002427
0.0002421
0.0002414
0.0002406
0.0002399
0.0002392
0.0002384
0.0002376
0.0002368
0.0002359
0.000235
0.000234
0.0002329
0.0002316
0.00023
0.0002281
0.0002258
0.0002231
0.0002198
0.0002159
0.0002115
0.0002063
0.0002001
0.0001929
0.0001849
0.0001737
0.0001577
0.0001362
0.0001144
9.802e-05
8.616e-05
7.732e-05
7.05e-05
6.419e-05
5.874e-05
5.377e-05
4.913e-05
4.493e-05
4.122e-05
3.8e-05
3.526e-05
3.298e-05
3.11e-05
2.956e-05
2.828e-05
2.718e-05
2.622e-05
2.533e-05
2.451e-05
2.371e-05
2.294e-05
2.219e-05
2.144e-05
2.071e-05
1.999e-05
1.927e-05
1.857e-05
1.789e-05
1.721e-05
1.656e-05
1.591e-05
1.528e-05
1.466e-05
1.406e-05
1.347e-05
1.289e-05
1.232e-05
1.177e-05
1.122e-05
1.069e-05
1.016e-05
9.646e-06
9.136e-06
8.633e-06
8.137e-06
7.647e-06
7.162e-06
6.682e-06
6.207e-06
5.736e-06
5.268e-06
4.804e-06
4.343e-06
3.885e-06
3.429e-06
2.975e-06
2.523e-06
2.073e-06
1.623e-06
1.174e-06
7.241e-07
2.576e-07
0.0002525
0.0002537
0.0002548
0.0002557
0.0002562
0.0002566
0.0002568
0.0002568
0.0002566
0.0002564
0.0002561
0.0002558
0.0002554
0.000255
0.0002545
0.0002541
0.0002537
0.0002532
0.0002528
0.0002523
0.0002519
0.0002514
0.000251
0.0002505
0.00025
0.0002496
0.0002491
0.0002486
0.0002481
0.0002476
0.0002471
0.0002466
0.0002461
0.0002456
0.000245
0.0002445
0.0002439
0.0002433
0.0002428
0.0002422
0.0002416
0.000241
0.0002404
0.0002399
0.0002393
0.0002387
0.0002381
0.0002375
0.0002367
0.0002359
0.0002349
0.0002336
0.0002319
0.0002298
0.0002273
0.0002244
0.0002212
0.0002177
0.0002134
0.0002057
0.0002011
0.0001969
0.0001819
0.0001399
9.737e-05
7.565e-05
6.84e-05
6.486e-05
5.988e-05
5.289e-05
4.883e-05
4.512e-05
4.134e-05
3.785e-05
3.472e-05
3.201e-05
2.975e-05
2.795e-05
2.654e-05
2.545e-05
2.458e-05
2.386e-05
2.322e-05
2.263e-05
2.206e-05
2.149e-05
2.091e-05
2.033e-05
1.974e-05
1.914e-05
1.854e-05
1.794e-05
1.734e-05
1.675e-05
1.616e-05
1.558e-05
1.501e-05
1.444e-05
1.389e-05
1.334e-05
1.281e-05
1.228e-05
1.176e-05
1.125e-05
1.074e-05
1.025e-05
9.756e-06
9.272e-06
8.793e-06
8.319e-06
7.85e-06
7.385e-06
6.924e-06
6.467e-06
6.013e-06
5.562e-06
5.113e-06
4.667e-06
4.224e-06
3.783e-06
3.344e-06
2.906e-06
2.471e-06
2.037e-06
1.605e-06
1.174e-06
7.438e-07
2.813e-07
0.0002519
0.0002531
0.0002541
0.0002549
0.0002555
0.0002559
0.0002562
0.0002562
0.0002562
0.000256
0.0002558
0.0002555
0.0002551
0.0002548
0.0002544
0.000254
0.0002536
0.0002532
0.0002528
0.0002524
0.000252
0.0002516
0.0002512
0.0002507
0.0002503
0.0002499
0.0002495
0.0002491
0.0002486
0.0002482
0.0002478
0.0002473
0.0002469
0.0002464
0.000246
0.0002455
0.0002451
0.0002446
0.0002442
0.0002437
0.0002433
0.0002429
0.0002425
0.0002421
0.0002418
0.0002415
0.0002412
0.0002409
0.0002406
0.0002402
0.0002397
0.000239
0.000238
0.0002366
0.0002349
0.0002329
0.0002312
0.0002293
0.0002275
0.0002214
0.000193
0.0001561
0.0001544
0.0001325
0.0001103
0.0001048
0.0001049
7.253e-05
4.627e-05
4.028e-05
3.973e-05
3.599e-05
3.315e-05
3.046e-05
2.799e-05
2.582e-05
2.407e-05
2.277e-05
2.187e-05
2.125e-05
2.082e-05
2.049e-05
2.02e-05
1.991e-05
1.959e-05
1.925e-05
1.887e-05
1.845e-05
1.801e-05
1.755e-05
1.708e-05
1.659e-05
1.609e-05
1.559e-05
1.509e-05
1.459e-05
1.409e-05
1.359e-05
1.31e-05
1.262e-05
1.214e-05
1.166e-05
1.119e-05
1.072e-05
1.026e-05
9.8e-06
9.345e-06
8.894e-06
8.447e-06
8.002e-06
7.561e-06
7.121e-06
6.684e-06
6.25e-06
5.817e-06
5.386e-06
4.957e-06
4.529e-06
4.104e-06
3.68e-06
3.257e-06
2.837e-06
2.418e-06
2.001e-06
1.587e-06
1.174e-06
7.632e-07
3.05e-07
0.0002514
0.0002525
0.0002535
0.0002543
0.0002549
0.0002554
0.0002556
0.0002558
0.0002558
0.0002557
0.0002555
0.0002552
0.000255
0.0002546
0.0002543
0.0002539
0.0002536
0.0002532
0.0002528
0.0002525
0.0002521
0.0002517
0.0002514
0.000251
0.0002506
0.0002502
0.0002499
0.0002495
0.0002491
0.0002488
0.0002484
0.000248
0.0002477
0.0002473
0.000247
0.0002466
0.0002463
0.0002459
0.0002456
0.0002453
0.000245
0.0002447
0.0002445
0.0002443
0.0002442
0.0002441
0.0002441
0.0002442
0.0002443
0.0002444
0.0002444
0.0002443
0.0002438
0.0002429
0.0002416
0.0002403
0.0002391
0.0002394
0.0002332
0.0001826
0.0001521
0.0001109
9.492e-05
0.0001069
0.0001505
0.0001435
0.000138
0.0001062
8.845e-05
4.873e-05
3.228e-05
2.869e-05
2.55e-05
2.32e-05
2.137e-05
1.968e-05
1.84e-05
1.761e-05
1.722e-05
1.71e-05
1.712e-05
1.719e-05
1.724e-05
1.724e-05
1.717e-05
1.704e-05
1.685e-05
1.66e-05
1.631e-05
1.598e-05
1.563e-05
1.525e-05
1.485e-05
1.444e-05
1.403e-05
1.361e-05
1.318e-05
1.275e-05
1.233e-05
1.19e-05
1.147e-05
1.105e-05
1.062e-05
1.02e-05
9.778e-06
9.357e-06
8.939e-06
8.521e-06
8.104e-06
7.689e-06
7.274e-06
6.86e-06
6.447e-06
6.035e-06
5.623e-06
5.212e-06
4.802e-06
4.393e-06
3.985e-06
3.578e-06
3.172e-06
2.768e-06
2.366e-06
1.966e-06
1.568e-06
1.173e-06
7.821e-07
3.282e-07
0.0002509
0.000252
0.000253
0.0002538
0.0002544
0.0002549
0.0002552
0.0002554
0.0002554
0.0002554
0.0002552
0.0002551
0.0002548