/*--------------------------------*- C++ -*----------------------------------*\
  =========                 |
  \\      /  F ield         | OpenFOAM: The Open Source CFD Toolbox
   \\    /   O peration     | Website:  https://openfoam.org
    \\  /    A nd           | Version:  7
     \\/     M anipulation  |
\*---------------------------------------------------------------------------*/
FoamFile
{
    version     2.0;
    format      ascii;
    class       surfaceScalarField;
    location    "1079.99947341182133";
    object      phi;
}
// * * * * * * * * * * * * * * * * * * * * * * * * * * * * * * * * * * * * * //

dimensions      [0 3 -1 0 0 0 0];

internalField   nonuniform List<scalar> 
8032
(
6.857e-10
2.518e-10
4.804e-10
2.053e-10
3.48e-10
1.324e-10
2.643e-10
8.372e-11
2.101e-10
5.415e-11
1.738e-10
3.636e-11
1.483e-10
2.549e-11
1.296e-10
1.864e-11
1.155e-10
1.412e-11
1.045e-10
1.101e-11
9.571e-11
8.779e-12
8.86e-11
7.114e-12
8.276e-11
5.835e-12
7.793e-11
4.827e-12
7.392e-11
4.014e-12
7.058e-11
3.345e-12
6.779e-11
2.786e-12
6.548e-11
2.311e-12
6.358e-11
1.9e-12
6.204e-11
1.541e-12
6.082e-11
1.221e-12
5.988e-11
9.331e-13
5.921e-11
6.692e-13
5.879e-11
4.24e-13
5.86e-11
1.926e-13
5.863e-11
-2.905e-14
5.887e-11
-2.443e-13
5.933e-11
-4.563e-13
6e-11
-6.676e-13
6.088e-11
-8.805e-13
6.197e-11
-1.097e-12
6.329e-11
-1.32e-12
6.484e-11
-1.549e-12
6.663e-11
-1.787e-12
6.866e-11
-2.034e-12
7.095e-11
-2.291e-12
7.351e-11
-2.559e-12
7.635e-11
-2.838e-12
7.948e-11
-3.126e-12
8.29e-11
-3.423e-12
8.663e-11
-3.728e-12
9.066e-11
-4.038e-12
9.501e-11
-4.349e-12
9.967e-11
-4.659e-12
1.046e-10
-4.963e-12
1.099e-10
-5.254e-12
1.154e-10
-5.527e-12
1.212e-10
-5.774e-12
1.272e-10
-5.986e-12
1.333e-10
-6.155e-12
1.396e-10
-6.272e-12
1.459e-10
-6.327e-12
1.522e-10
-6.311e-12
1.585e-10
-6.215e-12
1.645e-10
-6.032e-12
1.702e-10
-5.755e-12
1.756e-10
-5.383e-12
1.805e-10
-4.913e-12
1.849e-10
-4.348e-12
1.886e-10
-3.696e-12
1.915e-10
-2.967e-12
1.937e-10
-2.174e-12
1.951e-10
-1.336e-12
1.955e-10
-4.741e-13
1.951e-10
3.916e-13
1.939e-10
1.239e-12
1.919e-10
2.05e-12
1.89e-10
2.806e-12
1.856e-10
3.494e-12
1.814e-10
4.106e-12
1.768e-10
4.636e-12
1.717e-10
5.08e-12
1.663e-10
5.439e-12
1.606e-10
5.714e-12
1.547e-10
5.908e-12
1.486e-10
6.028e-12
1.426e-10
6.078e-12
1.365e-10
6.064e-12
1.305e-10
5.995e-12
1.246e-10
5.876e-12
1.189e-10
5.716e-12
1.134e-10
5.521e-12
1.081e-10
5.299e-12
1.03e-10
5.055e-12
9.824e-11
4.797e-12
9.371e-11
4.529e-12
8.946e-11
4.256e-12
8.547e-11
3.982e-12
8.176e-11
3.712e-12
7.832e-11
3.447e-12
7.513e-11
3.19e-12
7.218e-11
2.943e-12
6.948e-11
2.707e-12
6.699e-11
2.483e-12
6.472e-11
2.272e-12
6.265e-11
2.074e-12
6.076e-11
1.889e-12
5.904e-11
1.716e-12
5.749e-11
1.557e-12
5.608e-11
1.409e-12
5.48e-11
1.274e-12
5.365e-11
1.149e-12
5.262e-11
1.035e-12
5.169e-11
9.302e-13
5.086e-11
8.35e-13
5.011e-11
7.484e-13
4.944e-11
6.697e-13
4.884e-11
5.985e-13
4.83e-11
5.34e-13
4.783e-11
4.758e-13
4.741e-11
4.234e-13
4.703e-11
3.764e-13
4.669e-11
3.342e-13
4.64e-11
2.967e-13
4.613e-11
2.635e-13
4.59e-11
2.343e-13
4.569e-11
2.091e-13
4.55e-11
1.876e-13
4.533e-11
1.699e-13
4.518e-11
1.562e-13
4.503e-11
1.469e-13
4.489e-11
1.425e-13
4.474e-11
1.444e-13
4.459e-11
1.549e-13
4.441e-11
1.786e-13
4.419e-11
2.228e-13
4.389e-11
2.96e-13
3.847e-13
9.523e-10
2.37e-10
8.501e-10
3.075e-10
7.275e-10
2.55e-10
6.183e-10
1.929e-10
5.294e-10
1.43e-10
4.593e-10
1.065e-10
4.043e-10
8.051e-11
3.608e-10
6.211e-11
3.261e-10
4.887e-11
2.98e-10
3.912e-11
2.75e-10
3.177e-11
2.56e-10
2.61e-11
2.402e-10
2.163e-11
2.27e-10
1.803e-11
2.159e-10
1.509e-11
2.066e-10
1.264e-11
1.988e-10
1.057e-11
1.923e-10
8.794e-12
1.87e-10
7.253e-12
1.826e-10
5.896e-12
1.792e-10
4.685e-12
1.765e-10
3.588e-12
1.746e-10
2.581e-12
1.734e-10
1.643e-12
1.728e-10
7.564e-13
1.729e-10
-9.287e-14
1.736e-10
-9.178e-13
1.748e-10
-1.73e-12
1.767e-10
-2.538e-12
1.792e-10
-3.351e-12
1.823e-10
-4.177e-12
1.86e-10
-5.022e-12
1.903e-10
-5.892e-12
1.953e-10
-6.791e-12
2.01e-10
-7.723e-12
2.074e-10
-8.69e-12
2.145e-10
-9.693e-12
2.224e-10
-1.073e-11
2.311e-10
-1.18e-11
2.406e-10
-1.291e-11
2.509e-10
-1.403e-11
2.62e-10
-1.517e-11
2.74e-10
-1.631e-11
2.868e-10
-1.744e-11
3.003e-10
-1.854e-11
3.147e-10
-1.959e-11
3.297e-10
-2.057e-11
3.454e-10
-2.144e-11
3.616e-10
-2.219e-11
3.782e-10
-2.277e-11
3.951e-10
-2.316e-11
4.121e-10
-2.332e-11
4.29e-10
-2.322e-11
4.456e-10
-2.283e-11
4.617e-10
-2.212e-11
4.77e-10
-2.107e-11
4.913e-10
-1.969e-11
5.044e-10
-1.795e-11
5.159e-10
-1.588e-11
5.257e-10
-1.349e-11
5.335e-10
-1.083e-11
5.393e-10
-7.954e-12
5.429e-10
-4.914e-12
5.442e-10
-1.786e-12
5.432e-10
1.356e-12
5.401e-10
4.437e-12
5.347e-10
7.388e-12
5.274e-10
1.015e-11
5.182e-10
1.268e-11
5.074e-10
1.494e-11
4.951e-10
1.69e-11
4.816e-10
1.856e-11
4.671e-10
1.991e-11
4.519e-10
2.096e-11
4.361e-10
2.172e-11
4.199e-10
2.22e-11
4.036e-10
2.243e-11
3.872e-10
2.243e-11
3.71e-10
2.221e-11
3.55e-10
2.182e-11
3.395e-10
2.127e-11
3.244e-10
2.058e-11
3.099e-10
1.98e-11
2.96e-10
1.892e-11
2.828e-10
1.799e-11
2.704e-10
1.702e-11
2.586e-10
1.603e-11
2.475e-10
1.503e-11
2.372e-10
1.404e-11
2.276e-10
1.306e-11
2.187e-10
1.211e-11
2.104e-10
1.119e-11
2.028e-10
1.032e-11
1.958e-10
9.481e-12
1.894e-10
8.691e-12
1.835e-10
7.948e-12
1.782e-10
7.252e-12
1.733e-10
6.603e-12
1.688e-10
6e-12
1.648e-10
5.442e-12
1.611e-10
4.927e-12
1.578e-10
4.453e-12
1.549e-10
4.018e-12
1.522e-10
3.619e-12
1.498e-10
3.255e-12
1.476e-10
2.924e-12
1.456e-10
2.622e-12
1.439e-10
2.348e-12
1.423e-10
2.1e-12
1.409e-10
1.875e-12
1.397e-10
1.673e-12
1.385e-10
1.491e-12
1.376e-10
1.327e-12
1.367e-10
1.182e-12
1.359e-10
1.052e-12
1.352e-10
9.385e-13
1.345e-10
8.397e-13
1.34e-10
7.553e-13
1.335e-10
6.853e-13
1.33e-10
6.301e-13
1.325e-10
5.905e-13
1.321e-10
5.681e-13
1.317e-10
5.655e-13
1.313e-10
5.866e-13
1.308e-10
6.372e-13
1.303e-10
7.241e-13
1.298e-10
8.459e-13
9.609e-13
9.779e-10
1.966e-10
9.637e-10
3.217e-10
9.013e-10
3.174e-10
8.212e-10
2.73e-10
7.41e-10
2.233e-10
6.681e-10
1.794e-10
6.048e-10
1.438e-10
5.509e-10
1.159e-10
5.055e-10
9.427e-11
4.673e-10
7.734e-11
4.351e-10
6.399e-11
4.079e-10
5.332e-11
3.848e-10
4.467e-11
3.653e-10
3.757e-11
3.488e-10
3.165e-11
3.347e-10
2.666e-11
3.229e-10
2.239e-11
3.13e-10
1.87e-11
3.048e-10
1.547e-11
2.981e-10
1.261e-11
2.927e-10
1.004e-11
2.886e-10
7.697e-12
2.857e-10
5.542e-12
2.838e-10
3.528e-12
2.829e-10
1.621e-12
2.83e-10
-2.086e-13
2.841e-10
-1.988e-12
2.861e-10
-3.739e-12
2.89e-10
-5.483e-12
2.929e-10
-7.236e-12
2.978e-10
-9.015e-12
3.036e-10
-1.083e-11
3.104e-10
-1.27e-11
3.182e-10
-1.463e-11
3.271e-10
-1.662e-11
3.371e-10
-1.869e-11
3.483e-10
-2.083e-11
3.606e-10
-2.304e-11
3.741e-10
-2.532e-11
3.888e-10
-2.765e-11
4.048e-10
-3.003e-11
4.221e-10
-3.243e-11
4.406e-10
-3.483e-11
4.603e-10
-3.719e-11
4.813e-10
-3.949e-11
5.034e-10
-4.168e-11
5.265e-10
-4.371e-11
5.506e-10
-4.551e-11
5.755e-10
-4.704e-11
6.009e-10
-4.822e-11
6.267e-10
-4.899e-11
6.527e-10
-4.928e-11
6.785e-10
-4.901e-11
7.038e-10
-4.814e-11
7.283e-10
-4.661e-11
7.516e-10
-4.438e-11
7.733e-10
-4.143e-11
7.932e-10
-3.776e-11
8.107e-10
-3.339e-11
8.256e-10
-2.838e-11
8.375e-10
-2.28e-11
8.463e-10
-1.676e-11
8.518e-10
-1.039e-11
8.539e-10
-3.837e-12
8.525e-10
2.747e-12
8.477e-10
9.209e-12
8.397e-10
1.541e-11
8.286e-10
2.122e-11
8.148e-10
2.654e-11
7.984e-10
3.131e-11
7.798e-10
3.548e-11
7.593e-10
3.901e-11
7.374e-10
4.19e-11
7.142e-10
4.416e-11
6.901e-10
4.582e-11
6.654e-10
4.69e-11
6.404e-10
4.744e-11
6.153e-10
4.749e-11
5.904e-10
4.71e-11
5.659e-10
4.632e-11
5.42e-10
4.52e-11
5.188e-10
4.381e-11
4.964e-10
4.218e-11
4.749e-10
4.038e-11
4.545e-10
3.844e-11
4.351e-10
3.642e-11
4.168e-10
3.434e-11
3.995e-10
3.224e-11
3.834e-10
3.015e-11
3.684e-10
2.808e-11
3.544e-10
2.608e-11
3.415e-10
2.413e-11
3.296e-10
2.227e-11
3.185e-10
2.049e-11
3.084e-10
1.881e-11
2.991e-10
1.723e-11
2.907e-10
1.574e-11
2.829e-10
1.435e-11
2.759e-10
1.306e-11
2.694e-10
1.186e-11
2.636e-10
1.075e-11
2.583e-10
9.727e-12
2.536e-10
8.789e-12
2.493e-10
7.928e-12
2.454e-10
7.141e-12
2.419e-10
6.422e-12
2.387e-10
5.768e-12
2.359e-10
5.173e-12
2.334e-10
4.633e-12
2.311e-10
4.144e-12
2.291e-10
3.703e-12
2.273e-10
3.305e-12
2.256e-10
2.948e-12
2.242e-10
2.629e-12
2.229e-10
2.346e-12
2.217e-10
2.096e-12
2.207e-10
1.877e-12
2.198e-10
1.69e-12
2.189e-10
1.533e-12
2.181e-10
1.407e-12
2.174e-10
1.313e-12
2.167e-10
1.253e-12
2.161e-10
1.228e-12
2.154e-10
1.244e-12
2.148e-10
1.302e-12
2.141e-10
1.404e-12
2.134e-10
1.535e-12
1.642e-12
9.752e-10
1.589e-10
9.93e-10
3.038e-10
9.728e-10
3.377e-10
9.269e-10
3.189e-10
8.691e-10
2.811e-10
8.086e-10
2.399e-10
7.506e-10
2.018e-10
6.975e-10
1.69e-10
6.501e-10
1.416e-10
6.085e-10
1.19e-10
5.722e-10
1.003e-10
5.408e-10
8.478e-11
5.136e-10
7.187e-11
4.901e-10
6.101e-11
4.7e-10
5.179e-11
4.528e-10
4.39e-11
4.381e-10
3.706e-11
4.257e-10
3.108e-11
4.154e-10
2.58e-11
4.069e-10
2.107e-11
4.002e-10
1.68e-11
3.95e-10
1.29e-11
3.912e-10
9.279e-12
3.889e-10
5.886e-12
3.878e-10
2.663e-12
3.88e-10
-4.382e-13
3.895e-10
-3.458e-12
3.922e-10
-6.435e-12
3.961e-10
-9.399e-12
4.013e-10
-1.238e-11
4.077e-10
-1.54e-11
4.153e-10
-1.849e-11
4.243e-10
-2.166e-11
4.346e-10
-2.493e-11
4.463e-10
-2.83e-11
4.594e-10
-3.179e-11
4.739e-10
-3.54e-11
4.9e-10
-3.912e-11
5.077e-10
-4.295e-11
5.269e-10
-4.687e-11
5.477e-10
-5.085e-11
5.701e-10
-5.486e-11
5.942e-10
-5.886e-11
6.198e-10
-6.281e-11
6.469e-10
-6.663e-11
6.755e-10
-7.025e-11
7.054e-10
-7.36e-11
7.364e-10
-7.657e-11
7.685e-10
-7.907e-11
8.012e-10
-8.099e-11
8.344e-10
-8.221e-11
8.678e-10
-8.263e-11
9.009e-10
-8.214e-11
9.334e-10
-8.063e-11
9.648e-10
-7.802e-11
9.947e-10
-7.426e-11
1.023e-09
-6.93e-11
1.048e-09
-6.315e-11
1.07e-09
-5.584e-11
1.089e-09
-4.747e-11
1.105e-09
-3.816e-11
1.116e-09
-2.808e-11
1.123e-09
-1.746e-11
1.126e-09
-6.528e-12
1.124e-09
4.456e-12
1.118e-09
1.524e-11
1.108e-09
2.559e-11
1.094e-09
3.53e-11
1.076e-09
4.421e-11
1.055e-09
5.221e-11
1.032e-09
5.92e-11
1.005e-09
6.515e-11
9.773e-10
7.005e-11
9.476e-10
7.39e-11
9.167e-10
7.673e-11
8.85e-10
7.861e-11
8.528e-10
7.959e-11
8.206e-10
7.975e-11
7.885e-10
7.917e-11
7.569e-10
7.794e-11
7.259e-10
7.614e-11
6.959e-10
7.387e-11
6.669e-10
7.12e-11
6.39e-10
6.823e-11
6.124e-10
6.503e-11
5.872e-10
6.167e-11
5.633e-10
5.821e-11
5.408e-10
5.471e-11
5.198e-10
5.121e-11
5.001e-10
4.776e-11
4.818e-10
4.44e-11
4.648e-10
4.114e-11
4.49e-10
3.8e-11
4.345e-10
3.501e-11
4.212e-10
3.217e-11
4.089e-10
2.949e-11
3.977e-10
2.698e-11
3.874e-10
2.462e-11
3.78e-10
2.243e-11
3.695e-10
2.039e-11
3.617e-10
1.851e-11
3.547e-10
1.677e-11
3.483e-10
1.517e-11
3.425e-10
1.37e-11
3.373e-10
1.235e-11
3.326e-10
1.112e-11
3.284e-10
1e-11
3.246e-10
8.981e-12
3.212e-10
8.054e-12
3.181e-10
7.214e-12
3.153e-10
6.454e-12
3.129e-10
5.769e-12
3.107e-10
5.153e-12
3.087e-10
4.602e-12
3.069e-10
4.111e-12
3.054e-10
3.677e-12
3.039e-10
3.296e-12
3.027e-10
2.968e-12
3.015e-10
2.691e-12
3.004e-10
2.463e-12
2.995e-10
2.287e-12
2.986e-10
2.163e-12
2.977e-10
2.093e-12
2.969e-10
2.078e-12
2.96e-10
2.117e-12
2.952e-10
2.206e-12
2.945e-10
2.321e-12
2.409e-12
9.668e-10
1.296e-10
9.945e-10
2.762e-10
9.979e-10
3.342e-10
9.782e-10
3.387e-10
9.427e-10
3.165e-10
8.989e-10
2.837e-10
8.522e-10
2.485e-10
8.061e-10
2.152e-10
7.625e-10
1.852e-10
7.225e-10
1.59e-10
6.863e-10
1.364e-10
6.54e-10
1.171e-10
6.255e-10
1.004e-10
6.004e-10
8.608e-11
5.785e-10
7.366e-11
5.596e-10
6.284e-11
5.433e-10
5.334e-11
5.294e-10
4.493e-11
5.178e-10
3.742e-11
5.082e-10
3.064e-11
5.006e-10
2.447e-11
4.947e-10
1.878e-11
4.905e-10
1.349e-11
4.879e-10
8.496e-12
4.868e-10
3.736e-12
4.872e-10
-8.569e-13
4.891e-10
-5.341e-12
4.924e-10
-9.767e-12
4.972e-10
-1.418e-11
5.035e-10
-1.862e-11
5.112e-10
-2.313e-11
5.204e-10
-2.772e-11
5.312e-10
-3.244e-11
5.436e-10
-3.73e-11
5.576e-10
-4.231e-11
5.733e-10
-4.749e-11
5.907e-10
-5.284e-11
6.099e-10
-5.835e-11
6.31e-10
-6.4e-11
6.539e-10
-6.978e-11
6.787e-10
-7.565e-11
7.054e-10
-8.155e-11
7.34e-10
-8.744e-11
7.644e-10
-9.322e-11
7.966e-10
-9.881e-11
8.304e-10
-1.041e-10
8.658e-10
-1.09e-10
9.025e-10
-1.133e-10
9.404e-10
-1.169e-10
9.791e-10
-1.197e-10
1.018e-09
-1.214e-10
1.058e-09
-1.22e-10
1.097e-09
-1.212e-10
1.135e-09
-1.19e-10
1.172e-09
-1.151e-10
1.207e-09
-1.095e-10
1.24e-09
-1.022e-10
1.27e-09
-9.312e-11
1.297e-09
-8.235e-11
1.319e-09
-7.002e-11
1.338e-09
-5.632e-11
1.351e-09
-4.149e-11
1.359e-09
-2.585e-11
1.363e-09
-9.757e-12
1.361e-09
6.412e-12
1.354e-09
2.229e-11
1.342e-09
3.753e-11
1.325e-09
5.184e-11
1.304e-09
6.498e-11
1.28e-09
7.677e-11
1.252e-09
8.711e-11
1.221e-09
9.592e-11
1.188e-09
1.032e-10
1.153e-09
1.089e-10
1.116e-09
1.132e-10
1.079e-09
1.16e-10
1.041e-09
1.176e-10
1.003e-09
1.179e-10
9.65e-10
1.171e-10
9.276e-10
1.154e-10
8.909e-10
1.128e-10
8.553e-10
1.095e-10
8.208e-10
1.057e-10
7.877e-10
1.013e-10
7.561e-10
9.667e-11
7.26e-10
9.175e-11
6.975e-10
8.668e-11
6.707e-10
8.155e-11
6.455e-10
7.641e-11
6.219e-10
7.133e-11
5.999e-10
6.637e-11
5.795e-10
6.155e-11
5.606e-10
5.692e-11
5.431e-10
5.249e-11
5.27e-10
4.828e-11
5.122e-10
4.43e-11
4.986e-10
4.056e-11
4.862e-10
3.706e-11
4.748e-10
3.379e-11
4.645e-10
3.075e-11
4.55e-10
2.794e-11
4.465e-10
2.534e-11
4.387e-10
2.294e-11
4.316e-10
2.074e-11
4.253e-10
1.873e-11
4.195e-10
1.688e-11
4.143e-10
1.519e-11
4.096e-10
1.366e-11
4.054e-10
1.226e-11
4.017e-10
1.1e-11
3.983e-10
9.849e-12
3.952e-10
8.814e-12
3.925e-10
7.882e-12
3.9e-10
7.046e-12
3.879e-10
6.3e-12
3.859e-10
5.639e-12
3.841e-10
5.058e-12
3.825e-10
4.553e-12
3.811e-10
4.123e-12
3.798e-10
3.765e-12
3.786e-10
3.479e-12
3.775e-10
3.264e-12
3.765e-10
3.122e-12
3.755e-10
3.05e-12
3.746e-10
3.045e-12
3.737e-10
3.097e-12
3.728e-10
3.18e-12
3.246e-12
9.592e-10
1.079e-10
9.876e-10
2.478e-10
1.003e-09
3.189e-10
1e-09
3.411e-10
9.828e-10
3.341e-10
9.548e-10
3.116e-10
9.209e-10
2.825e-10
8.843e-10
2.517e-10
8.476e-10
2.219e-10
8.122e-10
1.944e-10
7.79e-10
1.696e-10
7.485e-10
1.476e-10
7.209e-10
1.281e-10
6.961e-10
1.109e-10
6.741e-10
9.564e-11
6.548e-10
8.214e-11
6.38e-10
7.011e-11
6.236e-10
5.931e-11
6.115e-10
4.956e-11
6.015e-10
4.068e-11
5.934e-10
3.252e-11
5.872e-10
2.495e-11
5.829e-10
1.786e-11
5.802e-10
1.114e-11
5.793e-10
4.696e-12
5.8e-10
-1.541e-12
5.823e-10
-7.646e-12
5.862e-10
-1.369e-11
5.917e-10
-1.972e-11
5.989e-10
-2.579e-11
6.077e-10
-3.195e-11
6.182e-10
-3.825e-11
6.305e-10
-4.47e-11
6.445e-10
-5.134e-11
6.604e-10
-5.819e-11
6.782e-10
-6.527e-11
6.979e-10
-7.256e-11
7.196e-10
-8.007e-11
7.434e-10
-8.777e-11
7.692e-10
-9.563e-11
7.972e-10
-1.036e-10
8.272e-10
-1.116e-10
8.594e-10
-1.196e-10
8.936e-10
-1.274e-10
9.297e-10
-1.35e-10
9.678e-10
-1.421e-10
1.008e-09
-1.487e-10
1.049e-09
-1.546e-10
1.091e-09
-1.594e-10
1.135e-09
-1.631e-10
1.179e-09
-1.655e-10
1.223e-09
-1.662e-10
1.267e-09
-1.651e-10
1.31e-09
-1.62e-10
1.351e-09
-1.567e-10
1.391e-09
-1.491e-10
1.428e-09
-1.391e-10
1.462e-09
-1.268e-10
1.491e-09
-1.122e-10
1.517e-09
-9.542e-11
1.537e-09
-7.678e-11
1.552e-09
-5.66e-11
1.562e-09
-3.533e-11
1.566e-09
-1.343e-11
1.563e-09
8.58e-12
1.555e-09
3.018e-11
1.542e-09
5.091e-11
1.524e-09
7.038e-11
1.5e-09
8.825e-11
1.473e-09
1.043e-10
1.442e-09
1.184e-10
1.407e-09
1.304e-10
1.37e-09
1.403e-10
1.331e-09
1.482e-10
1.29e-09
1.54e-10
1.248e-09
1.58e-10
1.205e-09
1.601e-10
1.163e-09
1.607e-10
1.12e-09
1.597e-10
1.078e-09
1.574e-10
1.037e-09
1.54e-10
9.966e-10
1.496e-10
9.578e-10
1.445e-10
9.205e-10
1.386e-10
8.849e-10
1.323e-10
8.509e-10
1.257e-10
8.188e-10
1.188e-10
7.884e-10
1.119e-10
7.599e-10
1.049e-10
7.332e-10
9.802e-11
7.083e-10
9.127e-11
6.852e-10
8.471e-11
6.637e-10
7.84e-11
6.438e-10
7.236e-11
6.255e-10
6.662e-11
6.086e-10
6.118e-11
5.931e-10
5.606e-11
5.789e-10
5.127e-11
5.659e-10
4.679e-11
5.54e-10
4.262e-11
5.432e-10
3.876e-11
5.333e-10
3.518e-11
5.244e-10
3.189e-11
5.163e-10
2.885e-11
5.089e-10
2.607e-11
5.023e-10
2.352e-11
4.963e-10
2.12e-11
4.909e-10
1.907e-11
4.86e-10
1.714e-11
4.816e-10
1.538e-11
4.777e-10
1.379e-11
4.741e-10
1.236e-11
4.71e-10
1.106e-11
4.681e-10
9.896e-12
4.656e-10
8.855e-12
4.633e-10
7.93e-12
4.612e-10
7.114e-12
4.594e-10
6.402e-12
4.577e-10
5.789e-12
4.562e-10
5.273e-12
4.548e-10
4.851e-12
4.536e-10
4.522e-12
4.524e-10
4.282e-12
4.513e-10
4.13e-12
4.503e-10
4.059e-12
4.493e-10
4.055e-12
4.484e-10
4.093e-12
4.134e-12
9.536e-10
9.182e-11
9.795e-10
2.219e-10
9.997e-10
2.988e-10
1.008e-09
3.332e-10
1.003e-09
3.387e-10
9.882e-10
3.265e-10
9.661e-10
3.046e-10
9.395e-10
2.783e-10
9.108e-10
2.506e-10
8.816e-10
2.236e-10
8.531e-10
1.981e-10
8.261e-10
1.746e-10
8.009e-10
1.533e-10
7.779e-10
1.339e-10
7.571e-10
1.164e-10
7.385e-10
1.007e-10
7.223e-10
8.638e-11
7.082e-10
7.34e-11
6.962e-10
6.153e-11
6.863e-10
5.062e-11
6.783e-10
4.05e-11
6.722e-10
3.103e-11
6.68e-10
2.21e-11
6.655e-10
1.36e-11
6.648e-10
5.406e-12
6.658e-10
-2.557e-12
6.686e-10
-1.038e-11
6.73e-10
-1.813e-11
6.792e-10
-2.589e-11
6.871e-10
-3.371e-11
6.968e-10
-4.166e-11
7.083e-10
-4.977e-11
7.217e-10
-5.809e-11
7.37e-10
-6.666e-11
7.543e-10
-7.549e-11
7.737e-10
-8.46e-11
7.951e-10
-9.399e-11
8.187e-10
-1.036e-10
8.444e-10
-1.135e-10
8.725e-10
-1.236e-10
9.027e-10
-1.339e-10
9.353e-10
-1.442e-10
9.701e-10
-1.544e-10
1.007e-09
-1.644e-10
1.046e-09
-1.741e-10
1.087e-09
-1.833e-10
1.13e-09
-1.917e-10
1.175e-09
-1.992e-10
1.221e-09
-2.054e-10
1.268e-09
-2.101e-10
1.316e-09
-2.131e-10
1.363e-09
-2.14e-10
1.411e-09
-2.126e-10
1.458e-09
-2.086e-10
1.503e-09
-2.019e-10
1.546e-09
-1.921e-10
1.586e-09
-1.793e-10
1.623e-09
-1.635e-10
1.655e-09
-1.447e-10
1.683e-09
-1.231e-10
1.705e-09
-9.911e-11
1.722e-09
-7.311e-11
1.732e-09
-4.567e-11
1.736e-09
-1.743e-11
1.734e-09
1.095e-11
1.725e-09
3.879e-11
1.71e-09
6.549e-11
1.69e-09
9.054e-11
1.665e-09
1.135e-10
1.635e-09
1.342e-10
1.601e-09
1.523e-10
1.564e-09
1.677e-10
1.524e-09
1.805e-10
1.481e-09
1.906e-10
1.437e-09
1.982e-10
1.392e-09
2.034e-10
1.346e-09
2.062e-10
1.299e-09
2.07e-10
1.253e-09
2.058e-10
1.208e-09
2.03e-10
1.163e-09
1.986e-10
1.12e-09
1.931e-10
1.078e-09
1.865e-10
1.037e-09
1.791e-10
9.984e-10
1.71e-10
9.616e-10
1.625e-10
9.267e-10
1.538e-10
8.937e-10
1.448e-10
8.627e-10
1.359e-10
8.337e-10
1.271e-10
8.065e-10
1.184e-10
7.813e-10
1.1e-10
7.578e-10
1.018e-10
7.361e-10
9.406e-11
7.161e-10
8.666e-11
6.976e-10
7.965e-11
6.807e-10
7.304e-11
6.651e-10
6.684e-11
6.508e-10
6.105e-11
6.378e-10
5.566e-11
6.259e-10
5.065e-11
6.15e-10
4.602e-11
6.052e-10
4.174e-11
5.962e-10
3.78e-11
5.881e-10
3.419e-11
5.808e-10
3.087e-11
5.741e-10
2.784e-11
5.681e-10
2.507e-11
5.627e-10
2.255e-11
5.578e-10
2.026e-11
5.535e-10
1.818e-11
5.495e-10
1.63e-11
5.46e-10
1.46e-11
5.428e-10
1.308e-11
5.399e-10
1.171e-11
5.374e-10
1.049e-11
5.351e-10
9.41e-12
5.33e-10
8.464e-12
5.312e-10
7.645e-12
5.295e-10
6.947e-12
5.28e-10
6.366e-12
5.266e-10
5.899e-12
5.253e-10
5.542e-12
5.242e-10
5.289e-12
5.231e-10
5.133e-12
5.221e-10
5.059e-12
5.212e-10
5.045e-12
5.056e-12
9.498e-10
7.952e-11
9.725e-10
1.991e-10
9.94e-10
2.773e-10
1.008e-09
3.193e-10
1.012e-09
3.345e-10
1.007e-09
3.314e-10
9.95e-10
3.168e-10
9.776e-10
2.956e-10
9.569e-10
2.713e-10
9.345e-10
2.46e-10
9.115e-10
2.211e-10
8.889e-10
1.973e-10
8.672e-10
1.749e-10
8.469e-10
1.542e-10
8.282e-10
1.351e-10
8.113e-10
1.175e-10
7.963e-10
1.014e-10
7.832e-10
8.652e-11
7.719e-10
7.275e-11
7.626e-10
5.995e-11
7.551e-10
4.798e-11
7.495e-10
3.67e-11
7.456e-10
2.598e-11
7.435e-10
1.57e-11
7.431e-10
5.755e-12
7.445e-10
-3.954e-12
7.477e-10
-1.352e-11
7.526e-10
-2.304e-11
7.593e-10
-3.257e-11
7.678e-10
-4.22e-11
7.781e-10
-5.2e-11
7.903e-10
-6.2e-11
8.045e-10
-7.227e-11
8.207e-10
-8.284e-11
8.389e-10
-9.374e-11
8.593e-10
-1.05e-10
8.819e-10
-1.166e-10
9.067e-10
-1.285e-10
9.338e-10
-1.407e-10
9.633e-10
-1.531e-10
9.951e-10
-1.657e-10
1.029e-09
-1.784e-10
1.066e-09
-1.909e-10
1.105e-09
-2.033e-10
1.146e-09
-2.152e-10
1.189e-09
-2.265e-10
1.234e-09
-2.369e-10
1.281e-09
-2.461e-10
1.33e-09
-2.538e-10
1.379e-09
-2.596e-10
1.429e-09
-2.633e-10
1.48e-09
-2.645e-10
1.53e-09
-2.628e-10
1.579e-09
-2.579e-10
1.627e-09
-2.496e-10
1.673e-09
-2.377e-10
1.715e-09
-2.22e-10
1.754e-09
-2.025e-10
1.789e-09
-1.792e-10
1.818e-09
-1.526e-10
1.842e-09
-1.229e-10
1.86e-09
-9.07e-11
1.871e-09
-5.668e-11
1.875e-09
-2.166e-11
1.872e-09
1.352e-11
1.863e-09
4.8e-11
1.848e-09
8.104e-11
1.826e-09
1.12e-10
1.799e-09
1.404e-10
1.768e-09
1.658e-10
1.732e-09
1.881e-10
1.692e-09
2.072e-10
1.65e-09
2.229e-10
1.605e-09
2.354e-10
1.559e-09
2.448e-10
1.511e-09
2.512e-10
1.462e-09
2.547e-10
1.413e-09
2.557e-10
1.365e-09
2.544e-10
1.317e-09
2.509e-10
1.27e-09
2.456e-10
1.224e-09
2.388e-10
1.18e-09
2.308e-10
1.137e-09
2.217e-10
1.097e-09
2.118e-10
1.058e-09
2.014e-10
1.021e-09
1.906e-10
9.862e-10
1.796e-10
9.535e-10
1.686e-10
9.229e-10
1.577e-10
8.942e-10
1.47e-10
8.676e-10
1.366e-10
8.428e-10
1.266e-10
8.198e-10
1.17e-10
7.986e-10
1.079e-10
7.791e-10
9.92e-11
7.611e-10
9.104e-11
7.445e-10
8.337e-11
7.294e-10
7.619e-11
7.155e-10
6.951e-11
7.029e-10
6.33e-11
6.914e-10
5.755e-11
6.809e-10
5.224e-11
6.713e-10
4.735e-11
6.626e-10
4.285e-11
6.548e-10
3.873e-11
6.477e-10
3.495e-11
6.412e-10
3.15e-11
6.354e-10
2.836e-11
6.302e-10
2.55e-11
6.255e-10
2.29e-11
6.212e-10
2.054e-11
6.174e-10
1.842e-11
6.14e-10
1.65e-11
6.109e-10
1.478e-11
6.082e-10
1.325e-11
6.057e-10
1.188e-11
6.035e-10
1.068e-11
6.015e-10
9.639e-12
5.997e-10
8.74e-12
5.981e-10
7.982e-12
5.966e-10
7.36e-12
5.953e-10
6.868e-12
5.941e-10
6.499e-12
5.93e-10
6.244e-12
5.919e-10
6.089e-12
5.91e-10
6.016e-12
5.996e-12
9.472e-10
6.984e-11
9.669e-10
1.794e-10
9.88e-10
2.561e-10
1.005e-09
3.025e-10
1.015e-09
3.246e-10
1.017e-09
3.289e-10
1.013e-09
3.21e-10
1.003e-09
3.051e-10
9.901e-10
2.847e-10
9.742e-10
2.619e-10
9.569e-10
2.384e-10
9.391e-10
2.151e-10
9.214e-10
1.926e-10
9.044e-10
1.712e-10
8.885e-10
1.511e-10
8.738e-10
1.322e-10
8.606e-10
1.146e-10
8.49e-10
9.816e-11
8.39e-10
8.277e-11
8.306e-10
6.831e-11
8.239e-10
5.466e-11
8.189e-10
4.169e-11
8.156e-10
2.927e-11
8.14e-10
1.73e-11
8.141e-10
5.661e-12
8.159e-10
-5.757e-12
8.195e-10
-1.705e-11
8.247e-10
-2.831e-11
8.318e-10
-3.963e-11
8.407e-10
-5.108e-11
8.514e-10
-6.273e-11
8.64e-10
-7.465e-11
8.787e-10
-8.689e-11
8.953e-10
-9.949e-11
9.141e-10
-1.125e-10
9.35e-10
-1.259e-10
9.581e-10
-1.397e-10
9.835e-10
-1.539e-10
1.011e-09
-1.684e-10
1.041e-09
-1.833e-10
1.074e-09
-1.983e-10
1.109e-09
-2.134e-10
1.147e-09
-2.284e-10
1.186e-09
-2.431e-10
1.229e-09
-2.574e-10
1.273e-09
-2.709e-10
1.319e-09
-2.833e-10
1.367e-09
-2.943e-10
1.417e-09
-3.035e-10
1.468e-09
-3.106e-10
1.52e-09
-3.151e-10
1.572e-09
-3.166e-10
1.624e-09
-3.146e-10
1.675e-09
-3.09e-10
1.724e-09
-2.992e-10
1.772e-09
-2.85e-10
1.816e-09
-2.663e-10
1.857e-09
-2.43e-10
1.893e-09
-2.153e-10
1.923e-09
-1.834e-10
1.948e-09
-1.478e-10
1.967e-09
-1.091e-10
1.978e-09
-6.815e-11
1.982e-09
-2.6e-11
1.98e-09
1.631e-11
1.97e-09
5.774e-11
1.954e-09
9.736e-11
1.931e-09
1.344e-10
1.903e-09
1.683e-10
1.87e-09
1.987e-10
1.833e-09
2.253e-10
1.792e-09
2.479e-10
1.749e-09
2.667e-10
1.702e-09
2.816e-10
1.654e-09
2.928e-10
1.605e-09
3.004e-10
1.555e-09
3.047e-10
1.505e-09
3.059e-10
1.455e-09
3.043e-10
1.406e-09
3.002e-10
1.357e-09
2.94e-10
1.31e-09
2.859e-10
1.265e-09
2.763e-10
1.221e-09
2.654e-10
1.179e-09
2.537e-10
1.139e-09
2.412e-10
1.101e-09
2.284e-10
1.066e-09
2.153e-10
1.032e-09
2.022e-10
1.001e-09
1.892e-10
9.712e-10
1.765e-10
9.438e-10
1.641e-10
9.183e-10
1.521e-10
8.947e-10
1.406e-10
8.728e-10
1.297e-10
8.527e-10
1.194e-10
8.341e-10
1.096e-10
8.171e-10
1.004e-10
8.015e-10
9.183e-11
7.871e-10
8.383e-11
7.74e-10
7.639e-11
7.621e-10
6.95e-11
7.512e-10
6.312e-11
7.413e-10
5.725e-11
7.323e-10
5.185e-11
7.242e-10
4.689e-11
7.168e-10
4.234e-11
7.101e-10
3.819e-11
7.04e-10
3.44e-11
6.986e-10
3.095e-11
6.937e-10
2.782e-11
6.892e-10
2.497e-11
6.853e-10
2.24e-11
6.817e-10
2.008e-11
6.785e-10
1.8e-11
6.756e-10
1.613e-11
6.73e-10
1.447e-11
6.707e-10
1.301e-11
6.686e-10
1.172e-11
6.667e-10
1.061e-11
6.65e-10
9.659e-12
6.635e-10
8.869e-12
6.622e-10
8.229e-12
6.609e-10
7.732e-12
6.598e-10
7.369e-12
6.588e-10
7.126e-12
6.578e-10
6.989e-12
6.937e-12
9.454e-10
6.198e-11
9.625e-10
1.623e-10
9.826e-10
2.361e-10
1.001e-09
2.845e-10
1.014e-09
3.113e-10
1.022e-09
3.213e-10
1.024e-09
3.19e-10
1.021e-09
3.081e-10
1.014e-09
2.917e-10
1.004e-09
2.718e-10
9.918e-10
2.503e-10
9.788e-10
2.281e-10
9.653e-10
2.06e-10
9.52e-10
1.846e-10
9.391e-10
1.639e-10
9.27e-10
1.443e-10
9.16e-10
1.256e-10
9.062e-10
1.08e-10
8.977e-10
9.127e-11
8.906e-10
7.541e-11
8.849e-10
6.029e-11
8.808e-10
4.581e-11
8.782e-10
3.186e-11
8.772e-10
1.832e-11
8.778e-10
5.077e-12
8.8e-10
-7.964e-12
8.839e-10
-2.091e-11
8.894e-10
-3.386e-11
8.967e-10
-4.691e-11
9.057e-10
-6.013e-11
9.166e-10
-7.361e-11
9.294e-10
-8.741e-11
9.441e-10
-1.016e-10
9.608e-10
-1.162e-10
9.796e-10
-1.313e-10
1.001e-09
-1.468e-10
1.024e-09
-1.629e-10
1.049e-09
-1.793e-10
1.077e-09
-1.962e-10
1.107e-09
-2.135e-10
1.14e-09
-2.309e-10
1.175e-09
-2.485e-10
1.212e-09
-2.659e-10
1.252e-09
-2.831e-10
1.295e-09
-2.996e-10
1.339e-09
-3.154e-10
1.386e-09
-3.298e-10
1.434e-09
-3.427e-10
1.484e-09
-3.536e-10
1.535e-09
-3.619e-10
1.588e-09
-3.673e-10
1.64e-09
-3.692e-10
1.693e-09
-3.671e-10
1.745e-09
-3.607e-10
1.795e-09
-3.495e-10
1.843e-09
-3.332e-10
1.888e-09
-3.116e-10
1.93e-09
-2.845e-10
1.967e-09
-2.522e-10
1.998e-09
-2.15e-10
2.024e-09
-1.733e-10
2.043e-09
-1.279e-10
2.054e-09
-7.985e-11
2.059e-09
-3.033e-11
2.056e-09
1.936e-11
2.045e-09
6.794e-11
2.029e-09
1.143e-10
2.006e-09
1.575e-10
1.977e-09
1.969e-10
1.943e-09
2.322e-10
1.906e-09
2.63e-10
1.864e-09
2.893e-10
1.82e-09
3.111e-10
1.773e-09
3.284e-10
1.725e-09
3.413e-10
1.675e-09
3.501e-10
1.625e-09
3.551e-10
1.574e-09
3.565e-10
1.524e-09
3.546e-10
1.474e-09
3.499e-10
1.425e-09
3.426e-10
1.378e-09
3.332e-10
1.332e-09
3.22e-10
1.288e-09
3.094e-10
1.246e-09
2.958e-10
1.206e-09
2.813e-10
1.168e-09
2.664e-10
1.132e-09
2.512e-10
1.099e-09
2.359e-10
1.067e-09
2.208e-10
1.037e-09
2.06e-10
1.01e-09
1.916e-10
9.843e-10
1.777e-10
9.606e-10
1.644e-10
9.387e-10
1.517e-10
9.184e-10
1.396e-10
8.998e-10
1.282e-10
8.826e-10
1.176e-10
8.669e-10
1.076e-10
8.524e-10
9.825e-11
8.393e-10
8.958e-11
8.272e-10
8.154e-11
8.162e-10
7.411e-11
8.062e-10
6.725e-11
7.971e-10
6.094e-11
7.889e-10
5.514e-11
7.814e-10
4.983e-11
7.746e-10
4.497e-11
7.685e-10
4.054e-11
7.629e-10
3.649e-11
7.58e-10
3.282e-11
7.534e-10
2.948e-11
7.494e-10
2.646e-11
7.457e-10
2.373e-11
7.425e-10
2.127e-11
7.395e-10
1.907e-11
7.369e-10
1.711e-11
7.345e-10
1.537e-11
7.324e-10
1.383e-11
7.305e-10
1.25e-11
7.288e-10
1.135e-11
7.273e-10
1.039e-11
7.259e-10
9.594e-12
7.247e-10
8.962e-12
7.236e-10
8.483e-12
7.226e-10
8.148e-12
7.216e-10
7.945e-12
7.859e-12
9.44e-10
5.544e-11
9.591e-10
1.472e-10
9.778e-10
2.174e-10
9.962e-10
2.661e-10
1.012e-09
2.959e-10
1.023e-09
3.102e-10
1.029e-09
3.125e-10
1.031e-09
3.06e-10
1.03e-09
2.933e-10
1.025e-09
2.765e-10
1.018e-09
2.572e-10
1.01e-09
2.365e-10
1.001e-09
2.154e-10
9.908e-10
1.943e-10
9.811e-10
1.736e-10
9.718e-10
1.536e-10
9.632e-10
1.343e-10
9.554e-10
1.158e-10
9.486e-10
9.807e-11
9.429e-10
8.107e-11
9.385e-10
6.473e-11
9.353e-10
4.895e-11
9.335e-10
3.364e-11
9.332e-10
1.869e-11
9.342e-10
3.996e-12
9.368e-10
-1.054e-11
9.409e-10
-2.503e-11
9.467e-10
-3.957e-11
9.54e-10
-5.425e-11
9.63e-10
-6.916e-11
9.738e-10
-8.439e-11
9.864e-10
-1e-10
1.001e-09
-1.161e-10
1.017e-09
-1.326e-10
1.036e-09
-1.497e-10
1.056e-09
-1.673e-10
1.079e-09
-1.855e-10
1.104e-09
-2.042e-10
1.131e-09
-2.234e-10
1.16e-09
-2.43e-10
1.192e-09
-2.628e-10
1.227e-09
-2.828e-10
1.263e-09
-3.026e-10
1.302e-09
-3.222e-10
1.344e-09
-3.411e-10
1.388e-09
-3.59e-10
1.433e-09
-3.756e-10
1.481e-09
-3.904e-10
1.53e-09
-4.029e-10
1.581e-09
-4.126e-10
1.633e-09
-4.189e-10
1.685e-09
-4.213e-10
1.737e-09
-4.193e-10
1.789e-09
-4.122e-10
1.839e-09
-3.997e-10
1.887e-09
-3.813e-10
1.932e-09
-3.569e-10
1.974e-09
-3.262e-10
2.011e-09
-2.894e-10
2.043e-09
-2.468e-10
2.069e-09
-1.99e-10
2.087e-09
-1.468e-10
2.099e-09
-9.153e-11
2.103e-09
-3.448e-11
2.1e-09
2.272e-11
2.089e-09
7.849e-11
2.072e-09
1.315e-10
2.049e-09
1.808e-10
2.02e-09
2.257e-10
1.987e-09
2.657e-10
1.949e-09
3.006e-10
1.908e-09
3.304e-10
1.864e-09
3.55e-10
1.818e-09
3.746e-10
1.77e-09
3.893e-10
1.721e-09
3.993e-10
1.671e-09
4.049e-10
1.621e-09
4.064e-10
1.571e-09
4.043e-10
1.522e-09
3.989e-10
1.474e-09
3.906e-10
1.428e-09
3.798e-10
1.383e-09
3.671e-10
1.339e-09
3.527e-10
1.298e-09
3.371e-10
1.259e-09
3.207e-10
1.221e-09
3.037e-10
1.186e-09
2.863e-10
1.153e-09
2.69e-10
1.122e-09
2.518e-10
1.093e-09
2.35e-10
1.066e-09
2.186e-10
1.041e-09
2.028e-10
1.018e-09
1.876e-10
9.961e-10
1.732e-10
9.762e-10
1.595e-10
9.579e-10
1.466e-10
9.411e-10
1.344e-10
9.256e-10
1.23e-10
9.115e-10
1.124e-10
8.985e-10
1.025e-10
8.866e-10
9.339e-11
8.758e-10
8.492e-11
8.66e-10
7.71e-11
8.57e-10
6.99e-11
8.489e-10
6.329e-11
8.415e-10
5.722e-11
8.348e-10
5.167e-11
8.287e-10
4.66e-11
8.232e-10
4.197e-11
8.183e-10
3.777e-11
8.138e-10
3.394e-11
8.098e-10
3.048e-11
8.062e-10
2.735e-11
8.029e-10
2.452e-11
8e-10
2.199e-11
7.974e-10
1.972e-11
7.951e-10
1.771e-11
7.93e-10
1.593e-11
7.911e-10
1.437e-11
7.894e-10
1.303e-11
7.879e-10
1.188e-11
7.866e-10
1.093e-11
7.854e-10
1.016e-11
7.843e-10
9.564e-12
7.833e-10
9.135e-12
7.824e-10
8.864e-12
8.745e-12
9.431e-10
4.985e-11
9.564e-10
1.339e-10
9.738e-10
2e-10
9.92e-10
2.479e-10
1.008e-09
2.793e-10
1.022e-09
2.966e-10
1.032e-09
3.026e-10
1.038e-09
2.998e-10
1.041e-09
2.905e-10
1.041e-09
2.766e-10
1.038e-09
2.597e-10
1.034e-09
2.408e-10
1.028e-09
2.209e-10
1.022e-09
2.005e-10
1.016e-09
1.801e-10
1.009e-09
1.601e-10
1.003e-09
1.405e-10
9.972e-10
1.215e-10
9.922e-10
1.031e-10
9.881e-10
8.521e-11
9.849e-10
6.79e-11
9.828e-10
5.105e-11
9.819e-10
3.458e-11
9.821e-10
1.842e-11
9.837e-10
2.442e-12
9.866e-10
-1.344e-11
9.909e-10
-2.932e-11
9.966e-10
-4.53e-11
1.004e-09
-6.149e-11
1.013e-09
-7.796e-11
1.023e-09
-9.481e-11
1.035e-09
-1.121e-10
1.049e-09
-1.299e-10
1.065e-09
-1.483e-10
1.082e-09
-1.673e-10
1.102e-09
-1.869e-10
1.124e-09
-2.071e-10
1.147e-09
-2.28e-10
1.173e-09
-2.493e-10
1.201e-09
-2.712e-10
1.232e-09
-2.933e-10
1.265e-09
-3.156e-10
1.3e-09
-3.378e-10
1.337e-09
-3.596e-10
1.377e-09
-3.809e-10
1.419e-09
-4.01e-10
1.463e-09
-4.197e-10
1.509e-09
-4.364e-10
1.557e-09
-4.506e-10
1.606e-09
-4.616e-10
1.656e-09
-4.689e-10
1.706e-09
-4.719e-10
1.757e-09
-4.699e-10
1.807e-09
-4.623e-10
1.856e-09