/*--------------------------------*- C++ -*----------------------------------*\
  =========                 |
  \\      /  F ield         | OpenFOAM: The Open Source CFD Toolbox
   \\    /   O peration     | Website:  https://openfoam.org
    \\  /    A nd           | Version:  7
     \\/     M anipulation  |
\*---------------------------------------------------------------------------*/
FoamFile
{
    version     2.0;
    format      ascii;
    class       volVectorField;
    location    "1079.99947341182133";
    object      U;
}
// * * * * * * * * * * * * * * * * * * * * * * * * * * * * * * * * * * * * * //

dimensions      [0 1 -1 0 0 0 0];

internalField   nonuniform List<vector> 
4096
(
(0.001039 0.0001611 0)
(0.0007463 0.0001314 0)
(0.0005302 8.474e-05 0)
(0.0003919 5.358e-05 0)
(0.0003036 3.466e-05 0)
(0.0002457 2.327e-05 0)
(0.0002061 1.632e-05 0)
(0.0001779 1.193e-05 0)
(0.0001569 9.039e-06 0)
(0.0001408 7.049e-06 0)
(0.0001281 5.618e-06 0)
(0.000118 4.553e-06 0)
(0.0001097 3.735e-06 0)
(0.0001028 3.089e-06 0)
(9.719e-05 2.569e-06 0)
(9.248e-05 2.141e-06 0)
(8.855e-05 1.783e-06 0)
(8.529e-05 1.479e-06 0)
(8.26e-05 1.216e-06 0)
(8.04e-05 9.861e-07 0)
(7.863e-05 7.816e-07 0)
(7.725e-05 5.972e-07 0)
(7.622e-05 4.283e-07 0)
(7.552e-05 2.713e-07 0)
(7.513e-05 1.232e-07 0)
(7.502e-05 -1.859e-08 0)
(7.52e-05 -1.564e-07 0)
(7.565e-05 -2.92e-07 0)
(7.637e-05 -4.272e-07 0)
(7.736e-05 -5.636e-07 0)
(7.862e-05 -7.023e-07 0)
(8.017e-05 -8.445e-07 0)
(8.201e-05 -9.913e-07 0)
(8.414e-05 -1.144e-06 0)
(8.659e-05 -1.302e-06 0)
(8.935e-05 -1.466e-06 0)
(9.246e-05 -1.638e-06 0)
(9.591e-05 -1.816e-06 0)
(9.973e-05 -2.001e-06 0)
(0.0001039 -2.191e-06 0)
(0.0001085 -2.386e-06 0)
(0.0001135 -2.584e-06 0)
(0.0001188 -2.784e-06 0)
(0.0001246 -2.982e-06 0)
(0.0001308 -3.176e-06 0)
(0.0001373 -3.363e-06 0)
(0.0001442 -3.537e-06 0)
(0.0001514 -3.695e-06 0)
(0.000159 -3.831e-06 0)
(0.0001667 -3.939e-06 0)
(0.0001747 -4.014e-06 0)
(0.0001827 -4.049e-06 0)
(0.0001908 -4.039e-06 0)
(0.0001988 -3.977e-06 0)
(0.0002067 -3.86e-06 0)
(0.0002142 -3.683e-06 0)
(0.0002214 -3.445e-06 0)
(0.0002279 -3.144e-06 0)
(0.0002339 -2.783e-06 0)
(0.000239 -2.366e-06 0)
(0.0002433 -1.899e-06 0)
(0.0002466 -1.391e-06 0)
(0.0002488 -8.554e-07 0)
(0.00025 -3.034e-07 0)
(0.00025 2.506e-07 0)
(0.000249 7.932e-07 0)
(0.0002469 1.312e-06 0)
(0.0002438 1.796e-06 0)
(0.0002397 2.236e-06 0)
(0.0002349 2.628e-06 0)
(0.0002293 2.967e-06 0)
(0.0002231 3.251e-06 0)
(0.0002163 3.481e-06 0)
(0.0002092 3.657e-06 0)
(0.0002018 3.781e-06 0)
(0.0001941 3.858e-06 0)
(0.0001864 3.89e-06 0)
(0.0001786 3.881e-06 0)
(0.0001709 3.837e-06 0)
(0.0001633 3.761e-06 0)
(0.0001559 3.658e-06 0)
(0.0001487 3.534e-06 0)
(0.0001418 3.391e-06 0)
(0.0001351 3.235e-06 0)
(0.0001288 3.07e-06 0)
(0.0001229 2.899e-06 0)
(0.0001172 2.724e-06 0)
(0.000112 2.549e-06 0)
(0.000107 2.376e-06 0)
(0.0001025 2.206e-06 0)
(9.82e-05 2.041e-06 0)
(9.428e-05 1.883e-06 0)
(9.066e-05 1.732e-06 0)
(8.734e-05 1.589e-06 0)
(8.43e-05 1.454e-06 0)
(8.152e-05 1.327e-06 0)
(7.898e-05 1.209e-06 0)
(7.667e-05 1.098e-06 0)
(7.458e-05 9.963e-07 0)
(7.268e-05 9.02e-07 0)
(7.096e-05 8.15e-07 0)
(6.941e-05 7.352e-07 0)
(6.802e-05 6.621e-07 0)
(6.676e-05 5.953e-07 0)
(6.563e-05 5.344e-07 0)
(6.462e-05 4.79e-07 0)
(6.371e-05 4.286e-07 0)
(6.29e-05 3.83e-07 0)
(6.217e-05 3.418e-07 0)
(6.153e-05 3.045e-07 0)
(6.095e-05 2.71e-07 0)
(6.044e-05 2.409e-07 0)
(5.998e-05 2.139e-07 0)
(5.958e-05 1.899e-07 0)
(5.922e-05 1.686e-07 0)
(5.89e-05 1.5e-07 0)
(5.862e-05 1.338e-07 0)
(5.836e-05 1.201e-07 0)
(5.814e-05 1.088e-07 0)
(5.793e-05 9.999e-08 0)
(5.773e-05 9.4e-08 0)
(5.755e-05 9.121e-08 0)
(5.736e-05 9.242e-08 0)
(5.717e-05 9.916e-08 0)
(5.696e-05 1.143e-07 0)
(5.67e-05 1.426e-07 0)
(5.637e-05 1.894e-07 0)
(5.593e-05 2.462e-07 0)
(0.001209 0.0003128 0)
(0.001154 0.0003282 0)
(0.00101 0.000248 0)
(0.0008613 0.0001771 0)
(0.0007345 0.0001262 0)
(0.0006328 9.141e-05 0)
(0.0005527 6.784e-05 0)
(0.0004896 5.168e-05 0)
(0.0004396 4.031e-05 0)
(0.0003994 3.209e-05 0)
(0.0003667 2.595e-05 0)
(0.0003398 2.126e-05 0)
(0.0003175 1.758e-05 0)
(0.000299 1.463e-05 0)
(0.0002834 1.222e-05 0)
(0.0002704 1.023e-05 0)
(0.0002595 8.546e-06 0)
(0.0002503 7.107e-06 0)
(0.0002428 5.858e-06 0)
(0.0002366 4.76e-06 0)
(0.0002316 3.78e-06 0)
(0.0002276 2.893e-06 0)
(0.0002247 2.08e-06 0)
(0.0002227 1.323e-06 0)
(0.0002216 6.073e-07 0)
(0.0002212 -7.802e-08 0)
(0.0002217 -7.437e-07 0)
(0.000223 -1.399e-06 0)
(0.000225 -2.051e-06 0)
(0.0002278 -2.708e-06 0)
(0.0002313 -3.375e-06 0)
(0.0002356 -4.059e-06 0)
(0.0002408 -4.762e-06 0)
(0.0002468 -5.49e-06 0)
(0.0002536 -6.244e-06 0)
(0.0002614 -7.028e-06 0)
(0.00027 -7.841e-06 0)
(0.0002796 -8.685e-06 0)
(0.0002902 -9.556e-06 0)
(0.0003019 -1.045e-05 0)
(0.0003145 -1.137e-05 0)
(0.0003283 -1.229e-05 0)
(0.000343 -1.322e-05 0)
(0.0003589 -1.414e-05 0)
(0.0003757 -1.504e-05 0)
(0.0003936 -1.59e-05 0)
(0.0004124 -1.67e-05 0)
(0.0004321 -1.742e-05 0)
(0.0004525 -1.803e-05 0)
(0.0004735 -1.851e-05 0)
(0.0004949 -1.884e-05 0)
(0.0005166 -1.897e-05 0)
(0.0005383 -1.89e-05 0)
(0.0005597 -1.859e-05 0)
(0.0005807 -1.802e-05 0)
(0.0006008 -1.717e-05 0)
(0.0006197 -1.604e-05 0)
(0.0006372 -1.463e-05 0)
(0.000653 -1.294e-05 0)
(0.0006666 -1.1e-05 0)
(0.0006779 -8.832e-06 0)
(0.0006866 -6.482e-06 0)
(0.0006926 -4e-06 0)
(0.0006958 -1.446e-06 0)
(0.000696 1.118e-06 0)
(0.0006933 3.633e-06 0)
(0.0006878 6.04e-06 0)
(0.0006797 8.292e-06 0)
(0.0006692 1.035e-05 0)
(0.0006563 1.219e-05 0)
(0.0006416 1.378e-05 0)
(0.0006251 1.513e-05 0)
(0.0006072 1.622e-05 0)
(0.0005882 1.707e-05 0)
(0.0005683 1.768e-05 0)
(0.0005478 1.807e-05 0)
(0.000527 1.825e-05 0)
(0.0005061 1.823e-05 0)
(0.0004852 1.805e-05 0)
(0.0004646 1.772e-05 0)
(0.0004445 1.727e-05 0)
(0.0004249 1.671e-05 0)
(0.000406 1.606e-05 0)
(0.0003878 1.535e-05 0)
(0.0003705 1.459e-05 0)
(0.0003541 1.379e-05 0)
(0.0003385 1.298e-05 0)
(0.0003239 1.217e-05 0)
(0.0003102 1.136e-05 0)
(0.0002975 1.056e-05 0)
(0.0002856 9.792e-06 0)
(0.0002746 9.047e-06 0)
(0.0002645 8.334e-06 0)
(0.0002551 7.657e-06 0)
(0.0002465 7.016e-06 0)
(0.0002387 6.414e-06 0)
(0.0002315 5.85e-06 0)
(0.0002249 5.325e-06 0)
(0.000219 4.837e-06 0)
(0.0002135 4.385e-06 0)
(0.0002086 3.968e-06 0)
(0.0002042 3.585e-06 0)
(0.0002001 3.234e-06 0)
(0.0001965 2.912e-06 0)
(0.0001932 2.618e-06 0)
(0.0001903 2.35e-06 0)
(0.0001876 2.107e-06 0)
(0.0001853 1.886e-06 0)
(0.0001832 1.686e-06 0)
(0.0001813 1.505e-06 0)
(0.0001796 1.342e-06 0)
(0.0001781 1.195e-06 0)
(0.0001767 1.063e-06 0)
(0.0001755 9.461e-07 0)
(0.0001744 8.421e-07 0)
(0.0001735 7.506e-07 0)
(0.0001726 6.712e-07 0)
(0.0001719 6.034e-07 0)
(0.0001712 5.473e-07 0)
(0.0001705 5.032e-07 0)
(0.0001699 4.719e-07 0)
(0.0001694 4.548e-07 0)
(0.0001688 4.543e-07 0)
(0.0001683 4.746e-07 0)
(0.0001677 5.221e-07 0)
(0.0001671 6.06e-07 0)
(0.0001664 7.308e-07 0)
(0.0001657 8.612e-07 0)
(0.001226 0.0002775 0)
(0.001243 0.0004027 0)
(0.001194 0.0003664 0)
(0.001102 0.0002982 0)
(0.0009998 0.0002344 0)
(0.0009018 0.0001829 0)
(0.0008146 0.0001436 0)
(0.0007397 0.000114 0)
(0.0006762 9.161e-05 0)
(0.0006226 7.454e-05 0)
(0.0005776 6.129e-05 0)
(0.0005395 5.083e-05 0)
(0.0005074 4.243e-05 0)
(0.0004801 3.558e-05 0)
(0.000457 2.991e-05 0)
(0.0004374 2.515e-05 0)
(0.0004209 2.109e-05 0)
(0.000407 1.76e-05 0)
(0.0003954 1.454e-05 0)
(0.0003858 1.184e-05 0)
(0.0003781 9.421e-06 0)
(0.0003721 7.222e-06 0)
(0.0003675 5.198e-06 0)
(0.0003644 3.309e-06 0)
(0.0003627 1.522e-06 0)
(0.0003622 -1.929e-07 0)
(0.000363 -1.86e-06 0)
(0.0003649 -3.5e-06 0)
(0.0003681 -5.133e-06 0)
(0.0003725 -6.776e-06 0)
(0.0003781 -8.443e-06 0)
(0.0003849 -1.015e-05 0)
(0.0003929 -1.19e-05 0)
(0.0004023 -1.371e-05 0)
(0.000413 -1.558e-05 0)
(0.0004251 -1.752e-05 0)
(0.0004387 -1.953e-05 0)
(0.0004537 -2.161e-05 0)
(0.0004702 -2.376e-05 0)
(0.0004883 -2.596e-05 0)
(0.0005079 -2.82e-05 0)
(0.0005292 -3.046e-05 0)
(0.0005521 -3.273e-05 0)
(0.0005766 -3.497e-05 0)
(0.0006027 -3.714e-05 0)
(0.0006302 -3.922e-05 0)
(0.0006591 -4.114e-05 0)
(0.0006894 -4.285e-05 0)
(0.0007207 -4.431e-05 0)
(0.0007529 -4.544e-05 0)
(0.0007857 -4.618e-05 0)
(0.0008188 -4.646e-05 0)
(0.0008519 -4.623e-05 0)
(0.0008847 -4.542e-05 0)
(0.0009165 -4.399e-05 0)
(0.0009471 -4.189e-05 0)
(0.000976 -3.911e-05 0)
(0.001003 -3.565e-05 0)
(0.001026 -3.153e-05 0)
(0.001047 -2.68e-05 0)
(0.001064 -2.153e-05 0)
(0.001078 -1.582e-05 0)
(0.001087 -9.796e-06 0)
(0.001092 -3.599e-06 0)
(0.001092 2.626e-06 0)
(0.001088 8.733e-06 0)
(0.00108 1.459e-05 0)
(0.001068 2.008e-05 0)
(0.001052 2.51e-05 0)
(0.001032 2.96e-05 0)
(0.00101 3.352e-05 0)
(0.0009851 3.684e-05 0)
(0.0009579 3.956e-05 0)
(0.000929 4.168e-05 0)
(0.0008987 4.322e-05 0)
(0.0008675 4.422e-05 0)
(0.0008357 4.472e-05 0)
(0.0008036 4.475e-05 0)
(0.0007717 4.436e-05 0)
(0.00074 4.361e-05 0)
(0.0007091 4.254e-05 0)
(0.0006789 4.121e-05 0)
(0.0006497 3.967e-05 0)
(0.0006216 3.796e-05 0)
(0.0005948 3.612e-05 0)
(0.0005693 3.42e-05 0)
(0.0005452 3.224e-05 0)
(0.0005224 3.025e-05 0)
(0.0005011 2.828e-05 0)
(0.0004812 2.633e-05 0)
(0.0004626 2.444e-05 0)
(0.0004454 2.261e-05 0)
(0.0004295 2.086e-05 0)
(0.0004148 1.918e-05 0)
(0.0004013 1.76e-05 0)
(0.0003888 1.611e-05 0)
(0.0003775 1.471e-05 0)
(0.0003671 1.341e-05 0)
(0.0003576 1.22e-05 0)
(0.000349 1.107e-05 0)
(0.0003412 1.003e-05 0)
(0.0003341 9.075e-06 0)
(0.0003276 8.196e-06 0)
(0.0003218 7.39e-06 0)
(0.0003166 6.654e-06 0)
(0.0003118 5.981e-06 0)
(0.0003076 5.369e-06 0)
(0.0003038 4.813e-06 0)
(0.0003003 4.309e-06 0)
(0.0002973 3.852e-06 0)
(0.0002945 3.44e-06 0)
(0.0002921 3.069e-06 0)
(0.0002899 2.736e-06 0)
(0.0002879 2.439e-06 0)
(0.0002861 2.175e-06 0)
(0.0002846 1.942e-06 0)
(0.0002832 1.739e-06 0)
(0.0002819 1.565e-06 0)
(0.0002808 1.42e-06 0)
(0.0002797 1.304e-06 0)
(0.0002788 1.218e-06 0)
(0.0002779 1.165e-06 0)
(0.000277 1.148e-06 0)
(0.0002762 1.171e-06 0)
(0.0002753 1.241e-06 0)
(0.0002744 1.362e-06 0)
(0.0002736 1.524e-06 0)
(0.0002727 1.666e-06 0)
(0.001224 0.0002275 0)
(0.00126 0.0004003 0)
(0.001258 0.0004193 0)
(0.001216 0.0003788 0)
(0.001149 0.0003228 0)
(0.001074 0.0002683 0)
(0.0009979 0.0002212 0)
(0.0009268 0.0001824 0)
(0.0008625 0.000151 0)
(0.0008055 0.0001256 0)
(0.0007557 0.0001051 0)
(0.0007123 8.838e-05 0)
(0.0006748 7.458e-05 0)
(0.0006424 6.309e-05 0)
(0.0006145 5.34e-05 0)
(0.0005906 4.515e-05 0)
(0.0005701 3.805e-05 0)
(0.0005528 3.186e-05 0)
(0.0005383 2.641e-05 0)
(0.0005263 2.155e-05 0)
(0.0005165 1.718e-05 0)
(0.0005089 1.318e-05 0)
(0.0005032 9.485e-06 0)
(0.0004993 6.025e-06 0)
(0.0004971 2.742e-06 0)
(0.0004966 -4.139e-07 0)
(0.0004976 -3.486e-06 0)
(0.0005003 -6.511e-06 0)
(0.0005045 -9.525e-06 0)
(0.0005103 -1.255e-05 0)
(0.0005177 -1.563e-05 0)
(0.0005267 -1.877e-05 0)
(0.0005373 -2.199e-05 0)
(0.0005497 -2.532e-05 0)
(0.0005637 -2.875e-05 0)
(0.0005796 -3.231e-05 0)
(0.0005973 -3.599e-05 0)
(0.0006169 -3.978e-05 0)
(0.0006385 -4.369e-05 0)
(0.0006621 -4.769e-05 0)
(0.0006877 -5.176e-05 0)
(0.0007154 -5.586e-05 0)
(0.0007452 -5.996e-05 0)
(0.0007769 -6.4e-05 0)
(0.0008107 -6.792e-05 0)
(0.0008463 -7.164e-05 0)
(0.0008837 -7.507e-05 0)
(0.0009228 -7.813e-05 0)
(0.0009631 -8.071e-05 0)
(0.001005 -8.269e-05 0)
(0.001047 -8.397e-05 0)
(0.001089 -8.442e-05 0)
(0.001132 -8.394e-05 0)
(0.001174 -8.241e-05 0)
(0.001215 -7.977e-05 0)
(0.001254 -7.593e-05 0)
(0.001291 -7.087e-05 0)
(0.001325 -6.458e-05 0)
(0.001356 -5.711e-05 0)
(0.001382 -4.854e-05 0)
(0.001404 -3.901e-05 0)
(0.001421 -2.87e-05 0)
(0.001433 -1.782e-05 0)
(0.001439 -6.634e-06 0)
(0.00144 4.61e-06 0)
(0.001435 1.565e-05 0)
(0.001425 2.624e-05 0)
(0.001409 3.617e-05 0)
(0.001389 4.528e-05 0)
(0.001364 5.345e-05 0)
(0.001336 6.059e-05 0)
(0.001304 6.666e-05 0)
(0.001269 7.165e-05 0)
(0.001232 7.556e-05 0)
(0.001193 7.843e-05 0)
(0.001153 8.032e-05 0)
(0.001112 8.13e-05 0)
(0.001071 8.143e-05 0)
(0.00103 8.081e-05 0)
(0.000989 7.952e-05 0)
(0.000949 7.766e-05 0)
(0.00091 7.531e-05 0)
(0.0008722 7.257e-05 0)
(0.0008358 6.951e-05 0)
(0.0008009 6.622e-05 0)
(0.0007677 6.277e-05 0)
(0.0007363 5.923e-05 0)
(0.0007067 5.564e-05 0)
(0.0006788 5.207e-05 0)
(0.0006527 4.854e-05 0)
(0.0006284 4.51e-05 0)
(0.0006058 4.177e-05 0)
(0.0005848 3.857e-05 0)
(0.0005655 3.552e-05 0)
(0.0005476 3.263e-05 0)
(0.0005312 2.99e-05 0)
(0.0005162 2.734e-05 0)
(0.0005024 2.494e-05 0)
(0.0004899 2.271e-05 0)
(0.0004784 2.064e-05 0)
(0.000468 1.872e-05 0)
(0.0004585 1.696e-05 0)
(0.0004499 1.533e-05 0)
(0.0004421 1.384e-05 0)
(0.0004351 1.248e-05 0)
(0.0004288 1.123e-05 0)
(0.000423 1.009e-05 0)
(0.0004179 9.059e-06 0)
(0.0004133 8.12e-06 0)
(0.0004091 7.269e-06 0)
(0.0004054 6.501e-06 0)
(0.0004021 5.808e-06 0)
(0.0003991 5.185e-06 0)
(0.0003964 4.628e-06 0)
(0.000394 4.132e-06 0)
(0.0003919 3.694e-06 0)
(0.0003899 3.311e-06 0)
(0.0003882 2.981e-06 0)
(0.0003867 2.703e-06 0)
(0.0003852 2.477e-06 0)
(0.0003839 2.304e-06 0)
(0.0003827 2.186e-06 0)
(0.0003816 2.125e-06 0)
(0.0003805 2.126e-06 0)
(0.0003795 2.189e-06 0)
(0.0003784 2.31e-06 0)
(0.0003774 2.468e-06 0)
(0.0003764 2.593e-06 0)
(0.001219 0.0001846 0)
(0.001255 0.0003712 0)
(0.001275 0.00043 0)
(0.001265 0.0004208 0)
(0.001229 0.0003825 0)
(0.001179 0.0003351 0)
(0.001121 0.0002882 0)
(0.001061 0.0002459 0)
(0.001004 0.0002092 0)
(0.0009504 0.0001779 0)
(0.0009016 0.0001515 0)
(0.0008578 0.0001292 0)
(0.0008189 0.0001103 0)
(0.0007846 9.414e-05 0)
(0.0007545 8.029e-05 0)
(0.0007284 6.831e-05 0)
(0.0007058 5.786e-05 0)
(0.0006865 4.865e-05 0)
(0.0006702 4.046e-05 0)
(0.0006567 3.31e-05 0)
(0.0006456 2.641e-05 0)
(0.000637 2.027e-05 0)
(0.0006305 1.457e-05 0)
(0.0006261 9.205e-06 0)
(0.0006238 4.096e-06 0)
(0.0006234 -8.288e-07 0)
(0.0006248 -5.632e-06 0)
(0.0006282 -1.037e-05 0)
(0.0006334 -1.509e-05 0)
(0.0006404 -1.984e-05 0)
(0.0006494 -2.466e-05 0)
(0.0006602 -2.958e-05 0)
(0.000673 -3.463e-05 0)
(0.0006878 -3.983e-05 0)
(0.0007047 -4.519e-05 0)
(0.0007237 -5.074e-05 0)
(0.0007449 -5.647e-05 0)
(0.0007684 -6.238e-05 0)
(0.0007942 -6.845e-05 0)
(0.0008223 -7.466e-05 0)
(0.0008529 -8.096e-05 0)
(0.0008858 -8.731e-05 0)
(0.0009212 -9.363e-05 0)
(0.0009589 -9.986e-05 0)
(0.000999 -0.0001059 0)
(0.001041 -0.0001116 0)
(0.001086 -0.0001169 0)
(0.001132 -0.0001215 0)
(0.001179 -0.0001254 0)
(0.001229 -0.0001284 0)
(0.001278 -0.0001303 0)
(0.001329 -0.000131 0)
(0.001379 -0.0001302 0)
(0.001428 -0.0001277 0)
(0.001477 -0.0001236 0)
(0.001523 -0.0001176 0)
(0.001567 -0.0001098 0)
(0.001607 -0.0001 0)
(0.001643 -8.845e-05 0)
(0.001674 -7.519e-05 0)
(0.0017 -6.046e-05 0)
(0.001721 -4.452e-05 0)
(0.001735 -2.772e-05 0)
(0.001742 -1.042e-05 0)
(0.001743 6.955e-06 0)
(0.001737 2.402e-05 0)
(0.001725 4.039e-05 0)
(0.001707 5.577e-05 0)
(0.001683 6.988e-05 0)
(0.001654 8.255e-05 0)
(0.00162 9.364e-05 0)
(0.001583 0.0001031 0)
(0.001542 0.0001109 0)
(0.001498 0.000117 0)
(0.001452 0.0001215 0)
(0.001405 0.0001246 0)
(0.001357 0.0001262 0)
(0.001308 0.0001265 0)
(0.00126 0.0001256 0)
(0.001211 0.0001237 0)
(0.001164 0.0001209 0)
(0.001118 0.0001174 0)
(0.001073 0.0001132 0)
(0.001029 0.0001085 0)
(0.000988 0.0001035 0)
(0.0009485 9.819e-05 0)
(0.000911 9.273e-05 0)
(0.0008756 8.72e-05 0)
(0.0008423 8.168e-05 0)
(0.0008111 7.622e-05 0)
(0.000782 7.089e-05 0)
(0.0007548 6.572e-05 0)
(0.0007297 6.075e-05 0)
(0.0007064 5.6e-05 0)
(0.0006849 5.149e-05 0)
(0.0006651 4.723e-05 0)
(0.0006469 4.322e-05 0)
(0.0006303 3.947e-05 0)
(0.0006151 3.598e-05 0)
(0.0006011 3.273e-05 0)
(0.0005885 2.972e-05 0)
(0.000577 2.695e-05 0)
(0.0005665 2.439e-05 0)
(0.000557 2.204e-05 0)
(0.0005484 1.989e-05 0)
(0.0005407 1.792e-05 0)
(0.0005337 1.613e-05 0)
(0.0005273 1.449e-05 0)
(0.0005216 1.3e-05 0)
(0.0005165 1.165e-05 0)
(0.0005119 1.043e-05 0)
(0.0005078 9.333e-06 0)
(0.0005041 8.343e-06 0)
(0.0005008 7.455e-06 0)
(0.0004978 6.663e-06 0)
(0.0004952 5.962e-06 0)
(0.0004928 5.347e-06 0)
(0.0004907 4.814e-06 0)
(0.0004887 4.361e-06 0)
(0.000487 3.986e-06 0)
(0.0004854 3.69e-06 0)
(0.0004839 3.474e-06 0)
(0.0004826 3.337e-06 0)
(0.0004813 3.282e-06 0)
(0.0004801 3.304e-06 0)
(0.0004789 3.394e-06 0)
(0.0004778 3.52e-06 0)
(0.0004767 3.619e-06 0)
(0.001214 0.000152 0)
(0.001246 0.0003353 0)
(0.001274 0.000418 0)
(0.001282 0.0004351 0)
(0.001269 0.0004164 0)
(0.00124 0.000381 0)
(0.0012 0.0003399 0)
(0.001155 0.0002988 0)
(0.001108 0.0002606 0)
(0.001062 0.0002262 0)
(0.001018 0.0001959 0)
(0.0009776 0.0001694 0)
(0.0009404 0.0001462 0)
(0.0009068 0.000126 0)
(0.0008769 0.0001084 0)
(0.0008505 9.279e-05 0)
(0.0008274 7.901e-05 0)
(0.0008075 6.672e-05 0)
(0.0007905 5.567e-05 0)
(0.0007763 4.565e-05 0)
(0.0007647 3.647e-05 0)
(0.0007556 2.799e-05 0)
(0.0007489 2.006e-05 0)
(0.0007444 1.256e-05 0)
(0.0007421 5.397e-06 0)
(0.0007419 -1.534e-06 0)
(0.0007438 -8.312e-06 0)
(0.0007478 -1.501e-05 0)
(0.0007539 -2.169e-05 0)
(0.000762 -2.842e-05 0)
(0.0007722 -3.525e-05 0)
(0.0007846 -4.222e-05 0)
(0.0007992 -4.937e-05 0)
(0.000816 -5.673e-05 0)
(0.0008352 -6.432e-05 0)
(0.0008567 -7.216e-05 0)
(0.0008807 -8.025e-05 0)
(0.0009072 -8.858e-05 0)
(0.0009363 -9.713e-05 0)
(0.0009681 -0.0001059 0)
(0.001003 -0.0001147 0)
(0.00104 -0.0001236 0)
(0.001079 -0.0001325 0)
(0.001122 -0.0001412 0)
(0.001167 -0.0001496 0)
(0.001214 -0.0001576 0)
(0.001264 -0.0001649 0)
(0.001316 -0.0001714 0)
(0.00137 -0.0001769 0)
(0.001425 -0.000181 0)
(0.001481 -0.0001836 0)
(0.001537 -0.0001844 0)
(0.001593 -0.0001832 0)
(0.001649 -0.0001798 0)
(0.001703 -0.0001739 0)
(0.001755 -0.0001655 0)
(0.001804 -0.0001545 0)
(0.001849 -0.0001408 0)
(0.00189 -0.0001245 0)
(0.001925 -0.0001059 0)
(0.001955 -8.518e-05 0)
(0.001977 -6.278e-05 0)
(0.001993 -3.915e-05 0)
(0.002002 -1.484e-05 0)
(0.002003 9.595e-06 0)
(0.001996 3.358e-05 0)
(0.001982 5.66e-05 0)
(0.001962 7.822e-05 0)
(0.001935 9.806e-05 0)
(0.001903 0.0001159 0)
(0.001865 0.0001315 0)
(0.001823 0.0001448 0)
(0.001777 0.0001558 0)
(0.001728 0.0001645 0)
(0.001677 0.000171 0)
(0.001624 0.0001754 0)
(0.00157 0.0001777 0)
(0.001515 0.0001783 0)
(0.001461 0.0001772 0)
(0.001407 0.0001746 0)
(0.001353 0.0001708 0)
(0.001301 0.0001659 0)
(0.001251 0.0001601 0)
(0.001202 0.0001536 0)
(0.001155 0.0001466 0)
(0.001111 0.0001392 0)
(0.001069 0.0001315 0)
(0.001029 0.0001238 0)
(0.0009909 0.000116 0)
(0.0009556 0.0001084 0)
(0.0009226 0.0001009 0)
(0.0008918 9.361e-05 0)
(0.0008633 8.66e-05 0)
(0.0008368 7.99e-05 0)
(0.0008123 7.353e-05 0)
(0.0007898 6.751e-05 0)
(0.0007691 6.184e-05 0)
(0.0007501 5.653e-05 0)
(0.0007326 5.157e-05 0)
(0.0007167 4.696e-05 0)
(0.0007022 4.268e-05 0)
(0.000689 3.873e-05 0)
(0.000677 3.509e-05 0)
(0.000666 3.174e-05 0)
(0.0006562 2.867e-05 0)
(0.0006472 2.586e-05 0)
(0.0006391 2.329e-05 0)
(0.0006318 2.095e-05 0)
(0.0006252 1.882e-05 0)
(0.0006193 1.688e-05 0)
(0.000614 1.513e-05 0)
(0.0006092 1.355e-05 0)
(0.0006049 1.212e-05 0)
(0.000601 1.084e-05 0)
(0.0005975 9.7e-06 0)
(0.0005944 8.684e-06 0)
(0.0005917 7.79e-06 0)
(0.0005892 7.011e-06 0)
(0.0005869 6.344e-06 0)
(0.0005849 5.784e-06 0)
(0.000583 5.331e-06 0)
(0.0005813 4.983e-06 0)
(0.0005798 4.739e-06 0)
(0.0005784 4.596e-06 0)
(0.000577 4.547e-06 0)
(0.0005758 4.577e-06 0)
(0.0005746 4.655e-06 0)
(0.0005734 4.723e-06 0)
(0.00121 0.0001278 0)
(0.001237 0.0003006 0)
(0.001267 0.0003953 0)
(0.001285 0.0004316 0)
(0.001287 0.0004306 0)
(0.001274 0.0004084 0)
(0.001251 0.0003758 0)
(0.00122 0.0003392 0)
(0.001184 0.0003024 0)
(0.001147 0.0002675 0)
(0.00111 0.0002354 0)
(0.001075 0.0002062 0)
(0.001041 0.0001801 0)
(0.00101 0.0001567 0)
(0.0009823 0.0001357 0)
(0.0009572 0.000117 0)
(0.0009349 0.0001002 0)
(0.0009155 8.494e-05 0)
(0.0008988 7.11e-05 0)
(0.0008848 5.843e-05 0)
(0.0008733 4.673e-05 0)
(0.0008643 3.583e-05 0)
(0.0008577 2.558e-05 0)
(0.0008534 1.583e-05 0)
(0.0008514 6.465e-06 0)
(0.0008516 -2.622e-06 0)
(0.000854 -1.154e-05 0)
(0.0008586 -2.036e-05 0)
(0.0008654 -2.919e-05 0)
(0.0008744 -3.808e-05 0)
(0.0008857 -4.711e-05 0)
(0.0008993 -5.633e-05 0)
(0.0009152 -6.579e-05 0)
(0.0009336 -7.552e-05 0)
(0.0009545 -8.556e-05 0)
(0.0009779 -9.591e-05 0)
(0.001004 -0.0001066 0)
(0.001033 -0.0001176 0)
(0.001064 -0.0001288 0)
(0.001099 -0.0001403 0)
(0.001136 -0.000152 0)
(0.001176 -0.0001637 0)
(0.001219 -0.0001753 0)
(0.001265 -0.0001868 0)
(0.001314 -0.0001978 0)
(0.001366 -0.0002083 0)
(0.001419 -0.0002179 0)
(0.001475 -0.0002264 0)
(0.001533 -0.0002335 0)
(0.001593 -0.0002389 0)
(0.001653 -0.0002423 0)
(0.001715 -0.0002433 0)
(0.001776 -0.0002417 0)
(0.001836 -0.0002372 0)
(0.001895 -0.0002295 0)
(0.001951 -0.0002184 0)
(0.002004 -0.0002038 0)
(0.002054 -0.0001858 0)
(0.002098 -0.0001644 0)
(0.002136 -0.0001399 0)
(0.002168 -0.0001126 0)
(0.002193 -8.302e-05 0)
(0.00221 -5.184e-05 0)
(0.00222 -1.975e-05 0)
(0.002221 1.25e-05 0)
(0.002214 4.414e-05 0)
(0.002199 7.45e-05 0)
(0.002177 0.000103 0)
(0.002147 0.0001291 0)
(0.002112 0.0001526 0)
(0.002071 0.0001732 0)
(0.002026 0.0001908 0)
(0.001976 0.0002053 0)
(0.001923 0.0002168 0)
(0.001868 0.0002254 0)
(0.00181 0.0002312 0)
(0.001752 0.0002345 0)
(0.001693 0.0002353 0)
(0.001634 0.0002339 0)
(0.001575 0.0002307 0)
(0.001517 0.0002257 0)
(0.001461 0.0002193 0)
(0.001406 0.0002118 0)
(0.001353 0.0002033 0)
(0.001303 0.0001942 0)
(0.001254 0.0001845 0)
(0.001208 0.0001745 0)
(0.001165 0.0001643 0)
(0.001124 0.0001541 0)
(0.001086 0.0001441 0)
(0.00105 0.0001342 0)
(0.001016 0.0001246 0)
(0.000985 0.0001154 0)
(0.0009561 0.0001065 0)
(0.0009294 9.809e-05 0)
(0.0009048 9.013e-05 0)
(0.0008821 8.263e-05 0)
(0.0008613 7.559e-05 0)
(0.0008422 6.902e-05 0)
(0.0008247 6.29e-05 0)
(0.0008087 5.722e-05 0)
(0.0007942 5.197e-05 0)
(0.000781 4.712e-05 0)
(0.0007689 4.266e-05 0)
(0.000758 3.857e-05 0)
(0.0007481 3.481e-05 0)
(0.0007391 3.138e-05 0)
(0.0007311 2.825e-05 0)
(0.0007237 2.54e-05 0)
(0.0007172 2.281e-05 0)
(0.0007112 2.046e-05 0)
(0.0007059 1.834e-05 0)
(0.0007011 1.642e-05 0)
(0.0006968 1.47e-05 0)
(0.0006929 1.316e-05 0)
(0.0006895 1.179e-05 0)
(0.0006864 1.058e-05 0)
(0.0006836 9.514e-06 0)
(0.0006811 8.598e-06 0)
(0.0006788 7.821e-06 0)
(0.0006768 7.179e-06 0)
(0.0006749 6.669e-06 0)
(0.0006732 6.287e-06 0)
(0.0006717 6.028e-06 0)
(0.0006703 5.883e-06 0)
(0.0006689 5.833e-06 0)
(0.0006677 5.848e-06 0)
(0.0006665 5.881e-06 0)
(0.001208 0.0001097 0)
(0.00123 0.0002694 0)
(0.001259 0.0003687 0)
(0.001281 0.0004176 0)
(0.001293 0.0004308 0)
(0.001292 0.0004211 0)
(0.001281 0.0003977 0)
(0.001262 0.0003673 0)
(0.001238 0.000334 0)
(0.001211 0.0003006 0)
(0.001181 0.0002683 0)
(0.001152 0.000238 0)
(0.001124 0.00021 0)
(0.001097 0.0001844 0)
(0.001072 0.000161 0)
(0.001049 0.0001397 0)
(0.001029 0.0001202 0)
(0.001011 0.0001023 0)
(0.0009953 8.594e-05 0)
(0.0009821 7.077e-05 0)
(0.0009713 5.663e-05 0)
(0.0009629 4.335e-05 0)
(0.0009568 3.077e-05 0)
(0.000953 1.875e-05 0)
(0.0009514 7.143e-06 0)
(0.0009521 -4.167e-06 0)
(0.000955 -1.53e-05 0)
(0.0009602 -2.635e-05 0)
(0.0009676 -3.742e-05 0)
(0.0009773 -4.859e-05 0)
(0.0009893 -5.994e-05 0)
(0.001004 -7.153e-05 0)
(0.001021 -8.343e-05 0)
(0.00104 -9.568e-05 0)
(0.001062 -0.0001083 0)
(0.001087 -0.0001213 0)
(0.001114 -0.0001347 0)
(0.001145 -0.0001485 0)
(0.001178 -0.0001627 0)
(0.001214 -0.0001771 0)
(0.001253 -0.0001917 0)
(0.001296 -0.0002064 0)
(0.001341 -0.000221 0)
(0.001389 -0.0002353 0)
(0.00144 -0.0002492 0)
(0.001494 -0.0002623 0)
(0.001551 -0.0002743 0)
(0.00161 -0.000285 0)
(0.001671 -0.0002939 0)
(0.001734 -0.0003007 0)
(0.001797 -0.0003049 0)
(0.001862 -0.0003063 0)
(0.001926 -0.0003043 0)
(0.00199 -0.0002986 0)
(0.002052 -0.000289 0)
(0.002112 -0.0002751 0)
(0.002168 -0.0002568 0)
(0.00222 -0.0002342 0)
(0.002267 -0.0002073 0)
(0.002308 -0.0001765 0)
(0.002343 -0.0001421 0)
(0.002369 -0.0001048 0)
(0.002387 -6.551e-05 0)
(0.002397 -2.502e-05 0)
(0.002398 1.566e-05 0)
(0.002391 5.555e-05 0)
(0.002375 9.378e-05 0)
(0.002351 0.0001296 0)
(0.00232 0.0001625 0)
(0.002283 0.000192 0)
(0.00224 0.0002178 0)
(0.002191 0.0002399 0)
(0.002139 0.0002582 0)
(0.002083 0.0002727 0)
(0.002025 0.0002835 0)
(0.001964 0.0002909 0)
(0.001903 0.000295 0)
(0.00184 0.0002961 0)
(0.001778 0.0002945 0)
(0.001716 0.0002905 0)
(0.001656 0.0002844 0)
(0.001596 0.0002764 0)
(0.001539 0.000267 0)
(0.001483 0.0002565 0)
(0.00143 0.000245 0)
(0.001379 0.0002329 0)
(0.00133 0.0002204 0)
(0.001285 0.0002076 0)
(0.001241 0.0001949 0)
(0.001201 0.0001822 0)
(0.001163 0.0001699 0)
(0.001128 0.0001578 0)
(0.001095 0.0001462 0)
(0.001064 0.0001351 0)
(0.001036 0.0001245 0)
(0.00101 0.0001145 0)
(0.0009857 0.000105 0)
(0.0009636 9.613e-05 0)
(0.0009433 8.784e-05 0)
(0.0009248 8.011e-05 0)
(0.0009078 7.293e-05 0)
(0.0008923 6.629e-05 0)
(0.0008782 6.015e-05 0)
(0.0008654 5.45e-05 0)
(0.0008537 4.931e-05 0)
(0.0008431 4.454e-05 0)
(0.0008336 4.019e-05 0)
(0.0008249 3.621e-05 0)
(0.0008171 3.258e-05 0)
(0.00081 2.928e-05 0)
(0.0008036 2.629e-05 0)
(0.0007979 2.358e-05 0)
(0.0007928 2.113e-05 0)
(0.0007881 1.893e-05 0)
(0.000784 1.695e-05 0)
(0.0007802 1.519e-05 0)
(0.0007769 1.363e-05 0)
(0.0007739 1.226e-05 0)
(0.0007712 1.106e-05 0)
(0.0007687 1.004e-05 0)
(0.0007666 9.183e-06 0)
(0.0007646 8.486e-06 0)
(0.0007628 7.942e-06 0)
(0.0007612 7.544e-06 0)
(0.0007597 7.281e-06 0)
(0.0007583 7.135e-06 0)
(0.0007571 7.079e-06 0)
(0.0007558 7.074e-06 0)
(0.001206 9.559e-05 0)
(0.001225 0.0002423 0)
(0.001251 0.0003414 0)
(0.001275 0.000398 0)
(0.001292 0.0004219 0)
(0.0013 0.0004226 0)
(0.001299 0.0004081 0)
(0.00129 0.0003845 0)
(0.001276 0.0003558 0)
(0.001257 0.0003251 0)
(0.001236 0.0002941 0)
(0.001213 0.0002639 0)
(0.001191 0.0002352 0)
(0.001169 0.0002083 0)
(0.001147 0.0001831 0)
(0.001128 0.0001598 0)
(0.00111 0.0001382 0)
(0.001094 0.0001182 0)
(0.00108 9.953e-05 0)
(0.001069 8.209e-05 0)
(0.001059 6.569e-05 0)
(0.001051 5.017e-05 0)
(0.001046 3.536e-05 0)
(0.001043 2.112e-05 0)
(0.001042 7.306e-06 0)
(0.001043 -6.215e-06 0)
(0.001047 -1.957e-05 0)
(0.001052 -3.286e-05 0)
(0.00106 -4.621e-05 0)
(0.00107 -5.97e-05 0)
(0.001083 -7.342e-05 0)
(0.001098 -8.746e-05 0)
(0.001115 -0.0001019 0)
(0.001135 -0.0001167 0)
(0.001158 -0.000132 0)
(0.001183 -0.0001477 0)
(0.001212 -0.000164 0)
(0.001243 -0.0001807 0)
(0.001277 -0.0001978 0)
(0.001314 -0.0002153 0)
(0.001354 -0.000233 0)
(0.001397 -0.0002507 0)
(0.001444 -0.0002684 0)
(0.001493 -0.0002857 0)
(0.001546 -0.0003025 0)
(0.001601 -0.0003183 0)
(0.001659 -0.0003329 0)
(0.00172 -0.0003458 0)
(0.001782 -0.0003567 0)
(0.001847 -0.0003649 0)
(0.001912 -0.0003702 0)
(0.001979 -0.0003719 0)
(0.002045 -0.0003696 0)
(0.002111 -0.0003628 0)
(0.002175 -0.0003512 0)
(0.002237 -0.0003345 0)
(0.002296 -0.0003125 0)
(0.00235 -0.0002851 0)
(0.002399 -0.0002525 0)
(0.002442 -0.000215 0)
(0.002478 -0.0001732 0)
(0.002506 -0.0001278 0)
(0.002525 -7.989e-05 0)
(0.002535 -3.051e-05 0)
(0.002536 1.909e-05 0)
(0.002528 6.768e-05 0)
(0.002511 0.0001142 0)
(0.002486 0.0001577 0)
(0.002454 0.0001975 0)
(0.002415 0.0002333 0)
(0.00237 0.0002646 0)
(0.00232 0.0002913 0)
(0.002266 0.0003134 0)
(0.002209 0.0003309 0)
(0.002148 0.0003441 0)
(0.002086 0.000353 0)
(0.002023 0.000358 0)
(0.001958 0.0003594 0)
(0.001894 0.0003575 0)
(0.001831 0.0003527 0)
(0.001768 0.0003454 0)
(0.001707 0.0003358 0)
(0.001648 0.0003245 0)
(0.001591 0.0003117 0)
(0.001536 0.0002979 0)
(0.001484 0.0002833 0)
(0.001434 0.0002681 0)
(0.001387 0.0002527 0)
(0.001343 0.0002373 0)
(0.001301 0.000222 0)
(0.001262 0.000207 0)
(0.001226 0.0001924 0)
(0.001192 0.0001784 0)
(0.00116 0.0001649 0)
(0.001131 0.000152 0)
(0.001104 0.0001399 0)
(0.00108 0.0001284 0)
(0.001057 0.0001176 0)
(0.001036 0.0001075 0)
(0.001017 9.814e-05 0)
(0.0009992 8.94e-05 0)
(0.0009831 8.131e-05 0)
(0.0009685 7.384e-05 0)
(0.0009552 6.694e-05 0)
(0.0009431 6.061e-05 0)
(0.0009322 5.479e-05 0)
(0.0009222 4.947e-05 0)
(0.0009132 4.46e-05 0)
(0.0009051 4.017e-05 0)
(0.0008977 3.613e-05 0)
(0.000891 3.246e-05 0)
(0.0008851 2.913e-05 0)
(0.0008797 2.612e-05 0)
(0.0008748 2.341e-05 0)
(0.0008705 2.098e-05 0)
(0.0008666 1.88e-05 0)
(0.0008631 1.687e-05 0)
(0.0008599 1.516e-05 0)
(0.0008571 1.367e-05 0)
(0.0008546 1.238e-05 0)
(0.0008523 1.129e-05 0)
(0.0008503 1.039e-05 0)
(0.0008484 9.662e-06 0)
(0.0008468 9.108e-06 0)
(0.0008453 8.712e-06 0)
(0.0008439 8.458e-06 0)
(0.0008426 8.323e-06 0)
(0.0008414 8.277e-06 0)
(0.001205 8.437e-05 0)
(0.001221 0.0002187 0)
(0.001245 0.000315 0)
(0.001269 0.0003757 0)
(0.001289 0.000407 0)
(0.001303 0.0004162 0)
(0.001309 0.0004096 0)
(0.001308 0.0003925 0)
(0.001302 0.0003689 0)
(0.001291 0.0003416 0)
(0.001277 0.0003128 0)
(0.001261 0.0002837 0)
(0.001244 0.0002551 0)
(0.001227 0.0002277 0)
(0.00121 0.0002016 0)
(0.001194 0.0001769 0)
(0.00118 0.0001537 0)
(0.001166 0.0001319 0)
(0.001154 0.0001114 0)
(0.001144 9.198e-05 0)
(0.001136 7.357e-05 0)
(0.00113 5.6e-05 0)
(0.001126 3.912e-05 0)
(0.001123 2.28e-05 0)
(0.001123 6.872e-06 0)
(0.001125 -8.782e-06 0)
(0.001129 -2.43e-05 0)
(0.001135 -3.979e-05 0)
(0.001143 -5.538e-05 0)
(0.001154 -7.117e-05 0)
(0.001166 -8.726e-05 0)
(0.001181 -0.0001037 0)
(0.001199 -0.0001206 0)
(0.001219 -0.000138 0)
(0.001242 -0.000156 0)
(0.001267 -0.0001745 0)
(0.001296 -0.0001936 0)
(0.001327 -0.0002133 0)
(0.001361 -0.0002334 0)
(0.001398 -0.0002539 0)
(0.001438 -0.0002747 0)
(0.001481 -0.0002956 0)
(0.001528 -0.0003164 0)
(0.001577 -0.0003368 0)
(0.00163 -0.0003565 0)
(0.001685 -0.0003752 0)
(0.001744 -0.0003924 0)
(0.001805 -0.0004077 0)
(0.001868 -0.0004205 0)
(0.001933 -0.0004304 0)
(0.001999 -0.0004367 0)
(0.002066 -0.0004389 0)
(0.002133 -0.0004363 0)
(0.0022 -0.0004286 0)
(0.002265 -0.0004151 0)
(0.002328 -0.0003956 0)
(0.002388 -0.0003698 0)
(0.002444 -0.0003376 0)
(0.002494 -0.0002992 0)
(0.002538 -0.000255 0)
(0.002574 -0.0002055 0)
(0.002603 -0.0001517 0)
(0.002622 -9.472e-05 0)
(0.002632 -3.605e-05 0)
(0.002633 2.283e-05 0)
(0.002625 8.043e-05 0)
(0.002607 0.0001354 0)
(0.002582 0.0001868 0)
(0.002549 0.0002337 0)
(0.002509 0.0002757 0)
(0.002463 0.0003125 0)
(0.002413 0.0003438 0)
(0.002358 0.0003698 0)
(0.0023 0.0003904 0)
(0.002239 0.0004058 0)
(0.002176 0.0004164 0)
(0.002112 0.0004223 0)
(0.002047 0.0004239 0)
(0.001983 0.0004217 0)
(0.001919 0.0004161 0)
(0.001856 0.0004074 0)
(0.001794 0.0003962 0)
(0.001735 0.0003829 0)
(0.001677 0.0003679 0)