/*--------------------------------*- C++ -*----------------------------------*\
  =========                 |
  \\      /  F ield         | OpenFOAM: The Open Source CFD Toolbox
   \\    /   O peration     | Website:  https://openfoam.org
    \\  /    A nd           | Version:  7
     \\/     M anipulation  |
\*---------------------------------------------------------------------------*/
FoamFile
{
    version     2.0;
    format      ascii;
    class       volScalarField;
    location    "1079.99947341182133";
    object      Y.K;
}
// * * * * * * * * * * * * * * * * * * * * * * * * * * * * * * * * * * * * * //

dimensions      [0 0 0 0 0 0 0];

internalField   nonuniform List<scalar> 
4096
(
1.146e-70
1.018e-68
-3.423e-69
4.636e-69
-1.478e-69
-2.875e-69
1.097e-69
3.793e-70
-1.361e-69
1.957e-68
-2.58e-67
4.385e-66
-6.196e-65
8.966e-64
-1.171e-62
1.47e-61
-1.73e-60
1.967e-59
-2.125e-58
2.235e-57
-2.226e-56
2.161e-55
-2.045e-54
1.852e-53
-1.584e-52
1.302e-51
-9.882e-51
7.524e-50
-5.631e-49
4.166e-48
-3.053e-47
2.23e-46
-1.611e-45
1.183e-44
-8.781e-44
6.73e-43
-5.186e-42
3.937e-41
-2.961e-40
2.198e-39
-1.538e-38
1.011e-37
-6.174e-37
3.467e-36
-1.756e-35
7.785e-35
-2.967e-34
8.883e-34
-1.823e-33
8.05e-34
1.143e-32
8.951e-32
-1.393e-30
1.898e-29
-8.266e-29
6.951e-28
-1.543e-27
1.565e-26
2.117e-26
2.997e-25
1.148e-24
3.503e-24
2.542e-23
1.114e-22
8.526e-22
2.623e-21
8.945e-21
1.118e-19
1.553e-18
4.551e-18
9.876e-18
1.904e-17
3.445e-17
5.975e-17
1.003e-16
1.639e-16
2.614e-16
4.077e-16
6.227e-16
9.329e-16
1.372e-15
1.984e-15
2.821e-15
3.95e-15
5.451e-15
7.42e-15
9.971e-15
1.324e-14
1.738e-14
2.257e-14
2.903e-14
3.7e-14
4.674e-14
5.857e-14
7.284e-14
8.996e-14
1.104e-13
1.346e-13
1.632e-13
1.968e-13
2.361e-13
2.82e-13
3.353e-13
3.971e-13
4.684e-13
5.505e-13
6.447e-13
7.526e-13
8.759e-13
1.016e-12
1.176e-12
1.357e-12
1.563e-12
1.795e-12
2.057e-12
2.351e-12
2.683e-12
3.055e-12
3.471e-12
3.937e-12
4.457e-12
5.036e-12
5.678e-12
6.385e-12
7.154e-12
7.965e-12
8.76e-12
9.382e-12
-3.393e-68
1.786e-67
-2.261e-67
3.367e-68
1.392e-67
-1.072e-67
1.043e-68
1.963e-68
-8.659e-68
1.118e-66
-1.508e-65
2.393e-64
-3.551e-63
4.946e-62
-6.488e-61
8.043e-60
-9.476e-59
1.066e-57
-1.151e-56
1.196e-55
-1.2e-54
1.162e-53
-1.085e-52
9.734e-52
-8.364e-51
6.835e-50
-5.201e-49
3.927e-48
-2.934e-47
2.167e-46
-1.584e-45
1.15e-44
-8.337e-44
6.081e-43
-4.495e-42
3.376e-41
-2.566e-40
1.954e-39
-1.467e-38
1.068e-37
-7.428e-37
4.868e-36
-2.97e-35
1.669e-34
-8.471e-34
3.809e-33
-1.469e-32
4.516e-32
-9.974e-32
7.651e-32
7.266e-31
2.397e-30
-4.217e-29
7.917e-28
-3.11e-27
3.057e-26
-4.615e-26
7.03e-25
1.516e-24
1.495e-23
5.614e-23
1.841e-22
1.168e-21
4.876e-21
3.232e-20
9.858e-20
2.693e-19
1.575e-18
4.386e-18
9.426e-18
1.818e-17
3.291e-17
5.706e-17
9.563e-17
1.557e-16
2.473e-16
3.836e-16
5.828e-16
8.68e-16
1.269e-15
1.825e-15
2.581e-15
3.597e-15
4.942e-15
6.702e-15
8.976e-15
1.188e-14
1.557e-14
2.018e-14
2.593e-14
3.301e-14
4.168e-14
5.222e-14
6.496e-14
8.025e-14
9.852e-14
1.202e-13
1.459e-13
1.762e-13
2.116e-13
2.531e-13
3.013e-13
3.573e-13
4.22e-13
4.967e-13
5.826e-13
6.811e-13
7.938e-13
9.224e-13
1.069e-12
1.235e-12
1.424e-12
1.638e-12
1.879e-12
2.152e-12
2.458e-12
2.802e-12
3.189e-12
3.621e-12
4.105e-12
4.645e-12
5.246e-12
5.914e-12
6.653e-12
7.464e-12
8.342e-12
9.26e-12
1.012e-11
7.626e-67
-5.301e-66
1.312e-65
-1.7e-65
1.11e-65
-1.762e-66
-1.774e-66
3.707e-67
-5.547e-66
6.221e-65
-8.014e-64
1.274e-62
-1.886e-61
2.616e-60
-3.41e-59
4.197e-58
-4.905e-57
5.475e-56
-5.865e-55
6.052e-54
-6.027e-53
5.797e-52
-5.38e-51
4.802e-50
-4.106e-49
3.338e-48
-2.543e-47
1.92e-46
-1.433e-45
1.057e-44
-7.697e-44
5.556e-43
-3.995e-42
2.882e-41
-2.101e-40
1.555e-39
-1.166e-38
8.77e-38
-6.526e-37
4.724e-36
-3.277e-35
2.148e-34
-1.315e-33
7.447e-33
-3.818e-32
1.744e-31
-6.898e-31
2.228e-30
-5.424e-30
6.724e-30
4.523e-29
-4.119e-29
-1.675e-28
2.849e-26
-7.482e-26
1.227e-24
-1.988e-25
2.865e-23
1.034e-22
7.552e-22
2.753e-21
9.361e-21
5.176e-20
1.942e-19
9.941e-19
2.857e-18
6.384e-18
1.291e-17
2.455e-17
4.449e-17
7.745e-17
1.302e-16
2.12e-16
3.355e-16
5.17e-16
7.776e-16
1.143e-15
1.647e-15
2.327e-15
3.231e-15
4.415e-15
5.944e-15
7.896e-15
1.036e-14
1.344e-14
1.727e-14
2.198e-14
2.773e-14
3.473e-14
4.318e-14
5.334e-14
6.551e-14
7.999e-14
9.718e-14
1.175e-13
1.414e-13
1.695e-13
2.024e-13
2.407e-13
2.852e-13
3.368e-13
3.965e-13
4.654e-13
5.446e-13
6.354e-13
7.395e-13
8.584e-13
9.939e-13
1.148e-12
1.323e-12
1.522e-12
1.746e-12
2e-12
2.285e-12
2.607e-12
2.968e-12
3.372e-12
3.826e-12
4.332e-12
4.898e-12
5.528e-12
6.229e-12
7.007e-12
7.868e-12
8.819e-12
9.863e-12
1.101e-11
1.228e-11
-1.261e-65
1.001e-64
-3.473e-64
7.24e-64
-9.496e-64
7.727e-64
-3.426e-64
6.044e-65
-3.737e-64
3.304e-63
-4.024e-62
6.397e-61
-9.407e-60
1.293e-58
-1.667e-57
2.028e-56
-2.341e-55
2.581e-54
-2.733e-53
2.79e-52
-2.751e-51
2.623e-50
-2.415e-49
2.141e-48
-1.822e-47
1.474e-46
-1.124e-45
8.498e-45
-6.34e-44
4.664e-43
-3.383e-42
2.424e-41
-1.723e-40
1.224e-39
-8.744e-39
6.328e-38
-4.643e-37
3.43e-36
-2.521e-35
1.813e-34
-1.256e-33
8.264e-33
-5.106e-32
2.938e-31
-1.536e-30
7.205e-30
-2.962e-29
1.028e-28
-2.785e-28
5.09e-28
2.11e-27
-6.869e-27
5.831e-26
8.074e-25
3.261e-25
4.372e-23
7.852e-23
1.376e-21
5.571e-21
3.547e-20
1.283e-19
3.989e-19
1.775e-18
5.192e-18
1.205e-17
2.527e-17
4.963e-17
9.251e-17
1.649e-16
2.824e-16
4.661e-16
7.434e-16
1.149e-15
1.724e-15
2.517e-15
3.586e-15
4.992e-15
6.806e-15
9.103e-15
1.197e-14
1.549e-14
1.978e-14
2.493e-14
3.109e-14
3.84e-14
4.703e-14
5.716e-14
6.903e-14
8.29e-14
9.905e-14
1.178e-13
1.396e-13
1.649e-13
1.942e-13
2.28e-13
2.671e-13
3.121e-13
3.639e-13
4.235e-13
4.918e-13
5.702e-13
6.598e-13
7.622e-13
8.79e-13
1.012e-12
1.163e-12
1.335e-12
1.529e-12
1.749e-12
1.998e-12
2.278e-12
2.594e-12
2.949e-12
3.347e-12
3.794e-12
4.293e-12
4.852e-12
5.475e-12
6.169e-12
6.941e-12
7.798e-12
8.749e-12
9.8e-12
1.096e-11
1.224e-11
1.365e-11
1.522e-11
1.717e-11
1.813e-64
-1.565e-63
6.728e-63
-1.878e-62
3.542e-62
-4.551e-62
3.734e-62
-1.453e-62
-2.08e-62
1.643e-61
-1.918e-60
3.033e-59
-4.397e-58
5.945e-57
-7.525e-56
8.978e-55
-1.017e-53
1.101e-52
-1.146e-51
1.152e-50
-1.12e-49
1.055e-48
-9.616e-48
8.456e-47
-7.15e-46
5.76e-45
-4.406e-44
3.336e-43
-2.49e-42
1.828e-41
-1.32e-40
9.379e-40
-6.574e-39
4.572e-38
-3.178e-37
2.226e-36
-1.58e-35
1.134e-34
-8.159e-34
5.803e-33
-4.015e-32
2.662e-31
-1.673e-30
9.89e-30
-5.334e-29
2.601e-28
-1.124e-27
4.267e-27
-1.282e-26
3.176e-26
4.34e-26
6.241e-26
4.419e-24
1.581e-23
1.624e-22
1.42e-21
7.493e-21
6.039e-20
2.627e-19
1.29e-18
4.255e-18
1.116e-17
2.634e-17
5.793e-17
1.2e-16
2.353e-16
4.387e-16
7.803e-16
1.328e-15
2.168e-15
3.406e-15
5.163e-15
7.569e-15
1.076e-14
1.488e-14
2.004e-14
2.638e-14
3.4e-14
4.3e-14
5.347e-14
6.552e-14
7.925e-14
9.479e-14
1.123e-13
1.32e-13
1.541e-13
1.788e-13
2.066e-13
2.379e-13
2.731e-13
3.127e-13
3.574e-13
4.08e-13
4.652e-13
5.3e-13
6.034e-13
6.867e-13
7.811e-13
8.882e-13
1.01e-12
1.147e-12
1.303e-12
1.479e-12
1.679e-12
1.904e-12
2.158e-12
2.444e-12
2.767e-12
3.13e-12
3.537e-12
3.994e-12
4.506e-12
5.079e-12
5.719e-12
6.433e-12
7.229e-12
8.115e-12
9.099e-12
1.019e-11
1.14e-11
1.274e-11
1.421e-11
1.584e-11
1.763e-11
1.96e-11
2.175e-11
2.414e-11
2.734e-11
-2.416e-63
2.204e-62
-1.1e-61
3.785e-61
-9.237e-61
1.611e-60
-1.91e-60
1.171e-60
-2.703e-61
6.15e-60
-8.602e-59
1.353e-57
-1.914e-56
2.517e-55
-3.094e-54
3.584e-53
-3.946e-52
4.16e-51
-4.228e-50
4.159e-49
-3.969e-48
3.68e-47
-3.31e-46
2.882e-45
-2.421e-44
1.943e-43
-1.494e-42
1.135e-41
-8.484e-41
6.231e-40
-4.486e-39
3.162e-38
-2.185e-37
1.484e-36
-9.971e-36
6.68e-35
-4.504e-34
3.075e-33
-2.127e-32
1.475e-31
-1.013e-30
6.78e-30
-4.384e-29
2.71e-28
-1.535e-27
7.865e-27
-3.585e-26
1.504e-25
-5.225e-25
1.852e-24
7.463e-26
1.426e-23
2.048e-22
1.373e-21
1.017e-20
7.395e-20
3.998e-19
2.115e-18
7.564e-18
2.179e-17
5.648e-17
1.359e-16
3.059e-16
6.478e-16
1.294e-15
2.445e-15
4.38e-15
7.463e-15
1.213e-14
1.887e-14
2.818e-14
4.052e-14
5.626e-14
7.566e-14
9.882e-14
1.257e-13
1.562e-13
1.9e-13
2.269e-13
2.665e-13
3.088e-13
3.536e-13
4.009e-13
4.51e-13
5.042e-13
5.608e-13
6.216e-13
6.872e-13
7.585e-13
8.364e-13
9.221e-13
1.017e-12
1.122e-12
1.239e-12
1.37e-12
1.517e-12
1.681e-12
1.866e-12
2.073e-12
2.306e-12
2.568e-12
2.863e-12
3.194e-12
3.567e-12
3.984e-12
4.453e-12
4.978e-12
5.566e-12
6.224e-12
6.959e-12
7.78e-12
8.695e-12
9.715e-12
1.085e-11
1.211e-11
1.351e-11
1.505e-11
1.677e-11
1.866e-11
2.075e-11
2.305e-11
2.558e-11
2.836e-11
3.14e-11
3.473e-11
3.836e-11
4.234e-11
4.796e-11
3.073e-62
-2.908e-61
1.62e-60
-6.543e-60
1.954e-59
-4.333e-59
6.835e-59
-6.217e-59
-6.08e-59
4.978e-58
-3.984e-57
5.647e-56
-7.641e-55
9.626e-54
-1.133e-52
1.257e-51
-1.33e-50
1.352e-49
-1.329e-48
1.271e-47
-1.184e-46
1.076e-45
-9.526e-45
8.201e-44
-6.842e-43
5.487e-42
-4.248e-41
3.247e-40
-2.442e-39
1.8e-38
-1.297e-37
9.12e-37
-6.242e-36
4.159e-35
-2.703e-34
1.721e-33
-1.084e-32
6.821e-32
-4.349e-31
2.816e-30
-1.856e-29
1.238e-28
-8.313e-28
5.515e-27
-3.443e-26
1.884e-25
-8.826e-25
4.14e-24
-1.592e-23
7.169e-23
4.761e-23
1.394e-21
1.155e-20
7.879e-20
4.996e-19
2.937e-18
1.169e-17
3.783e-17
1.103e-16
2.974e-16
7.463e-16
1.748e-15
3.833e-15
7.878e-15
1.521e-14
2.767e-14
4.756e-14
7.749e-14
1.201e-13
1.776e-13
2.516e-13
3.425e-13
4.497e-13
5.71e-13
7.036e-13
8.441e-13
9.885e-13
1.134e-12
1.277e-12
1.416e-12
1.551e-12
1.681e-12
1.806e-12
1.929e-12
2.052e-12
2.175e-12
2.303e-12
2.436e-12
2.579e-12
2.733e-12
2.902e-12
3.088e-12
3.295e-12
3.526e-12
3.785e-12
4.075e-12
4.401e-12
4.766e-12
5.177e-12
5.638e-12
6.156e-12
6.737e-12
7.388e-12
8.117e-12
8.933e-12
9.844e-12
1.086e-11
1.2e-11
1.326e-11
1.467e-11
1.624e-11
1.798e-11
1.991e-11
2.205e-11
2.442e-11
2.704e-11
2.993e-11
3.311e-11
3.662e-11
4.047e-11
4.47e-11
4.933e-11
5.439e-11
5.992e-11
6.595e-11
7.25e-11
7.96e-11
8.996e-11
-3.774e-61
3.661e-60
-2.218e-59
1.019e-58
-3.593e-58
9.76e-58
-1.977e-57
2.564e-57
-1.631e-57
4.186e-57
-1.311e-55
2.107e-54
-2.722e-53
3.22e-52
-3.556e-51
3.719e-50
-3.724e-49
3.605e-48
-3.4e-47
3.136e-46
-2.835e-45
2.515e-44
-2.186e-43
1.86e-42
-1.543e-41
1.241e-40
-9.716e-40
7.511e-39
-5.71e-38
4.254e-37
-3.096e-36
2.193e-35
-1.506e-34
1.001e-33
-6.408e-33
3.952e-32
-2.347e-31
1.348e-30
-7.582e-30
4.182e-29
-2.347e-28
1.363e-27
-8.13e-27
5.431e-26
-3.298e-25
1.747e-24
-9.471e-24
5.716e-23
-2.327e-22
1.918e-21
3.698e-21
7.444e-20
4.858e-19
3.169e-18
1.438e-17
5.343e-17
1.792e-16
5.541e-16
1.586e-15
4.212e-15
1.039e-14
2.381e-14
5.084e-14
1.013e-13
1.886e-13
3.296e-13
5.422e-13
8.427e-13
1.242e-12
1.743e-12
2.337e-12
3.007e-12
3.727e-12
4.462e-12
5.182e-12
5.855e-12
6.456e-12
6.983e-12
7.413e-12
7.76e-12
8.033e-12
8.244e-12
8.406e-12
8.533e-12
8.639e-12
8.738e-12
8.841e-12
8.96e-12
9.103e-12
9.28e-12
9.497e-12
9.76e-12
1.008e-11
1.046e-11
1.091e-11
1.143e-11
1.203e-11
1.273e-11
1.352e-11
1.442e-11
1.545e-11
1.66e-11
1.79e-11
1.936e-11
2.099e-11
2.282e-11
2.486e-11
2.713e-11
2.965e-11
3.246e-11
3.557e-11
3.902e-11
4.283e-11
4.704e-11
5.168e-11
5.68e-11
6.243e-11
6.862e-11
7.541e-11
8.284e-11
9.097e-11
9.984e-11
1.095e-10
1.2e-10
1.314e-10
1.438e-10
1.571e-10
1.77e-10
4.48e-60
-4.419e-59
2.858e-58
-1.46e-57
5.939e-57
-1.928e-56
4.869e-56
-8.586e-56
-1.821e-56
6.582e-55
-6.479e-54
7.336e-53
-8.287e-52
8.9e-51
-8.978e-50
8.651e-49
-8.058e-48
7.329e-47
-6.562e-46
5.794e-45
-5.053e-44
4.362e-43
-3.717e-42
3.125e-41
-2.585e-40
2.095e-39
-1.671e-38
1.316e-37
-1.021e-36
7.771e-36
-5.785e-35
4.197e-34
-2.957e-33
2.015e-32
-1.322e-31
8.321e-31
-4.995e-30
2.841e-29
-1.534e-28
7.45e-28
-3.355e-27
1.365e-26
-4.975e-26
2.411e-25
-9.823e-25
-2.126e-25
1.041e-23
1.228e-22
6.521e-22
4.14e-20
3.237e-19
2.489e-18
1.307e-17
5.679e-17
2.233e-16
8.076e-16
2.694e-15
8.293e-15
2.355e-14
6.175e-14
1.495e-13
3.349e-13
6.946e-13
1.337e-12
2.396e-12
4.011e-12
6.298e-12
9.311e-12
1.302e-11
1.73e-11
2.192e-11
2.661e-11
3.109e-11
3.504e-11
3.832e-11
4.072e-11
4.225e-11
4.317e-11
4.309e-11
4.266e-11
4.184e-11
4.073e-11
3.944e-11
3.81e-11
3.677e-11
3.552e-11
3.441e-11
3.345e-11
3.267e-11
3.208e-11
3.169e-11
3.149e-11
3.156e-11
3.179e-11
3.223e-11
3.291e-11
3.382e-11
3.496e-11
3.636e-11
3.802e-11
3.996e-11
4.22e-11
4.477e-11
4.768e-11
5.097e-11
5.467e-11
5.881e-11
6.344e-11
6.859e-11
7.43e-11
8.064e-11
8.765e-11
9.539e-11
1.039e-10
1.133e-10
1.236e-10
1.349e-10
1.473e-10
1.609e-10
1.757e-10
1.919e-10
2.094e-10
2.285e-10
2.492e-10
2.716e-10
2.958e-10
3.215e-10
3.607e-10
-5.101e-59
5.084e-58
-3.465e-57
1.937e-56
-8.936e-56
3.412e-55
-1.064e-54
2.569e-54
-4.712e-54
8.372e-54
-1.28e-52
1.829e-51
-1.928e-50
1.815e-49
-1.607e-48
1.388e-47
-1.18e-46
9.937e-46
-8.377e-45
7.031e-44
-5.873e-43
4.917e-42
-4.084e-41
3.39e-40
-2.799e-39
2.305e-38
-1.89e-37
1.533e-36
-1.233e-35
9.762e-35
-7.584e-34
5.766e-33
-4.279e-32
3.09e-31
-2.166e-30
1.468e-29
-9.594e-29
6.017e-28
-3.636e-27
1.978e-26
-1.028e-25
4.858e-25
-2.04e-24
8.457e-24
-1.578e-23
-3.511e-23
6.703e-22
-5.648e-22
1.227e-19
1.31e-18
8.196e-18
4.242e-17
1.986e-16
8.545e-16
3.381e-15
1.23e-14
4.108e-14
1.26e-13
3.545e-13
9.157e-13
2.173e-12
4.741e-12
9.529e-12
1.768e-11
3.038e-11
4.857e-11
7.257e-11
1.018e-10
1.348e-10
1.69e-10
2.022e-10
2.312e-10
2.543e-10
2.691e-10
2.774e-10
2.76e-10
2.704e-10
2.603e-10
2.468e-10
2.312e-10
2.148e-10
1.984e-10
1.828e-10
1.683e-10
1.551e-10
1.435e-10
1.333e-10
1.246e-10
1.172e-10
1.111e-10
1.062e-10
1.023e-10
9.943e-11
9.746e-11
9.617e-11
9.601e-11
9.644e-11
9.754e-11
9.94e-11
1.02e-10
1.053e-10
1.094e-10
1.143e-10
1.2e-10
1.265e-10
1.34e-10
1.424e-10
1.519e-10
1.625e-10
1.743e-10
1.874e-10
2.019e-10
2.179e-10
2.355e-10
2.549e-10
2.762e-10
2.994e-10
3.248e-10
3.526e-10
3.828e-10
4.156e-10
4.512e-10
4.898e-10
5.316e-10
5.766e-10
6.252e-10
6.763e-10
7.552e-10
5.476e-58
-5.483e-57
3.899e-56
-2.356e-55
1.215e-54
-5.37e-54
2.01e-53
-6.032e-53
7.866e-53
3.749e-52
-4.972e-51
4.274e-50
-2.942e-49
2.054e-48
-1.496e-47
1.15e-46
-8.946e-46
6.98e-45
-5.618e-44
4.455e-43
-3.457e-42
2.778e-41
-2.119e-40
1.67e-39
-1.34e-38
1.093e-37
-9.029e-37
7.455e-36
-6.25e-35
5.197e-34
-4.22e-33
3.345e-32
-2.588e-31
1.951e-30
-1.429e-29
1.015e-28
-6.977e-28
4.631e-27
-2.966e-26
1.806e-25
-1.077e-24
6.046e-24
-3.339e-23
1.754e-22
-8.596e-22
5.006e-21
-1.298e-21
2.65e-19
3.053e-18
2.079e-17
1.187e-16
6.152e-16
2.926e-15
1.276e-14
5.102e-14
1.865e-13
6.231e-13
1.9e-12
5.287e-12
1.343e-11
3.114e-11
6.602e-11
1.282e-10
2.284e-10
3.751e-10
5.708e-10
8.09e-10
1.074e-09
1.343e-09
1.586e-09
1.791e-09
1.922e-09
1.987e-09
1.968e-09
1.906e-09
1.801e-09
1.666e-09
1.514e-09
1.358e-09
1.206e-09
1.064e-09
9.353e-10
8.217e-10
7.23e-10
6.384e-10
5.668e-10
5.066e-10
4.564e-10
4.148e-10
3.806e-10
3.527e-10
3.301e-10
3.122e-10
2.982e-10
2.876e-10
2.802e-10
2.755e-10
2.731e-10
2.737e-10
2.759e-10
2.803e-10
2.867e-10
2.952e-10
3.057e-10
3.183e-10
3.331e-10
3.501e-10
3.695e-10
3.914e-10
4.159e-10
4.432e-10
4.734e-10
5.069e-10
5.438e-10
5.843e-10
6.287e-10
6.772e-10
7.302e-10
7.879e-10
8.505e-10
9.185e-10
9.921e-10
1.072e-09
1.157e-09
1.25e-09
1.349e-09
1.453e-09
1.614e-09
-5.396e-57
5.395e-56
-3.968e-55
2.565e-54
-1.464e-53
7.446e-53
-3.395e-52
1.388e-51
-5.012e-51
1.51e-50
-3.074e-50
-4.79e-50
5.669e-49
-2.413e-48
-2.193e-47
6.284e-46
-5.852e-45
5.519e-44
-4.606e-43
3.463e-42
-2.287e-41
1.625e-40
-7.232e-40
2.338e-39
4.617e-39
-1.874e-37
2.197e-36
-2.023e-35
1.587e-34
-1.186e-33
8.791e-33
-6.185e-32
4.146e-31
-2.642e-30
1.589e-29
-9.011e-29
4.593e-28
-2.056e-27
6.935e-27
-1.587e-27
-1.932e-25
2.722e-24
-2.179e-23
1.753e-22
-4.624e-22
4.812e-20
5.479e-19
6.124e-18
4.537e-17
2.864e-16
1.649e-15
8.713e-15
4.217e-14
1.865e-13
7.519e-13
2.759e-12
9.196e-12
2.783e-11
7.64e-11
1.903e-10
4.299e-10
8.827e-10
1.65e-09
2.813e-09
4.398e-09
6.347e-09
8.505e-09
1.065e-08
1.255e-08
1.394e-08
1.487e-08
1.481e-08
1.438e-08
1.353e-08
1.237e-08
1.103e-08
9.641e-09
8.297e-09
7.058e-09
5.957e-09
5.007e-09
4.202e-09
3.532e-09
2.98e-09
2.529e-09
2.162e-09
1.865e-09
1.625e-09
1.431e-09
1.275e-09
1.149e-09
1.047e-09
9.662e-10
9.019e-10
8.514e-10
8.126e-10
7.838e-10
7.635e-10
7.511e-10
7.452e-10
7.469e-10
7.535e-10
7.655e-10
7.83e-10
8.058e-10
8.34e-10
8.676e-10
9.067e-10
9.515e-10
1.002e-09
1.059e-09
1.123e-09
1.193e-09
1.271e-09
1.356e-09
1.45e-09
1.552e-09
1.664e-09
1.785e-09
1.917e-09
2.059e-09
2.213e-09
2.379e-09
2.558e-09
2.75e-09
2.956e-09
3.169e-09
3.505e-09
4.638e-56
-4.617e-55
3.48e-54
-2.372e-53
1.466e-52
-8.276e-52
4.306e-51
-2.079e-50
9.353e-50
-3.881e-49
1.38e-48
-3.142e-48
-2.053e-47
3.301e-46
-3.663e-45
3.447e-44
-2.946e-43
2.356e-42
-1.786e-41
1.292e-40
-8.946e-40
5.931e-39
-3.755e-38
2.257e-37
-1.271e-36
6.521e-36
-3.108e-35
1.262e-34
-5.289e-34
1.474e-33
1.128e-32
-2.095e-31
2.242e-30
-2.005e-29
1.627e-28
-1.235e-27
8.906e-27
-6.136e-26
4.057e-25
-2.569e-24
1.591e-23
-8.799e-23
5.172e-22
-1.992e-21
8.29e-20
1.243e-18
1.099e-17
8.337e-17
5.804e-16
3.724e-15
2.195e-14
1.184e-13
5.827e-13
2.607e-12
1.058e-11
3.888e-11
1.291e-10
3.866e-10
1.044e-09
2.541e-09
5.576e-09
1.104e-08
1.979e-08
3.215e-08
4.766e-08
6.497e-08
8.208e-08
9.691e-08
1.072e-07
1.12e-07
1.103e-07
1.049e-07
9.62e-08
8.537e-08
7.367e-08
6.216e-08
5.15e-08
4.211e-08
3.41e-08
2.746e-08
2.207e-08
1.776e-08
1.434e-08
1.164e-08
9.534e-09
7.881e-09
6.586e-09
5.57e-09
4.769e-09
4.138e-09
3.637e-09
3.24e-09
2.925e-09
2.675e-09
2.477e-09
2.322e-09
2.203e-09
2.112e-09
2.047e-09
2.004e-09
1.976e-09
1.973e-09
1.982e-09
2.004e-09
2.041e-09
2.092e-09
2.155e-09
2.233e-09
2.323e-09
2.428e-09
2.546e-09
2.679e-09
2.828e-09
2.992e-09
3.173e-09
3.372e-09
3.589e-09
3.826e-09
4.083e-09
4.362e-09
4.663e-09
4.988e-09
5.338e-09
5.714e-09
6.116e-09
6.547e-09
6.991e-09
7.694e-09
-3.376e-55
3.328e-54
-2.553e-53
1.818e-52
-1.202e-51
7.409e-51
-4.285e-50
2.352e-49
-1.253e-48
6.718e-48
-3.915e-47
2.378e-46
-1.662e-45
1.286e-44
-1.01e-43
7.848e-43
-5.958e-42
4.396e-41
-3.15e-40
2.193e-39
-1.485e-38
9.794e-38
-6.294e-37
3.946e-36
-2.419e-35
1.457e-34
-8.863e-34
5.432e-33
-3.459e-32
2.191e-31
-1.361e-30
8.535e-30
-5.367e-29
3.374e-28
-2.112e-27
1.312e-26
-8.055e-26
4.868e-25
-2.882e-24
1.678e-23
-9.17e-23
5.977e-22
-2.513e-21
9.128e-20
1.506e-18
1.466e-17
1.239e-16
9.64e-16
6.917e-15
4.56e-14
2.751e-13
1.512e-12
7.548e-12
3.409e-11
1.389e-10
5.095e-10
1.679e-09
4.96e-09
1.313e-08
3.11e-08
6.598e-08
1.255e-07
2.146e-07
3.308e-07
4.629e-07
5.94e-07
7.065e-07
7.855e-07
8.09e-07
7.894e-07
7.393e-07
6.642e-07
5.752e-07
4.829e-07
3.951e-07
3.168e-07
2.5e-07
1.95e-07
1.511e-07
1.167e-07
9.012e-08
6.982e-08
5.44e-08
4.274e-08
3.391e-08
2.722e-08
2.213e-08
1.823e-08
1.524e-08
1.292e-08
1.112e-08
9.714e-09
8.607e-09
7.734e-09
7.046e-09
6.504e-09
6.079e-09
5.751e-09
5.501e-09
5.319e-09
5.193e-09
5.117e-09
5.087e-09
5.102e-09
5.148e-09
5.229e-09
5.344e-09
5.491e-09
5.671e-09
5.883e-09
6.128e-09
6.406e-09
6.719e-09
7.067e-09
7.451e-09
7.874e-09
8.336e-09
8.841e-09
9.388e-09
9.982e-09
1.062e-08
1.131e-08
1.205e-08
1.285e-08
1.37e-08
1.461e-08
1.554e-08
1.702e-08
1.897e-54
-1.84e-53
1.428e-52
-1.063e-51
7.535e-51
-5.052e-50
3.165e-49
-1.818e-48
9.224e-48
-3.802e-47
2.083e-47
9.22e-46
-1.294e-44
1.325e-43
-1.158e-42
9.235e-42
-6.945e-41
5.001e-40
-3.479e-39
2.35e-38
-1.543e-37
9.863e-37
-6.118e-36
3.664e-35
-2.104e-34
1.16e-33
-6.155e-33
3.059e-32
-1.485e-31
5.877e-31
-1.2e-30
-6.05e-30
1.163e-28
-1.17e-27
9.668e-27
-7.192e-26
4.983e-25
-3.267e-24
2.046e-23
-1.217e-22
7.335e-22
-2.675e-21
7.908e-20
1.469e-18
1.583e-17
1.488e-16
1.291e-15
1.035e-14
7.636e-14
5.159e-13
3.175e-12
1.773e-11
8.945e-11
4.062e-10
1.655e-09
6.034e-09
1.964e-08
5.696e-08
1.469e-07
3.37e-07
6.878e-07
1.25e-06
2.031e-06
2.956e-06
3.888e-06
4.687e-06
5.268e-06
5.403e-06
5.245e-06
4.863e-06
4.306e-06
3.663e-06
3.01e-06
2.404e-06
1.876e-06
1.438e-06
1.087e-06
8.147e-07
6.074e-07
4.523e-07
3.376e-07
2.533e-07
1.915e-07
1.462e-07
1.13e-07
8.849e-08
7.029e-08
5.669e-08
4.643e-08
3.864e-08
3.268e-08
2.807e-08
2.449e-08
2.169e-08
1.949e-08
1.776e-08
1.641e-08
1.534e-08
1.452e-08
1.39e-08
1.344e-08
1.312e-08
1.293e-08
1.284e-08
1.287e-08
1.298e-08
1.317e-08
1.344e-08
1.379e-08
1.421e-08
1.471e-08
1.529e-08
1.595e-08
1.668e-08
1.75e-08
1.84e-08
1.938e-08
2.046e-08
2.163e-08
2.289e-08
2.426e-08
2.573e-08
2.731e-08
2.899e-08
3.079e-08
3.272e-08
3.468e-08
3.781e-08
-6.474e-54
5.143e-53
-3.788e-52
3.144e-51
-2.771e-50
2.453e-49
-2.112e-48
1.746e-47
-1.385e-46
1.058e-45
-7.825e-45
5.632e-44
-3.967e-43
2.745e-42
-1.871e-41
1.261e-40
-8.414e-40
5.569e-39
-3.661e-38
2.391e-37
-1.553e-36
1.003e-35
-6.447e-35
4.118e-34
-2.616e-33
1.652e-32
-1.036e-31
6.447e-31
-3.977e-30
2.43e-29
-1.47e-28
8.788e-28
-5.188e-27
3.021e-26
-1.732e-25
9.775e-25
-5.416e-24
2.946e-23
-1.559e-22
8.376e-22
-3.693e-21
3.789e-20
1.093e-18
1.354e-17
1.42e-16
1.371e-15
1.226e-14
1.011e-13
7.647e-13
5.273e-12
3.299e-11
1.862e-10
9.448e-10
4.29e-09
1.737e-08
6.255e-08
1.997e-07
5.641e-07
1.407e-06
3.102e-06
6.047e-06
1.045e-05
1.604e-05
2.195e-05
2.708e-05
3.087e-05
3.199e-05
3.103e-05
2.866e-05
2.52e-05
2.121e-05
1.721e-05
1.353e-05
1.036e-05
7.777e-06
5.743e-06
4.193e-06
3.039e-06
2.196e-06
1.588e-06
1.153e-06
8.424e-07
6.216e-07
4.64e-07
3.511e-07
2.695e-07
2.102e-07
1.666e-07
1.343e-07
1.102e-07
9.187e-08
7.79e-08
6.715e-08
5.88e-08
5.228e-08
4.716e-08
4.314e-08
3.998e-08
3.752e-08
3.562e-08
3.418e-08
3.312e-08
3.241e-08
3.197e-08
3.179e-08
3.189e-08
3.216e-08
3.263e-08
3.328e-08
3.412e-08
3.514e-08
3.633e-08
3.77e-08
3.925e-08
4.098e-08
4.289e-08
4.499e-08
4.728e-08
4.978e-08
5.248e-08
5.539e-08
5.853e-08
6.188e-08
6.547e-08
6.929e-08
7.338e-08
7.751e-08
8.415e-08
-9.009e-53
8.731e-52
-6.868e-51
5.218e-50
-3.814e-49
2.69e-48
-1.838e-47
1.224e-46
-7.98e-46
5.128e-45
-3.265e-44
2.069e-43
-1.309e-42
8.287e-42
-5.254e-41
3.337e-40
-2.122e-39
1.351e-38
-8.604e-38
5.483e-37
-3.496e-36
2.232e-35
-1.428e-34
9.168e-34
-5.891e-33
3.771e-32
-2.403e-31
1.524e-30
-9.606e-30
6.016e-29
-3.74e-28
2.305e-27
-1.407e-26
8.504e-26
-5.078e-25
2.994e-24
-1.74e-23
9.983e-23
-5.532e-22
3.38e-21
-1.329e-20
4.292e-19
8.78e-18
1.065e-16
1.143e-15
1.136e-14
1.044e-13
8.82e-13
6.806e-12
4.768e-11
3.014e-10
1.71e-09
8.663e-09
3.902e-08
1.556e-07
5.477e-07
1.697e-06
4.614e-06
1.101e-05
2.308e-05
4.259e-05
6.942e-05
0.0001003
0.0001287
0.00015
0.0001594
0.0001553
0.0001441
0.0001269
0.0001068
8.644e-05
6.763e-05
5.142e-05
3.82e-05
2.784e-05
2e-05
1.422e-05
1.006e-05
7.1e-06
5.021e-06
3.57e-06
2.559e-06
1.854e-06
1.361e-06
1.013e-06
7.668e-07
5.9e-07
4.619e-07
3.681e-07
2.986e-07
2.465e-07
2.071e-07
1.769e-07
1.537e-07
1.356e-07
1.214e-07
1.103e-07
1.015e-07
9.464e-08
8.929e-08
8.517e-08
8.208e-08
7.985e-08
7.839e-08
7.744e-08
7.733e-08
7.764e-08
7.838e-08
7.958e-08
8.121e-08
8.325e-08
8.57e-08
8.856e-08
9.181e-08
9.546e-08
9.952e-08
1.04e-07
1.089e-07
1.142e-07
1.2e-07
1.262e-07
1.328e-07
1.4e-07
1.476e-07
1.557e-07
1.644e-07
1.731e-07
1.872e-07
2.205e-52
-2.167e-51
1.719e-50
-1.31e-49
9.567e-49
-6.7e-48
4.502e-47
-2.904e-46
1.799e-45
-1.071e-44
6.132e-44
-3.373e-43
1.782e-42
-9.042e-42
4.407e-41
-2.074e-40
9.585e-40
-4.551e-39
2.413e-38
-1.55e-37
1.193e-36
-1.009e-35
8.705e-35
-7.417e-34
5.988e-33
-4.558e-32
3.324e-31
-2.348e-30
1.616e-29
-1.088e-28
7.191e-28
-4.67e-27
2.985e-26
-1.879e-25
1.165e-24
-7.122e-24
4.293e-23
-2.53e-22
1.562e-21
-5.006e-21
2.141e-19
4.769e-18
6.299e-17
7.436e-16
8.172e-15
8.334e-14
7.838e-13
6.752e-12
5.289e-11
3.741e-10
2.374e-09
1.342e-08
6.727e-08
2.972e-07
1.153e-06
3.911e-06
1.158e-05
2.984e-05
6.707e-05
0.000132
0.0002277
0.0003473
0.0004696
0.0005678
0.0006301
0.0006205
0.0005835
0.000521
0.0004439
0.000363
0.0002866
0.0002194
0.0001636
0.0001194
8.55e-05
6.042e-05
4.229e-05
2.944e-05
2.047e-05
1.427e-05
1.001e-05
7.085e-06
5.073e-06
3.682e-06
2.715e-06
2.035e-06
1.552e-06
1.206e-06
9.537e-07
7.684e-07
6.305e-07
5.265e-07
4.474e-07
3.865e-07
3.393e-07
3.024e-07
2.734e-07
2.506e-07
2.327e-07
2.186e-07
2.076e-07
1.993e-07
1.931e-07
1.888e-07
1.861e-07
1.845e-07
1.848e-07
1.86e-07
1.881e-07
1.912e-07
1.953e-07
2.004e-07
2.063e-07
2.131e-07
2.208e-07
2.294e-07
2.389e-07
2.493e-07
2.606e-07
2.729e-07
2.861e-07
3.003e-07
3.155e-07
3.317e-07
3.49e-07
3.673e-07
3.858e-07
4.155e-07
-9.093e-52
8.25e-51
-6.299e-50
4.841e-49
-3.707e-48
2.815e-47
-2.111e-46
1.558e-45
-1.128e-44
8.02e-44
-5.591e-43
3.827e-42
-2.575e-41
1.706e-40
-1.114e-39
7.192e-39
-4.592e-38
2.905e-37
-1.824e-36
1.137e-35
-7.044e-35
4.341e-34
-2.661e-33
1.623e-32
-9.845e-32
5.934e-31
-3.555e-30
2.118e-29
-1.255e-28
7.391e-28
-4.33e-27
2.522e-26
-1.461e-25
8.411e-25
-4.816e-24
2.742e-23
-1.547e-22
8.931e-22
-3.923e-21
6.092e-20
1.961e-18
2.904e-17
3.767e-16
4.554e-15
5.128e-14
5.345e-13
5.121e-12
4.475e-11
3.538e-10
2.51e-09
1.585e-08
8.85e-08
4.336e-07
1.854e-06
6.884e-06
2.212e-05
6.141e-05
0.0001474
0.000307
0.0005576
0.0008863
0.001253
0.00158
0.001837
0.001875
0.001804
0.00165
0.001441
0.001209
0.0009787
0.0007675
0.0005848
0.0004344
0.0003155
0.0002251
0.0001582
0.0001101
7.62e-05
5.265e-05
3.647e-05
2.542e-05
1.788e-05
1.273e-05
9.193e-06
6.745e-06
5.035e-06
3.826e-06
2.962e-06
2.336e-06
1.877e-06
1.536e-06
1.28e-06
1.085e-06
9.352e-07
8.192e-07
7.285e-07
6.573e-07
6.012e-07
5.569e-07
5.22e-07
4.947e-07
4.737e-07
4.579e-07
4.464e-07
4.39e-07
4.34e-07
4.335e-07
4.351e-07
4.388e-07
4.449e-07
4.531e-07
4.634e-07
4.757e-07
4.9e-07
5.063e-07
5.245e-07
5.446e-07
5.667e-07
5.908e-07
6.169e-07
6.45e-07
6.751e-07
7.074e-07
7.417e-07
7.782e-07
8.17e-07
8.558e-07
9.186e-07
-2.632e-51
2.576e-50
-2.063e-49
1.61e-48
-1.217e-47
8.929e-47
-6.356e-46
4.399e-45
-2.966e-44
1.953e-43
-1.26e-42
7.993e-42
-5e-41
3.096e-40
-1.904e-39
1.168e-38
-7.156e-38
4.398e-37
-2.715e-36
1.687e-35
-1.055e-34
6.655e-34
-4.227e-33
2.706e-32
-1.727e-31
1.095e-30
-6.898e-30
4.319e-29
-2.689e-28
1.665e-27
-1.026e-26
6.295e-26
-3.845e-25
2.339e-24
-1.417e-23
8.558e-23
-5.121e-22
3.211e-21
-1.216e-20
4.074e-19
1.014e-17
1.49e-16
1.972e-15
2.437e-14
2.801e-13
2.972e-12
2.887e-11
2.545e-10
2.018e-09
1.426e-08
8.89e-08
4.848e-07
2.293e-06
9.345e-06
3.263e-05
9.74e-05
0.0002489
0.0005469
0.001041
0.001712
0.002489
0.003226
0.003836
0.004226
0.004148
0.003891
0.003502
0.003047
0.002572
0.002103
0.001669
0.001287
0.0009667
0.000709
0.0005096
0.0003604
0.0002519
0.0001748
0.000121
8.392e-05
5.853e-05
4.119e-05
2.934e-05
2.12e-05
1.557e-05
1.163e-05
8.844e-06
6.853e-06
5.41e-06
4.352e-06
3.565e-06
2.973e-06
2.522e-06
2.176e-06
1.907e-06
1.697e-06
1.531e-06
1.4e-06
1.297e-06
1.215e-06
1.151e-06
1.101e-06
1.063e-06
1.036e-06
1.017e-06
1.005e-06
1e-06
1.002e-06
1.009e-06
1.021e-06
1.038e-06
1.059e-06
1.085e-06
1.115e-06
1.15e-06
1.188e-06
1.231e-06
1.278e-06
1.329e-06
1.384e-06
1.444e-06
1.507e-06
1.576e-06
1.648e-06
1.725e-06
1.807e-06
1.888e-06
2.02e-06
6.258e-51
-5.786e-50
4.469e-49
-3.442e-48
2.623e-47
-1.971e-46
1.459e-45
-1.061e-44
7.582e-44
-5.319e-43
3.664e-42
-2.481e-41
1.652e-40
-1.083e-39
7.006e-39
-4.473e-38
2.824e-37
-1.765e-36
1.093e-35
-6.722e-35
4.106e-34
-2.493e-33
1.507e-32
-9.067e-32
5.421e-31
-3.226e-30
1.912e-29
-1.129e-28
6.652e-28
-3.91e-27
2.295e-26
-1.346e-25
7.891e-25
-4.628e-24
2.718e-23
-1.594e-22
9.673e-22
-4.296e-21
8.678e-20
2.881e-18
4.651e-17
6.686e-16
9.007e-15
1.134e-13
1.325e-12
1.425e-11
1.398e-10
1.237e-09
9.786e-09
6.837e-08
4.173e-07
2.2e-06
9.917e-06
3.792e-05
0.0001224
0.0003332
0.0007715
0.001534
0.002646
0.003873
0.005266
0.006196
0.007104
0.008068
0.007558
0.006572
0.00581
0.005157
0.004469
0.003736
0.003032
0.002392
0.001835
0.001372
0.001003
0.0007201
0.0005097
0.0003576
0.0002498
0.0001746
0.0001227
8.69e-05
6.228e-05
4.527e-05
3.343e-05
2.511e-05
1.92e-05
1.496e-05
1.187e-05
9.59e-06
7.891e-06
6.609e-06
5.629e-06
4.873e-06
4.284e-06
3.822e-06
3.457e-06
3.168e-06
2.939e-06
2.757e-06
2.614e-06
2.502e-06
2.417e-06
2.355e-06
2.311e-06
2.284e-06
2.27e-06
2.274e-06
2.288e-06
2.312e-06
2.347e-06
2.392e-06
2.446e-06
2.51e-06
2.582e-06
2.664e-06
2.754e-06
2.854e-06
2.962e-06
3.079e-06
3.205e-06
3.339e-06
3.483e-06
3.636e-06
3.797e-06
3.968e-06
4.138e-06
4.413e-06
1.013e-50
-9.921e-50
7.999e-49
-6.319e-48
4.861e-47
-3.641e-46
2.656e-45
-1.888e-44
1.31e-43
-8.891e-43
5.913e-42
-3.863e-41
2.486e-40
-1.579e-39
9.935e-39
-6.203e-38
3.852e-37
-2.385e-36
1.475e-35
-9.119e-35
5.646e-34
-3.504e-33
2.181e-32
-1.362e-31
8.494e-31
-5.267e-30
3.252e-29
-2.001e-28
1.229e-27
-7.533e-27
4.616e-26
-2.83e-25
1.737e-24
-1.069e-23
6.599e-23
-4.067e-22
2.673e-21
-9.256e-21
4.101e-19
1.112e-17
1.789e-16
2.614e-15
3.582e-14
4.581e-13
5.424e-12
5.891e-11
5.808e-10
5.141e-09
4.035e-08
2.772e-07
1.644e-06
8.299e-06
3.524e-05
0.0001246
0.0003659
0.0008965
0.001865
0.003349
0.005255
0.006819
0.009462
0.01047
0.01006
0.01013
0.009977
0.01026
0.01036
0.009076
0.007047
0.005801
0.004819
0.003894
0.003058
0.002338
0.001746
0.001279
0.0009217
0.0006573
0.0004662
0.0003304
0.0002351
0.0001686
0.0001222
8.98e-05
6.701e-05
5.084e-05
3.926e-05
3.086e-05
2.47e-05
2.013e-05
1.669e-05
1.408e-05
1.207e-05
1.051e-05
9.293e-06
8.332e-06
7.57e-06
6.965e-06
6.483e-06
6.1e-06
5.797e-06
5.561e-06
5.381e-06
5.248e-06
5.156e-06
5.099e-06
5.07e-06
5.079e-06
5.108e-06
5.161e-06
5.235e-06
5.331e-06
5.447e-06
5.582e-06
5.737e-06
5.91e-06
6.102e-06
6.312e-06
6.54e-06
6.787e-06
7.051e-06
7.333e-06
7.634e-06
7.951e-06
8.286e-06
8.64e-06
8.991e-06
9.556e-06
-2.066e-50
1.902e-49
-1.466e-48
1.128e-47
-8.598e-47
6.472e-46
-4.802e-45
3.505e-44
-2.514e-43
1.772e-42
-1.226e-41
8.34e-41
-5.574e-40
3.665e-39
-2.373e-38
1.514e-37
-9.537e-37
5.933e-36
-3.651e-35
2.225e-34
-1.345e-33
8.066e-33
-4.808e-32
2.85e-31
-1.679e-30
9.858e-30
-5.776e-29
3.381e-28
-1.98e-27
1.161e-26
-6.821e-26
4.023e-25
-2.384e-24
1.422e-23
-8.523e-23
5.304e-22
-2.389e-21
6.245e-20
2.19e-18
3.831e-17
6.026e-16
8.924e-15
1.241e-13
1.607e-12
1.922e-11
2.102e-10
2.077e-09
1.832e-08
1.422e-07
9.556e-07
5.473e-06
2.626e-05
0.000104
0.0003363
0.0008877
0.001945
0.003639
0.005999
0.008737
0.01017
0.0104
0.01371
0.009997
0.01009
0.009977
0.01017
0.01091
0.0102
0.01026
0.009681
0.007237
0.005803
0.004621
0.003601
0.002746
0.002053
0.00151
0.001098
0.0007938
0.0005728
0.0004147
0.0003024
0.0002227
0.0001662
0.0001259
9.688e-05
7.582e-05
6.037e-05
4.891e-05
4.032e-05
3.379e-05
2.879e-05
2.491e-05
2.188e-05
1.95e-05
1.76e-05
1.61e-05
1.489e-05
1.393e-05
1.317e-05
1.256e-05
1.209e-05