/*--------------------------------*- C++ -*----------------------------------*\
  =========                 |
  \\      /  F ield         | OpenFOAM: The Open Source CFD Toolbox
   \\    /   O peration     | Website:  https://openfoam.org
    \\  /    A nd           | Version:  7
     \\/     M anipulation  |
\*---------------------------------------------------------------------------*/
FoamFile
{
    version     2.0;
    format      ascii;
    class       volScalarField;
    location    "2639.99947344587281";
    object      p;
}
// * * * * * * * * * * * * * * * * * * * * * * * * * * * * * * * * * * * * * //

dimensions      [0 2 -2 0 0 0 0];

internalField   nonuniform List<scalar> 
4096
(
0.0005446
0.0003736
0.0002894
0.0002472
0.0002238
0.0002099
0.000201
0.0001949
0.0001905
0.0001872
0.0001847
0.0001826
0.000181
0.0001796
0.0001784
0.0001774
0.0001765
0.0001757
0.000175
0.0001743
0.0001737
0.0001732
0.0001726
0.0001721
0.0001716
0.0001711
0.0001706
0.0001702
0.0001697
0.0001692
0.0001688
0.0001683
0.0001678
0.0001673
0.0001668
0.0001663
0.0001658
0.0001652
0.0001646
0.0001639
0.0001632
0.0001624
0.0001615
0.0001606
0.0001595
0.0001583
0.000157
0.0001555
0.0001538
0.0001519
0.0001498
0.0001474
0.0001448
0.0001419
0.0001387
0.0001352
0.0001314
0.0001274
0.000123
0.0001184
0.0001136
0.0001086
0.0001035
9.824e-05
9.295e-05
8.766e-05
8.242e-05
7.727e-05
7.227e-05
6.744e-05
6.282e-05
5.844e-05
5.43e-05
5.042e-05
4.681e-05
4.347e-05
4.039e-05
3.758e-05
3.501e-05
3.269e-05
3.058e-05
2.868e-05
2.698e-05
2.544e-05
2.406e-05
2.282e-05
2.171e-05
2.07e-05
1.979e-05
1.896e-05
1.82e-05
1.75e-05
1.684e-05
1.624e-05
1.566e-05
1.512e-05
1.459e-05
1.409e-05
1.36e-05
1.312e-05
1.265e-05
1.219e-05
1.173e-05
1.127e-05
1.081e-05
1.036e-05
9.906e-06
9.451e-06
8.995e-06
8.537e-06
8.078e-06
7.616e-06
7.152e-06
6.686e-06
6.217e-06
5.746e-06
5.272e-06
4.795e-06
4.316e-06
3.834e-06
3.351e-06
2.865e-06
2.379e-06
1.893e-06
1.41e-06
9.356e-07
4.807e-07
1.083e-07
0.0004001
0.0003363
0.0002865
0.0002545
0.0002335
0.0002192
0.0002092
0.0002018
0.0001963
0.0001921
0.0001888
0.0001861
0.0001839
0.0001821
0.0001806
0.0001792
0.0001781
0.0001771
0.0001761
0.0001753
0.0001745
0.0001738
0.0001731
0.0001725
0.0001719
0.0001713
0.0001707
0.0001702
0.0001696
0.0001691
0.0001685
0.0001679
0.0001674
0.0001668
0.0001662
0.0001656
0.0001649
0.0001643
0.0001635
0.0001628
0.000162
0.0001611
0.0001601
0.000159
0.0001579
0.0001566
0.0001551
0.0001536
0.0001518
0.0001498
0.0001477
0.0001453
0.0001427
0.0001398
0.0001367
0.0001333
0.0001296
0.0001257
0.0001215
0.0001171
0.0001125
0.0001078
0.0001029
9.79e-05
9.287e-05
8.785e-05
8.287e-05
7.797e-05
7.32e-05
6.859e-05
6.416e-05
5.994e-05
5.595e-05
5.219e-05
4.868e-05
4.541e-05
4.238e-05
3.959e-05
3.703e-05
3.469e-05
3.256e-05
3.061e-05
2.885e-05
2.725e-05
2.58e-05
2.448e-05
2.328e-05
2.218e-05
2.118e-05
2.027e-05
1.942e-05
1.863e-05
1.79e-05
1.721e-05
1.656e-05
1.594e-05
1.535e-05
1.478e-05
1.423e-05
1.37e-05
1.317e-05
1.266e-05
1.216e-05
1.166e-05
1.117e-05
1.068e-05
1.019e-05
9.707e-06
9.225e-06
8.743e-06
8.262e-06
7.781e-06
7.299e-06
6.817e-06
6.334e-06
5.851e-06
5.366e-06
4.88e-06
4.393e-06
3.905e-06
3.416e-06
2.927e-06
2.438e-06
1.951e-06
1.467e-06
9.902e-07
5.261e-07
1.271e-07
0.0003166
0.0002949
0.0002695
0.0002487
0.0002332
0.0002215
0.0002125
0.0002054
0.0001999
0.0001954
0.0001918
0.0001888
0.0001863
0.0001842
0.0001824
0.0001808
0.0001794
0.0001782
0.0001771
0.0001762
0.0001753
0.0001744
0.0001736
0.0001729
0.0001722
0.0001715
0.0001708
0.0001702
0.0001695
0.0001689
0.0001682
0.0001676
0.0001669
0.0001663
0.0001656
0.0001649
0.0001641
0.0001634
0.0001626
0.0001617
0.0001608
0.0001598
0.0001587
0.0001576
0.0001563
0.0001549
0.0001534
0.0001518
0.00015
0.000148
0.0001458
0.0001434
0.0001408
0.000138
0.0001349
0.0001316
0.0001281
0.0001243
0.0001202
0.000116
0.0001116
0.000107
0.0001024
9.76e-05
9.279e-05
8.799e-05
8.324e-05
7.856e-05
7.399e-05
6.957e-05
6.532e-05
6.126e-05
5.74e-05
5.376e-05
5.034e-05
4.714e-05
4.417e-05
4.141e-05
3.886e-05
3.652e-05
3.437e-05
3.239e-05
3.058e-05
2.893e-05
2.742e-05
2.603e-05
2.476e-05
2.359e-05
2.251e-05
2.152e-05
2.059e-05
1.973e-05
1.892e-05
1.816e-05
1.744e-05
1.675e-05
1.61e-05
1.547e-05
1.486e-05
1.427e-05
1.37e-05
1.314e-05
1.259e-05
1.205e-05
1.152e-05
1.1e-05
1.048e-05
9.967e-06
9.458e-06
8.953e-06
8.45e-06
7.949e-06
7.45e-06
6.953e-06
6.456e-06
5.96e-06
5.464e-06
4.969e-06
4.473e-06
3.978e-06
3.483e-06
2.989e-06
2.495e-06
2.003e-06
1.514e-06
1.029e-06
5.499e-07
1.301e-07
0.0002719
0.0002648
0.0002515
0.0002383
0.0002274
0.0002186
0.0002115
0.0002056
0.0002007
0.0001966
0.0001931
0.0001902
0.0001876
0.0001855
0.0001836
0.0001819
0.0001804
0.0001791
0.0001779
0.0001768
0.0001758
0.0001749
0.000174
0.0001732
0.0001724
0.0001716
0.0001709
0.0001701
0.0001694
0.0001687
0.000168
0.0001672
0.0001665
0.0001658
0.000165
0.0001642
0.0001634
0.0001626
0.0001617
0.0001607
0.0001597
0.0001587
0.0001575
0.0001563
0.000155
0.0001536
0.000152
0.0001503
0.0001485
0.0001465
0.0001443
0.0001419
0.0001393
0.0001365
0.0001335
0.0001303
0.0001268
0.0001231
0.0001192
0.0001151
0.0001109
0.0001065
0.0001019
9.735e-05
9.271e-05
8.809e-05
8.35e-05
7.899e-05
7.459e-05
7.032e-05
6.621e-05
6.228e-05
5.854e-05
5.5e-05
5.166e-05
4.853e-05
4.561e-05
4.289e-05
4.036e-05
3.803e-05
3.587e-05
3.388e-05
3.204e-05
3.036e-05
2.88e-05
2.736e-05
2.604e-05
2.481e-05
2.368e-05
2.262e-05
2.163e-05
2.07e-05
1.983e-05
1.901e-05
1.823e-05
1.748e-05
1.677e-05
1.609e-05
1.543e-05
1.479e-05
1.418e-05
1.357e-05
1.299e-05
1.241e-05
1.185e-05
1.129e-05
1.075e-05
1.021e-05
9.677e-06
9.15e-06
8.627e-06
8.109e-06
7.593e-06
7.081e-06
6.571e-06
6.063e-06
5.557e-06
5.052e-06
4.549e-06
4.046e-06
3.545e-06
3.044e-06
2.544e-06
2.046e-06
1.549e-06
1.053e-06
5.607e-07
1.276e-07
0.000245
0.000244
0.000237
0.0002284
0.0002206
0.0002141
0.0002085
0.0002038
0.0001998
0.0001963
0.0001932
0.0001905
0.0001881
0.000186
0.0001842
0.0001825
0.000181
0.0001796
0.0001784
0.0001773
0.0001762
0.0001752
0.0001743
0.0001734
0.0001725
0.0001717
0.0001709
0.0001701
0.0001693
0.0001685
0.0001677
0.0001669
0.0001662
0.0001653
0.0001645
0.0001637
0.0001628
0.0001619
0.0001609
0.0001599
0.0001588
0.0001577
0.0001565
0.0001552
0.0001539
0.0001524
0.0001508
0.0001491
0.0001472
0.0001452
0.000143
0.0001407
0.0001381
0.0001354
0.0001324
0.0001292
0.0001259
0.0001223
0.0001185
0.0001145
0.0001103
0.000106
0.0001016
9.714e-05
9.263e-05
8.813e-05
8.368e-05
7.929e-05
7.502e-05
7.087e-05
6.688e-05
6.305e-05
5.941e-05
5.595e-05
5.269e-05
4.962e-05
4.675e-05
4.407e-05
4.157e-05
3.925e-05
3.709e-05
3.51e-05
3.325e-05
3.154e-05
2.996e-05
2.849e-05
2.712e-05
2.585e-05
2.467e-05
2.356e-05
2.252e-05
2.154e-05
2.062e-05
1.975e-05
1.892e-05
1.812e-05
1.737e-05
1.664e-05
1.594e-05
1.526e-05
1.46e-05
1.397e-05
1.334e-05
1.274e-05
1.214e-05
1.156e-05
1.099e-05
1.043e-05
9.876e-06
9.329e-06
8.788e-06
8.254e-06
7.724e-06
7.198e-06
6.676e-06
6.158e-06
5.642e-06
5.129e-06
4.617e-06
4.108e-06
3.6e-06
3.092e-06
2.586e-06
2.081e-06
1.576e-06
1.072e-06
5.673e-07
1.248e-07
0.0002276
0.0002291
0.0002258
0.0002201
0.0002144
0.0002093
0.000205
0.0002013
0.000198
0.000195
0.0001924
0.0001901
0.0001879
0.000186
0.0001843
0.0001827
0.0001812
0.0001799
0.0001786
0.0001775
0.0001764
0.0001754
0.0001744
0.0001735
0.0001726
0.0001717
0.0001708
0.00017
0.0001692
0.0001683
0.0001675
0.0001667
0.0001658
0.000165
0.0001641
0.0001632
0.0001623
0.0001613
0.0001603
0.0001592
0.0001581
0.0001569
0.0001557
0.0001544
0.000153
0.0001515
0.0001499
0.0001481
0.0001463
0.0001442
0.0001421
0.0001397
0.0001372
0.0001345
0.0001316
0.0001285
0.0001251
0.0001216
0.0001179
0.000114
0.0001099
0.0001057
0.0001014
9.697e-05
9.255e-05
8.814e-05
8.378e-05
7.949e-05
7.531e-05
7.126e-05
6.735e-05
6.361e-05
6.005e-05
5.667e-05
5.347e-05
5.046e-05
4.763e-05
4.498e-05
4.251e-05
4.021e-05
3.807e-05
3.608e-05
3.422e-05
3.25e-05
3.09e-05
2.941e-05
2.802e-05
2.672e-05
2.55e-05
2.435e-05
2.327e-05
2.226e-05
2.129e-05
2.038e-05
1.951e-05
1.867e-05
1.788e-05
1.711e-05
1.637e-05
1.566e-05
1.497e-05
1.43e-05
1.365e-05
1.302e-05
1.24e-05
1.18e-05
1.12e-05
1.062e-05
1.005e-05
9.485e-06
8.93e-06
8.381e-06
7.838e-06
7.301e-06
6.769e-06
6.241e-06
5.716e-06
5.195e-06
4.677e-06
4.161e-06
3.647e-06
3.134e-06
2.622e-06
2.11e-06
1.598e-06
1.086e-06
5.726e-07
1.227e-07
0.0002157
0.0002182
0.0002169
0.0002132
0.000209
0.0002051
0.0002016
0.0001985
0.0001958
0.0001934
0.0001912
0.0001891
0.0001873
0.0001856
0.000184
0.0001825
0.0001811
0.0001798
0.0001786
0.0001775
0.0001764
0.0001754
0.0001744
0.0001735
0.0001725
0.0001717
0.0001708
0.0001699
0.000169
0.0001682
0.0001673
0.0001664
0.0001655
0.0001646
0.0001637
0.0001628
0.0001618
0.0001608
0.0001597
0.0001587
0.0001575
0.0001563
0.000155
0.0001537
0.0001522
0.0001507
0.0001491
0.0001474
0.0001455
0.0001435
0.0001413
0.000139
0.0001365
0.0001339
0.000131
0.0001279
0.0001246
0.0001212
0.0001175
0.0001136
0.0001096
0.0001054
0.0001012
9.683e-05
9.246e-05
8.811e-05
8.381e-05
7.958e-05
7.547e-05
7.149e-05
6.766e-05
6.399e-05
6.049e-05
5.716e-05
5.402e-05
5.106e-05
4.827e-05
4.566e-05
4.322e-05
4.094e-05
3.881e-05
3.683e-05
3.498e-05
3.325e-05
3.164e-05
3.014e-05
2.873e-05
2.741e-05
2.616e-05
2.499e-05
2.389e-05
2.284e-05
2.184e-05
2.09e-05
1.999e-05
1.913e-05
1.83e-05
1.75e-05
1.674e-05
1.6e-05
1.528e-05
1.459e-05
1.391e-05
1.326e-05
1.262e-05
1.199e-05
1.138e-05
1.078e-05
1.019e-05
9.616e-06
9.047e-06
8.487e-06
7.933e-06
7.386e-06
6.846e-06
6.31e-06
5.778e-06
5.251e-06
4.727e-06
4.205e-06
3.686e-06
3.168e-06
2.651e-06
2.134e-06
1.617e-06
1.099e-06
5.777e-07
1.218e-07
0.0002071
0.0002098
0.0002097
0.0002075
0.0002044
0.0002013
0.0001984
0.0001959
0.0001936
0.0001915
0.0001897
0.0001879
0.0001863
0.0001848
0.0001834
0.0001821
0.0001808
0.0001796
0.0001785
0.0001774
0.0001763
0.0001753
0.0001743
0.0001734
0.0001725
0.0001716
0.0001707
0.0001698
0.0001689
0.000168
0.0001671
0.0001662
0.0001653
0.0001644
0.0001634
0.0001625
0.0001615
0.0001604
0.0001593
0.0001582
0.000157
0.0001558
0.0001545
0.0001531
0.0001517
0.0001502
0.0001485
0.0001468
0.0001449
0.0001429
0.0001408
0.0001385
0.0001361
0.0001334
0.0001306
0.0001276
0.0001243
0.0001209
0.0001172
0.0001134
0.0001094
0.0001053
0.000101
9.671e-05
9.237e-05
8.804e-05
8.377e-05
7.959e-05
7.552e-05
7.159e-05
6.781e-05
6.419e-05
6.074e-05
5.747e-05
5.437e-05
5.144e-05
4.87e-05
4.612e-05
4.37e-05
4.145e-05
3.934e-05
3.737e-05
3.553e-05
3.381e-05
3.22e-05
3.069e-05
2.927e-05
2.793e-05
2.667e-05
2.548e-05
2.436e-05
2.329e-05
2.227e-05
2.13e-05
2.037e-05
1.948e-05
1.863e-05
1.781e-05
1.702e-05
1.626e-05
1.552e-05
1.481e-05
1.411e-05
1.344e-05
1.278e-05
1.214e-05
1.152e-05
1.091e-05
1.031e-05
9.718e-06
9.139e-06
8.569e-06
8.007e-06
7.453e-06
6.905e-06
6.363e-06
5.826e-06
5.294e-06
4.765e-06
4.239e-06
3.716e-06
3.194e-06
2.674e-06
2.153e-06
1.632e-06
1.11e-06
5.831e-07
1.223e-07
0.0002006
0.0002033
0.0002039
0.0002026
0.0002004
0.000198
0.0001956
0.0001935
0.0001915
0.0001898
0.0001882
0.0001867
0.0001853
0.0001839
0.0001827
0.0001815
0.0001803
0.0001792
0.0001781
0.0001771
0.0001761
0.0001751
0.0001742
0.0001733
0.0001724
0.0001715
0.0001706
0.0001697
0.0001688
0.0001679
0.000167
0.0001661
0.0001651
0.0001642
0.0001632
0.0001622
0.0001612
0.0001601
0.000159
0.0001579
0.0001567
0.0001555
0.0001542
0.0001528
0.0001513
0.0001498
0.0001482
0.0001464
0.0001446
0.0001426
0.0001405
0.0001382
0.0001358
0.0001332
0.0001304
0.0001274
0.0001242
0.0001208
0.0001171
0.0001133
0.0001093
0.0001052
0.0001009
9.66e-05
9.226e-05
8.793e-05
8.367e-05
7.951e-05
7.547e-05
7.157e-05
6.782e-05
6.424e-05
6.083e-05
5.759e-05
5.452e-05
5.163e-05
4.892e-05
4.637e-05
4.398e-05
4.175e-05
3.966e-05
3.77e-05
3.588e-05
3.417e-05
3.256e-05
3.105e-05
2.963e-05
2.829e-05
2.703e-05
2.583e-05
2.469e-05
2.361e-05
2.257e-05
2.159e-05
2.064e-05
1.974e-05
1.887e-05
1.803e-05
1.722e-05
1.645e-05
1.569e-05
1.497e-05
1.426e-05
1.357e-05
1.29e-05
1.225e-05
1.162e-05
1.099e-05
1.039e-05
9.788e-06
9.202e-06
8.626e-06
8.058e-06
7.498e-06
6.946e-06
6.4e-06
5.859e-06
5.323e-06
4.792e-06
4.263e-06
3.738e-06
3.214e-06
2.691e-06
2.168e-06
1.645e-06
1.119e-06
5.891e-07
1.243e-07
0.0001956
0.0001981
0.000199
0.0001985
0.000197
0.0001951
0.0001932
0.0001913
0.0001896
0.0001881
0.0001867
0.0001854
0.0001842
0.000183
0.0001819
0.0001808
0.0001797
0.0001787
0.0001777
0.0001768
0.0001758
0.0001749
0.000174
0.0001731
0.0001722
0.0001713
0.0001704
0.0001695
0.0001687
0.0001678
0.0001669
0.0001659
0.000165
0.0001641
0.0001631
0.0001621
0.000161
0.00016
0.0001589
0.0001577
0.0001565
0.0001553
0.000154
0.0001526
0.0001511
0.0001496
0.000148
0.0001463
0.0001444
0.0001425
0.0001404
0.0001381
0.0001357
0.0001331
0.0001304
0.0001274
0.0001242
0.0001208
0.0001172
0.0001133
0.0001093
0.0001052
0.0001009
9.651e-05
9.214e-05
8.779e-05
8.352e-05
7.935e-05
7.532e-05
7.143e-05
6.77e-05
6.414e-05
6.075e-05
5.754e-05
5.45e-05
5.163e-05
4.894e-05
4.642e-05
4.405e-05
4.184e-05
3.978e-05
3.785e-05
3.604e-05
3.434e-05
3.275e-05
3.125e-05
2.983e-05
2.85e-05
2.723e-05
2.603e-05
2.488e-05
2.379e-05
2.275e-05
2.176e-05
2.08e-05
1.989e-05
1.901e-05
1.816e-05
1.735e-05
1.656e-05
1.58e-05
1.506e-05
1.434e-05
1.365e-05
1.297e-05
1.231e-05
1.167e-05
1.104e-05
1.043e-05
9.827e-06
9.236e-06
8.656e-06
8.085e-06
7.522e-06
6.967e-06
6.419e-06
5.876e-06
5.339e-06
4.806e-06
4.276e-06
3.75e-06
3.225e-06
2.702e-06
2.178e-06
1.654e-06
1.127e-06
5.958e-07
1.28e-07
0.0001915
0.0001938
0.000195
0.0001949
0.0001939
0.0001925
0.000191
0.0001894
0.0001879
0.0001866
0.0001853
0.0001842
0.0001831
0.000182
0.000181
0.0001801
0.0001791
0.0001782
0.0001773
0.0001764
0.0001755
0.0001746
0.0001737
0.0001729
0.000172
0.0001712
0.0001703
0.0001694
0.0001686
0.0001677
0.0001668
0.0001659
0.0001649
0.000164
0.000163
0.000162
0.000161
0.0001599
0.0001588
0.0001577
0.0001565
0.0001552
0.0001539
0.0001525
0.0001511
0.0001496
0.000148
0.0001463
0.0001444
0.0001425
0.0001404
0.0001382
0.0001358
0.0001333
0.0001305
0.0001276
0.0001244
0.000121
0.0001173
0.0001135
0.0001094
0.0001052
0.0001009
9.644e-05
9.2e-05
8.76e-05
8.329e-05
7.911e-05
7.506e-05
7.117e-05
6.745e-05
6.39e-05
6.052e-05
5.732e-05
5.429e-05
5.144e-05
4.877e-05
4.627e-05
4.393e-05
4.174e-05
3.97e-05
3.779e-05
3.601e-05
3.433e-05
3.276e-05
3.127e-05
2.987e-05
2.854e-05
2.728e-05
2.609e-05
2.494e-05
2.385e-05
2.281e-05
2.182e-05
2.086e-05
1.994e-05
1.906e-05
1.821e-05
1.739e-05
1.659e-05
1.583e-05
1.509e-05
1.437e-05
1.367e-05
1.299e-05
1.233e-05
1.168e-05
1.105e-05
1.044e-05
9.832e-06
9.24e-06
8.658e-06
8.087e-06
7.523e-06
6.968e-06
6.419e-06
5.877e-06
5.34e-06
4.807e-06
4.279e-06
3.753e-06
3.229e-06
2.707e-06
2.184e-06
1.661e-06
1.134e-06
6.035e-07
1.333e-07
0.0001882
0.0001903
0.0001916
0.0001918
0.0001912
0.0001902
0.000189
0.0001877
0.0001864
0.0001852
0.0001841
0.0001831
0.0001821
0.0001811
0.0001802
0.0001793
0.0001785
0.0001776
0.0001768
0.000176
0.0001751
0.0001743
0.0001735
0.0001727
0.0001718
0.000171
0.0001702
0.0001693
0.0001685
0.0001676
0.0001667
0.0001658
0.0001649
0.000164
0.000163
0.000162
0.000161
0.0001599
0.0001588
0.0001577
0.0001565
0.0001553
0.000154
0.0001526
0.0001512
0.0001497
0.0001481
0.0001464
0.0001447
0.0001427
0.0001407
0.0001385
0.0001362
0.0001336
0.0001309
0.0001279
0.0001247
0.0001213
0.0001177
0.0001138
0.0001096
0.0001053
0.0001009
9.637e-05
9.184e-05
8.737e-05
8.3e-05
7.877e-05
7.47e-05
7.08e-05
6.707e-05
6.351e-05
6.012e-05
5.692e-05
5.39e-05
5.106e-05
4.84e-05
4.592e-05
4.36e-05
4.144e-05
3.943e-05
3.755e-05
3.579e-05
3.414e-05
3.259e-05
3.113e-05
2.974e-05
2.843e-05
2.719e-05
2.6e-05
2.487e-05
2.379e-05
2.275e-05
2.176e-05
2.081e-05
1.989e-05
1.901e-05
1.816e-05
1.735e-05
1.655e-05
1.579e-05
1.505e-05
1.433e-05
1.363e-05
1.295e-05
1.229e-05
1.165e-05
1.102e-05
1.041e-05
9.804e-06
9.214e-06
8.634e-06
8.063e-06
7.502e-06
6.949e-06
6.402e-06
5.862e-06
5.327e-06
4.796e-06
4.27e-06
3.746e-06
3.225e-06
2.705e-06
2.185e-06
1.664e-06
1.14e-06
6.121e-07
1.403e-07
0.0001854
0.0001874
0.0001887
0.0001891
0.0001888
0.0001881
0.0001872
0.0001861
0.000185
0.000184
0.000183
0.0001821
0.0001812
0.0001803
0.0001795
0.0001787
0.0001779
0.0001771
0.0001763
0.0001756
0.0001748
0.000174
0.0001732
0.0001725
0.0001717
0.0001709
0.0001701
0.0001693
0.0001684
0.0001676
0.0001667
0.0001659
0.000165
0.000164
0.0001631
0.0001621
0.0001611
0.0001601
0.000159
0.0001579
0.0001567
0.0001555
0.0001542
0.0001529
0.0001515
0.00015
0.0001485
0.0001468
0.0001451
0.0001432
0.0001412
0.000139
0.0001367
0.0001342
0.0001314
0.0001285
0.0001253
0.0001218
0.0001181
0.0001142
0.0001099
0.0001055
0.000101
9.631e-05
9.166e-05
8.709e-05
8.264e-05
7.835e-05
7.424e-05
7.03e-05
6.654e-05
6.296e-05
5.955e-05
5.634e-05
5.331e-05
5.047e-05
4.782e-05
4.535e-05
4.306e-05
4.093e-05
3.895e-05
3.71e-05
3.538e-05
3.376e-05
3.225e-05
3.081e-05
2.946e-05
2.817e-05
2.695e-05
2.578e-05
2.467e-05
2.36e-05
2.258e-05
2.16e-05
2.066e-05
1.975e-05
1.888e-05
1.804e-05
1.722e-05
1.644e-05
1.568e-05
1.495e-05
1.424e-05
1.354e-05
1.287e-05
1.221e-05
1.158e-05
1.095e-05
1.034e-05
9.744e-06
9.158e-06
8.582e-06
8.016e-06
7.459e-06
6.909e-06
6.367e-06
5.83e-06
5.299e-06
4.773e-06
4.25e-06
3.731e-06
3.214e-06
2.698e-06
2.182e-06
1.665e-06
1.146e-06
6.217e-07
1.49e-07
0.0001831
0.0001849
0.0001862
0.0001868
0.0001867
0.0001863
0.0001856
0.0001847
0.0001838
0.0001829
0.000182
0.0001811
0.0001803
0.0001795
0.0001788
0.000178
0.0001773
0.0001766
0.0001759
0.0001752
0.0001744
0.0001737
0.000173
0.0001723
0.0001715
0.0001708
0.00017
0.0001692
0.0001684
0.0001676
0.0001668
0.0001659
0.0001651
0.0001642
0.0001633
0.0001623
0.0001613
0.0001603
0.0001593
0.0001582
0.0001571
0.0001559
0.0001546
0.0001533
0.000152
0.0001505
0.000149
0.0001474
0.0001457
0.0001438
0.0001419
0.0001397
0.0001374
0.0001349
0.0001322
0.0001292
0.000126
0.0001225
0.0001188
0.0001147
0.0001104
0.0001058
0.0001011
9.626e-05
9.145e-05
8.675e-05
8.22e-05
7.783e-05
7.365e-05
6.966e-05
6.586e-05
6.223e-05
5.879e-05
5.554e-05
5.25e-05
4.965e-05
4.701e-05
4.456e-05
4.229e-05
4.02e-05
3.826e-05
3.646e-05
3.478e-05
3.32e-05
3.173e-05
3.033e-05
2.901e-05
2.776e-05
2.656e-05
2.542e-05
2.433e-05
2.329e-05
2.229e-05
2.132e-05
2.04e-05
1.951e-05
1.865e-05
1.783e-05
1.703e-05
1.626e-05
1.551e-05
1.479e-05
1.408e-05
1.34e-05
1.274e-05
1.209e-05
1.146e-05
1.084e-05
1.024e-05
9.652e-06
9.073e-06
8.504e-06
7.945e-06
7.394e-06
6.851e-06
6.314e-06
5.784e-06
5.258e-06
4.738e-06
4.221e-06
3.707e-06
3.195e-06
2.685e-06
2.175e-06
1.663e-06
1.15e-06
6.322e-07
1.594e-07
0.0001811
0.0001828
0.000184
0.0001847
0.0001849
0.0001846
0.0001841
0.0001834
0.0001827
0.0001819
0.0001811
0.0001803
0.0001796
0.0001789
0.0001782
0.0001775
0.0001768
0.0001761
0.0001755
0.0001748
0.0001741
0.0001735
0.0001728
0.0001721
0.0001714
0.0001707
0.0001699
0.0001692
0.0001684
0.0001677
0.0001669
0.0001661
0.0001652
0.0001644
0.0001635
0.0001626
0.0001617
0.0001607
0.0001597
0.0001586
0.0001575
0.0001564
0.0001552
0.0001539
0.0001526
0.0001512
0.0001498
0.0001482
0.0001465
0.0001447
0.0001428
0.0001407
0.0001384
0.0001359
0.0001332
0.0001303
0.000127
0.0001235
0.0001196
0.0001154
0.000111
0.0001062
0.0001013
9.623e-05
9.122e-05
8.634e-05
8.166e-05
7.72e-05
7.294e-05
6.887e-05
6.499e-05
6.13e-05
5.78e-05
5.451e-05
5.144e-05
4.858e-05
4.594e-05
4.352e-05
4.129e-05
3.924e-05
3.735e-05
3.56e-05
3.398e-05
3.246e-05
3.103e-05
2.968e-05
2.841e-05
2.72e-05
2.604e-05
2.493e-05
2.387e-05
2.286e-05
2.189e-05
2.095e-05
2.005e-05
1.918e-05
1.834e-05
1.754e-05
1.676e-05
1.6e-05
1.527e-05
1.456e-05
1.388e-05
1.321e-05
1.256e-05
1.193e-05
1.131e-05
1.07e-05
1.011e-05
9.531e-06
8.962e-06
8.402e-06
7.852e-06
7.309e-06
6.774e-06
6.246e-06
5.723e-06
5.205e-06
4.691e-06
4.181e-06
3.674e-06
3.17e-06
2.666e-06
2.163e-06
1.659e-06
1.153e-06
6.437e-07
1.713e-07
0.0001794
0.000181
0.0001822
0.0001829
0.0001832
0.0001831
0.0001828
0.0001823
0.0001817
0.000181
0.0001803
0.0001796
0.0001789
0.0001783
0.0001776
0.000177
0.0001764
0.0001757
0.0001751
0.0001745
0.0001739
0.0001732
0.0001726
0.0001719
0.0001713
0.0001706
0.0001699
0.0001692
0.0001685
0.0001678
0.000167
0.0001663
0.0001655
0.0001647
0.0001638
0.000163
0.0001621
0.0001611
0.0001602
0.0001592
0.0001581
0.000157
0.0001559
0.0001547
0.0001534
0.0001521
0.0001507
0.0001492
0.0001476
0.0001459
0.000144
0.000142
0.0001397
0.0001373
0.0001346
0.0001316
0.0001283
0.0001247
0.0001207
0.0001164
0.0001117
0.0001068
0.0001015
9.622e-05
9.094e-05
8.586e-05
8.101e-05
7.642e-05
7.205e-05
6.788e-05
6.39e-05
6.012e-05
5.655e-05
5.32e-05
5.009e-05
4.722e-05
4.46e-05
4.22e-05
4.002e-05
3.803e-05
3.621e-05
3.453e-05
3.297e-05
3.152e-05
3.016e-05
2.887e-05
2.765e-05
2.649e-05
2.538e-05
2.431e-05
2.329e-05
2.232e-05
2.138e-05
2.047e-05
1.96e-05
1.876e-05
1.795e-05
1.717e-05
1.642e-05
1.569e-05
1.498e-05
1.429e-05
1.362e-05
1.297e-05
1.234e-05
1.172e-05
1.112e-05
1.053e-05
9.95e-06
9.383e-06
8.826e-06
8.278e-06
7.738e-06
7.206e-06
6.681e-06
6.162e-06
5.648e-06
5.139e-06
4.635e-06
4.133e-06
3.635e-06
3.138e-06
2.643e-06
2.148e-06
1.653e-06
1.156e-06
6.559e-07
1.846e-07
0.0001779
0.0001794
0.0001806
0.0001814
0.0001818
0.0001818
0.0001816
0.0001812
0.0001807
0.0001802
0.0001796
0.000179
0.0001783
0.0001777
0.0001771
0.0001765
0.000176
0.0001754
0.0001748
0.0001742
0.0001736
0.000173
0.0001724
0.0001718
0.0001712
0.0001706
0.00017
0.0001693
0.0001686
0.0001679
0.0001672
0.0001665
0.0001658
0.000165
0.0001642
0.0001634
0.0001625
0.0001617
0.0001608
0.0001598
0.0001588
0.0001578
0.0001567
0.0001556
0.0001544
0.0001531
0.0001518
0.0001504
0.0001489
0.0001473
0.0001455
0.0001435
0.0001414
0.000139
0.0001363
0.0001333
0.00013
0.0001263
0.0001222
0.0001177
0.0001128
0.0001075
0.0001019
9.623e-05
9.062e-05
8.527e-05
8.022e-05
7.547e-05
7.094e-05
6.663e-05
6.252e-05
5.862e-05
5.495e-05
5.154e-05
4.839e-05
4.552e-05
4.292e-05
4.058e-05
3.846e-05
3.655e-05
3.482e-05
3.323e-05
3.176e-05
3.039e-05
2.911e-05
2.789e-05
2.674e-05
2.563e-05
2.458e-05
2.357e-05
2.26e-05
2.167e-05
2.077e-05
1.991e-05
1.907e-05
1.827e-05
1.749e-05
1.674e-05
1.601e-05
1.531e-05
1.463e-05
1.396e-05
1.332e-05
1.269e-05
1.208e-05
1.148e-05
1.09e-05
1.032e-05
9.762e-06
9.21e-06
8.668e-06
8.133e-06
7.607e-06
7.087e-06
6.573e-06
6.065e-06
5.562e-06
5.064e-06
4.569e-06
4.077e-06
3.588e-06
3.101e-06
2.615e-06
2.13e-06
1.645e-06
1.158e-06
6.688e-07
1.992e-07
0.0001766
0.000178
0.0001792
0.00018
0.0001805
0.0001806
0.0001806
0.0001803
0.0001799
0.0001794
0.0001789
0.0001784
0.0001778
0.0001773
0.0001767
0.0001762
0.0001756
0.0001751
0.0001745
0.000174
0.0001735
0.0001729
0.0001723
0.0001718
0.0001712
0.0001706
0.00017
0.0001694
0.0001688
0.0001681
0.0001675
0.0001668
0.0001661
0.0001654
0.0001647
0.0001639
0.0001631
0.0001623
0.0001614
0.0001606
0.0001596
0.0001587
0.0001577
0.0001566
0.0001555
0.0001544
0.0001532
0.0001519
0.0001505
0.0001489
0.0001473
0.0001454
0.0001434
0.0001411
0.0001384
0.0001355
0.0001321
0.0001283
0.0001241
0.0001193
0.0001142
0.0001085
0.0001025
9.629e-05
9.024e-05
8.454e-05
7.923e-05
7.426e-05
6.953e-05
6.503e-05
6.075e-05
5.671e-05
5.294e-05
4.946e-05
4.629e-05
4.344e-05
4.088e-05
3.862e-05
3.66e-05
3.48e-05
3.318e-05
3.17e-05
3.034e-05
2.907e-05
2.788e-05
2.675e-05
2.568e-05
2.465e-05
2.366e-05
2.271e-05
2.18e-05
2.092e-05
2.007e-05
1.925e-05
1.846e-05
1.77e-05
1.696e-05
1.625e-05
1.555e-05
1.488e-05
1.423e-05
1.36e-05
1.298e-05
1.238e-05
1.179e-05
1.121e-05
1.065e-05
1.009e-05
9.551e-06
9.017e-06
8.49e-06
7.972e-06
7.46e-06
6.954e-06
6.453e-06
5.958e-06
5.466e-06
4.979e-06
4.495e-06
4.014e-06
3.536e-06
3.059e-06
2.584e-06
2.109e-06
1.635e-06
1.159e-06
6.822e-07
2.147e-07
0.0001755
0.0001769
0.000178
0.0001788
0.0001794
0.0001796
0.0001796
0.0001795
0.0001792
0.0001788
0.0001784
0.0001779
0.0001774
0.0001769
0.0001764
0.0001759
0.0001753
0.0001748
0.0001743
0.0001738
0.0001733
0.0001728
0.0001723
0.0001718
0.0001712
0.0001707
0.0001701
0.0001695
0.000169
0.0001684
0.0001678
0.0001671
0.0001665
0.0001658
0.0001652
0.0001645
0.0001637
0.000163
0.0001622
0.0001614
0.0001606
0.0001597
0.0001588
0.0001578
0.0001569
0.0001558
0.0001547
0.0001535
0.0001523
0.0001509
0.0001494
0.0001477
0.0001458
0.0001437
0.0001411
0.0001382
0.0001349
0.000131
0.0001266
0.0001216
0.0001161
0.0001099
0.0001033
9.644e-05
8.978e-05
8.36e-05
7.794e-05
7.266e-05
6.767e-05
6.293e-05
5.845e-05
5.427e-05
5.04e-05
4.688e-05
4.371e-05
4.09e-05
3.844e-05
3.629e-05
3.441e-05
3.276e-05
3.128e-05
2.995e-05
2.872e-05
2.757e-05
2.649e-05
2.546e-05
2.448e-05
2.353e-05
2.262e-05
2.174e-05
2.09e-05
2.008e-05
1.929e-05
1.852e-05
1.778e-05
1.707e-05
1.637e-05
1.57e-05
1.505e-05
1.441e-05
1.379e-05
1.319e-05
1.26e-05
1.203e-05
1.147e-05
1.092e-05
1.038e-05
9.844e-06
9.321e-06
8.806e-06
8.298e-06
7.796e-06
7.3e-06
6.809e-06
6.323e-06
5.841e-06
5.362e-06
4.887e-06
4.415e-06
3.946e-06
3.479e-06
3.013e-06
2.549e-06
2.086e-06
1.623e-06
1.16e-06
6.96e-07
2.31e-07
0.0001746
0.0001759
0.000177
0.0001778
0.0001784
0.0001787
0.0001788
0.0001787
0.0001785
0.0001782
0.0001778
0.0001774
0.000177
0.0001765
0.0001761
0.0001756
0.0001751
0.0001746
0.0001742
0.0001737
0.0001732
0.0001727
0.0001722
0.0001718
0.0001713
0.0001708
0.0001702
0.0001697
0.0001692
0.0001686
0.0001681
0.0001675
0.0001669
0.0001663
0.0001657
0.0001651
0.0001644
0.0001638
0.0001631
0.0001623
0.0001616
0.0001608
0.00016
0.0001592
0.0001583
0.0001574
0.0001564
0.0001554
0.0001543
0.0001531
0.0001518
0.0001504
0.0001487
0.0001468
0.0001445
0.0001417
0.0001384
0.0001346
0.00013
0.0001248
0.0001188
0.000112
0.0001046
9.674e-05
8.916e-05
8.227e-05
7.609e-05
7.04e-05
6.508e-05
6.008e-05
5.542e-05
5.112e-05
4.721e-05
4.369e-05
4.058e-05
3.788e-05
3.556e-05
3.358e-05
3.189e-05
3.043e-05
2.914e-05
2.798e-05
2.69e-05
2.59e-05
2.495e-05
2.403e-05
2.315e-05
2.23e-05
2.148e-05
2.068e-05
1.991e-05
1.916e-05
1.843e-05
1.773e-05
1.704e-05
1.638e-05
1.574e-05
1.511e-05
1.45e-05
1.39e-05
1.332e-05
1.276e-05
1.22e-05
1.166e-05
1.113e-05
1.06e-05
1.009e-05
9.578e-06
9.077e-06
8.582e-06
8.093e-06
7.61e-06
7.131e-06
6.656e-06
6.184e-06
5.717e-06
5.252e-06
4.79e-06
4.331e-06
3.874e-06
3.418e-06
2.965e-06
2.512e-06
2.061e-06
1.611e-06
1.16e-06
7.101e-07
2.479e-07
0.0001738
0.000175
0.0001761
0.0001769
0.0001775
0.0001779
0.000178
0.000178
0.0001779
0.0001777
0.0001774
0.000177
0.0001766
0.0001762
0.0001758
0.0001754
0.0001749
0.0001745
0.000174
0.0001736
0.0001732
0.0001727
0.0001723
0.0001718
0.0001713
0.0001709
0.0001704
0.0001699
0.0001694
0.000169
0.0001685
0.0001679
0.0001674
0.0001669
0.0001663
0.0001658
0.0001652
0.0001646
0.000164
0.0001633
0.0001627
0.000162
0.0001613
0.0001606
0.0001599
0.0001591
0.0001583
0.0001575
0.0001566
0.0001556
0.0001546
0.0001534
0.0001521
0.0001505
0.0001485
0.000146
0.000143
0.0001393
0.0001348
0.0001294
0.000123
0.0001155
0.0001067
9.736e-05
8.821e-05
8.016e-05
7.32e-05
6.699e-05
6.133e-05
5.614e-05
5.139e-05
4.709e-05
4.324e-05
3.982e-05
3.685e-05
3.433e-05
3.223e-05
3.049e-05
2.905e-05
2.783e-05
2.676e-05
2.58e-05
2.492e-05
2.408e-05
2.327e-05
2.249e-05
2.172e-05
2.098e-05
2.025e-05
1.954e-05
1.885e-05
1.818e-05
1.752e-05
1.688e-05
1.626e-05
1.565e-05
1.506e-05
1.448e-05
1.392e-05
1.337e-05
1.283e-05
1.23e-05
1.178e-05
1.127e-05
1.077e-05
1.027e-05
9.784e-06
9.301e-06
8.823e-06
8.35e-06
7.881e-06
7.416e-06
6.955e-06
6.497e-06
6.041e-06
5.589e-06
5.138e-06
4.69e-06
4.243e-06
3.799e-06
3.356e-06
2.914e-06
2.474e-06
2.035e-06
1.597e-06
1.16e-06
7.241e-07
2.649e-07
0.0001731
0.0001742
0.0001753
0.0001761
0.0001767
0.0001771
0.0001774
0.0001774
0.0001774
0.0001772
0.000177
0.0001767
0.0001763
0.000176
0.0001756
0.0001752
0.0001748
0.0001744
0.000174
0.0001735
0.0001731
0.0001727
0.0001723
0.0001719
0.0001714
0.000171
0.0001706
0.0001702
0.0001697
0.0001693
0.0001688
0.0001684
0.0001679
0.0001674
0.000167
0.0001665
0.000166
0.0001655
0.0001649
0.0001644
0.0001638
0.0001633
0.0001627
0.0001621
0.0001615
0.0001609
0.0001603
0.0001597
0.000159
0.0001583
0.0001576
0.0001568
0.0001558
0.0001547
0.0001532
0.0001512
0.0001487
0.0001454
0.0001413
0.0001362
0.0001298
0.0001215
0.0001109
9.862e-05
8.635e-05
7.621e-05
6.819e-05
6.149e-05
5.576e-05
5.069e-05
4.612e-05
4.204e-05
3.841e-05
3.522e-05
3.25e-05
3.025e-05
2.845e-05
2.704e-05
2.591e-05
2.498e-05
2.418e-05
2.346e-05
2.278e-05
2.213e-05
2.148e-05
2.084e-05
2.02e-05
1.957e-05
1.895e-05
1.834e-05
1.774e-05
1.714e-05
1.656e-05
1.6e-05
1.544e-05
1.49e-05
1.436e-05
1.384e-05
1.332e-05
1.282e-05
1.232e-05
1.183e-05
1.135e-05
1.087e-05
1.04e-05
9.937e-06
9.476e-06
9.018e-06
8.565e-06
8.114e-06
7.666e-06
7.22e-06
6.777e-06
6.336e-06
5.896e-06
5.459e-06
5.023e-06
4.588e-06
4.155e-06
3.723e-06
3.292e-06
2.863e-06
2.435e-06
2.008e-06
1.583e-06
1.16e-06
7.379e-07
2.819e-07
0.0001725
0.0001736
0.0001746
0.0001754
0.0001761
0.0001765
0.0001768
0.0001769
0.0001769
0.0001768
0.0001766
0.0001764
0.0001761
0.0001758
0.0001754
0.000175
0.0001747
0.0001743
0.0001739
0.0001735
0.0001731
0.0001727
0.0001723
0.000172
0.0001716
0.0001712
0.0001708
0.0001704
0.00017
0.0001696
0.0001692
0.0001688
0.0001684
0.000168
0.0001676
0.0001672
0.0001668
0.0001663
0.0001659
0.0001655
0.000165
0.0001646
0.0001641
0.0001637
0.0001632
0.0001628
0.0001624
0.000162
0.0001616
0.0001612
0.0001608
0.0001604
0.0001599
0.0001593
0.0001584
0.0001572
0.0001554
0.000153
0.0001499
0.000146
0.000141
0.0001335
0.0001202
0.0001012
8.147e-05
6.79e-05
5.898e-05
5.251e-05
4.769e-05
4.334e-05
3.943e-05
3.594e-05
3.276e-05
2.995e-05
2.758e-05
2.571e-05
2.43e-05
2.328e-05
2.253e-05
2.195e-05
2.145e-05
2.1e-05
2.055e-05
2.008e-05
1.961e-05
1.912e-05
1.862e-05
1.811e-05
1.76e-05
1.709e-05
1.659e-05
1.608e-05
1.559e-05
1.509e-05
1.461e-05
1.413e-05
1.365e-05
1.318e-05
1.272e-05
1.226e-05
1.181e-05
1.136e-05
1.092e-05
1.048e-05
1.004e-05
9.602e-06
9.168e-06
8.737e-06
8.307e-06
7.878e-06
7.451e-06
7.025e-06
6.6e-06
6.176e-06
5.752e-06
5.33e-06
4.908e-06
4.487e-06
4.067e-06
3.647e-06
3.229e-06
2.812e-06
2.396e-06
1.982e-06
1.569e-06
1.159e-06
7.513e-07
2.986e-07
0.000172
0.000173
0.000174
0.0001749
0.0001755
0.000176
0.0001763
0.0001765
0.0001765
0.0001764
0.0001763
0.0001761
0.0001759
0.0001756
0.0001753
0.0001749
0.0001746
0.0001742