/*--------------------------------*- C++ -*----------------------------------*\
  =========                 |
  \\      /  F ield         | OpenFOAM: The Open Source CFD Toolbox
   \\    /   O peration     | Website:  https://openfoam.org
    \\  /    A nd           | Version:  7
     \\/     M anipulation  |
\*---------------------------------------------------------------------------*/
FoamFile
{
    version     2.0;
    format      ascii;
    class       surfaceScalarField;
    location    "2639.99947344587281";
    object      phi;
}
// * * * * * * * * * * * * * * * * * * * * * * * * * * * * * * * * * * * * * //

dimensions      [0 3 -1 0 0 0 0];

internalField   nonuniform List<scalar> 
8032
(
6.857e-10
2.518e-10
4.804e-10
2.053e-10
3.48e-10
1.324e-10
2.643e-10
8.372e-11
2.101e-10
5.417e-11
1.737e-10
3.639e-11
1.482e-10
2.553e-11
1.295e-10
1.869e-11
1.153e-10
1.418e-11
1.043e-10
1.108e-11
9.54e-11
8.856e-12
8.82e-11
7.201e-12
8.227e-11
5.932e-12
7.734e-11
4.934e-12
7.32e-11
4.133e-12
6.973e-11
3.477e-12
6.679e-11
2.933e-12
6.432e-11
2.473e-12
6.224e-11
2.081e-12
6.05e-11
1.741e-12
5.905e-11
1.444e-12
5.787e-11
1.18e-12
5.693e-11
9.438e-13
5.62e-11
7.289e-13
5.567e-11
5.312e-13
5.532e-11
3.468e-13
5.515e-11
1.725e-13
5.515e-11
5.484e-15
5.53e-11
-1.566e-13
5.562e-11
-3.158e-13
5.609e-11
-4.74e-13
5.672e-11
-6.329e-13
5.752e-11
-7.939e-13
5.848e-11
-9.582e-13
5.96e-11
-1.127e-12
6.09e-11
-1.301e-12
6.239e-11
-1.481e-12
6.405e-11
-1.667e-12
6.591e-11
-1.859e-12
6.797e-11
-2.057e-12
7.023e-11
-2.261e-12
7.27e-11
-2.469e-12
7.538e-11
-2.68e-12
7.827e-11
-2.891e-12
8.137e-11
-3.101e-12
8.467e-11
-3.306e-12
8.818e-11
-3.502e-12
9.186e-11
-3.684e-12
9.571e-11
-3.848e-12
9.969e-11
-3.987e-12
1.038e-10
-4.095e-12
1.08e-10
-4.167e-12
1.122e-10
-4.195e-12
1.163e-10
-4.172e-12
1.204e-10
-4.094e-12
1.244e-10
-3.954e-12
1.281e-10
-3.751e-12
1.316e-10
-3.481e-12
1.347e-10
-3.146e-12
1.375e-10
-2.749e-12
1.398e-10
-2.295e-12
1.416e-10
-1.794e-12
1.428e-10
-1.255e-12
1.435e-10
-6.925e-13
1.437e-10
-1.194e-13
1.432e-10
4.504e-13
1.422e-10
1.004e-12
1.407e-10
1.528e-12
1.387e-10
2.015e-12
1.362e-10
2.455e-12
1.334e-10
2.843e-12
1.302e-10
3.176e-12
1.267e-10
3.452e-12
1.231e-10
3.671e-12
1.192e-10
3.834e-12
1.153e-10
3.945e-12
1.113e-10
4.005e-12
1.073e-10
4.021e-12
1.033e-10
3.995e-12
9.933e-11
3.934e-12
9.549e-11
3.842e-12
9.176e-11
3.724e-12
8.818e-11
3.585e-12
8.475e-11
3.43e-12
8.149e-11
3.263e-12
7.84e-11
3.087e-12
7.549e-11
2.908e-12
7.276e-11
2.726e-12
7.022e-11
2.546e-12
6.785e-11
2.368e-12
6.565e-11
2.195e-12
6.363e-11
2.028e-12
6.176e-11
1.869e-12
6.004e-11
1.717e-12
5.847e-11
1.573e-12
5.703e-11
1.438e-12
5.572e-11
1.311e-12
5.453e-11
1.193e-12
5.344e-11
1.083e-12
5.246e-11
9.817e-13
5.157e-11
8.881e-13
5.077e-11
8.02e-13
5.005e-11
7.229e-13
4.94e-11
6.506e-13
4.881e-11
5.846e-13
4.829e-11
5.244e-13
4.782e-11
4.697e-13
4.74e-11
4.201e-13
4.702e-11
3.751e-13
4.669e-11
3.345e-13
4.639e-11
2.979e-13
4.613e-11
2.65e-13
4.589e-11
2.355e-13
4.568e-11
2.092e-13
4.55e-11
1.86e-13
4.533e-11
1.655e-13
4.518e-11
1.478e-13
4.505e-11
1.327e-13
4.493e-11
1.204e-13
4.482e-11
1.108e-13
4.472e-11
1.043e-13
4.461e-11
1.014e-13
4.451e-11
1.029e-13
4.44e-11
1.105e-13
4.427e-11
1.275e-13
4.411e-11
1.592e-13
4.39e-11
2.115e-13
2.749e-13
9.523e-10
2.37e-10
8.501e-10
3.075e-10
7.275e-10
2.55e-10
6.183e-10
1.93e-10
5.293e-10
1.431e-10
4.591e-10
1.066e-10
4.04e-10
8.067e-11
3.604e-10
6.231e-11
3.255e-10
4.91e-11
2.971e-10
3.939e-11
2.739e-10
3.208e-11
2.547e-10
2.644e-11
2.386e-10
2.201e-11
2.251e-10
1.846e-11
2.137e-10
1.556e-11
2.04e-10
1.316e-11
1.958e-10
1.114e-11
1.888e-10
9.432e-12
1.829e-10
7.96e-12
1.78e-10
6.68e-12
1.739e-10
5.553e-12
1.705e-10
4.551e-12
1.678e-10
3.649e-12
1.657e-10
2.827e-12
1.642e-10
2.069e-12
1.632e-10
1.361e-12
1.626e-10
6.915e-13
1.626e-10
4.993e-14
1.63e-10
-5.724e-13
1.639e-10
-1.183e-12
1.652e-10
-1.79e-12
1.67e-10
-2.397e-12
1.692e-10
-3.012e-12
1.719e-10
-3.638e-12
1.75e-10
-4.278e-12
1.786e-10
-4.937e-12
1.828e-10
-5.615e-12
1.874e-10
-6.315e-12
1.926e-10
-7.036e-12
1.983e-10
-7.777e-12
2.046e-10
-8.536e-12
2.114e-10
-9.308e-12
2.188e-10
-1.009e-11
2.268e-10
-1.087e-11
2.354e-10
-1.164e-11
2.444e-10
-1.239e-11
2.54e-10
-1.31e-11
2.641e-10
-1.375e-11
2.746e-10
-1.434e-11
2.854e-10
-1.483e-11
2.966e-10
-1.521e-11
3.078e-10
-1.545e-11
3.192e-10
-1.552e-11
3.304e-10
-1.542e-11
3.414e-10
-1.51e-11
3.52e-10
-1.457e-11
3.621e-10
-1.38e-11
3.714e-10
-1.279e-11
3.798e-10
-1.155e-11
3.871e-10
-1.009e-11
3.933e-10
-8.427e-12
3.981e-10
-6.592e-12
4.014e-10
-4.624e-12
4.033e-10
-2.57e-12
4.037e-10
-4.771e-13
4.025e-10
1.606e-12
3.999e-10
3.631e-12
3.959e-10
5.557e-12
3.905e-10
7.347e-12
3.84e-10
8.974e-12
3.764e-10
1.042e-11
3.68e-10
1.166e-11
3.587e-10
1.269e-11
3.489e-10
1.353e-11
3.385e-10
1.415e-11
3.279e-10
1.459e-11
3.171e-10
1.484e-11
3.062e-10
1.492e-11
2.953e-10
1.486e-11
2.846e-10
1.465e-11
2.741e-10
1.434e-11
2.639e-10
1.392e-11
2.54e-10
1.343e-11
2.446e-10
1.287e-11
2.356e-10
1.227e-11
2.271e-10
1.163e-11
2.19e-10
1.097e-11
2.114e-10
1.031e-11
2.043e-10
9.643e-12
1.977e-10
8.987e-12
1.915e-10
8.346e-12
1.858e-10
7.725e-12
1.806e-10
7.13e-12
1.757e-10
6.561e-12
1.713e-10
6.023e-12
1.672e-10
5.515e-12
1.635e-10
5.038e-12
1.601e-10
4.592e-12
1.57e-10
4.178e-12
1.542e-10
3.793e-12
1.516e-10
3.438e-12
1.493e-10
3.11e-12
1.472e-10
2.809e-12
1.454e-10
2.533e-12
1.437e-10
2.28e-12
1.421e-10
2.049e-12
1.408e-10
1.839e-12
1.395e-10
1.649e-12
1.384e-10
1.475e-12
1.374e-10
1.319e-12
1.366e-10
1.177e-12
1.358e-10
1.05e-12
1.351e-10
9.356e-13
1.345e-10
8.335e-13
1.339e-10
7.429e-13
1.334e-10
6.631e-13
1.33e-10
5.937e-13
1.326e-10
5.346e-13
1.322e-10
4.856e-13
1.319e-10
4.47e-13
1.315e-10
4.194e-13
1.312e-10
4.041e-13
1.309e-10
4.028e-13
1.306e-10
4.184e-13
1.303e-10
4.55e-13
1.299e-10
5.173e-13
1.296e-10
6.045e-13
6.868e-13
9.779e-10
1.966e-10
9.637e-10
3.217e-10
9.013e-10
3.175e-10
8.211e-10
2.731e-10
7.408e-10
2.235e-10
6.677e-10
1.797e-10
6.042e-10
1.442e-10
5.501e-10
1.164e-10
5.044e-10
9.478e-11
4.659e-10
7.794e-11
4.333e-10
6.466e-11
4.057e-10
5.407e-11
3.822e-10
4.551e-11
3.621e-10
3.85e-11
3.45e-10
3.268e-11
3.303e-10
2.78e-11
3.178e-10
2.366e-11
3.072e-10
2.01e-11
2.981e-10
1.702e-11
2.904e-10
1.433e-11
2.84e-10
1.194e-11
2.788e-10
9.808e-12
2.746e-10
7.88e-12
2.713e-10
6.117e-12
2.689e-10
4.487e-12
2.673e-10
2.961e-12
2.664e-10
1.515e-12
2.664e-10
1.285e-13
2.67e-10
-1.217e-12
2.684e-10
-2.538e-12
2.704e-10
-3.849e-12
2.732e-10
-5.162e-12
2.767e-10
-6.488e-12
2.809e-10
-7.836e-12
2.858e-10
-9.215e-12
2.915e-10
-1.063e-11
2.979e-10
-1.208e-11
3.052e-10
-1.358e-11
3.133e-10
-1.512e-11
3.222e-10
-1.67e-11
3.32e-10
-1.832e-11
3.426e-10
-1.995e-11
3.542e-10
-2.161e-11
3.666e-10
-2.325e-11
3.798e-10
-2.488e-11
3.939e-10
-2.645e-11
4.087e-10
-2.794e-11
4.243e-10
-2.931e-11
4.404e-10
-3.053e-11
4.572e-10
-3.155e-11
4.743e-10
-3.232e-11
4.916e-10
-3.28e-11
5.09e-10
-3.293e-11
5.263e-10
-3.267e-11
5.432e-10
-3.199e-11
5.594e-10
-3.083e-11
5.748e-10
-2.919e-11
5.891e-10
-2.705e-11
6.019e-10
-2.442e-11
6.132e-10
-2.133e-11
6.226e-10
-1.782e-11
6.299e-10
-1.395e-11
6.351e-10
-9.801e-12
6.38e-10
-5.473e-12
6.386e-10
-1.063e-12
6.369e-10
3.328e-12
6.329e-10
7.601e-12
6.268e-10
1.167e-11
6.187e-10
1.546e-11
6.088e-10
1.891e-11
5.972e-10
2.197e-11
5.842e-10
2.462e-11
5.701e-10
2.683e-11
5.55e-10
2.862e-11
5.392e-10
2.998e-11
5.228e-10
3.093e-11
5.062e-10
3.15e-11
4.894e-10
3.171e-11
4.726e-10
3.16e-11
4.561e-10
3.121e-11
4.399e-10
3.056e-11
4.241e-10
2.971e-11
4.088e-10
2.869e-11
3.942e-10
2.753e-11
3.801e-10
2.627e-11
3.668e-10
2.494e-11
3.543e-10
2.355e-11
3.424e-10
2.215e-11
3.313e-10
2.075e-11
3.209e-10
1.936e-11
3.113e-10
1.8e-11
3.023e-10
1.668e-11
2.941e-10
1.541e-11
2.864e-10
1.42e-11
2.794e-10
1.305e-11
2.729e-10
1.196e-11
2.67e-10
1.094e-11
2.616e-10
9.988e-12
2.567e-10
9.097e-12
2.522e-10
8.27e-12
2.482e-10
7.505e-12
2.445e-10
6.798e-12
2.411e-10
6.148e-12
2.381e-10
5.551e-12
2.354e-10
5.004e-12
2.329e-10
4.504e-12
2.307e-10
4.049e-12
2.288e-10
3.634e-12
2.27e-10
3.257e-12
2.254e-10
2.916e-12
2.239e-10
2.607e-12
2.227e-10
2.329e-12
2.215e-10
2.079e-12
2.205e-10
1.856e-12
2.196e-10
1.657e-12
2.188e-10
1.481e-12
2.18e-10
1.328e-12
2.174e-10
1.197e-12
2.168e-10
1.087e-12
2.162e-10
9.987e-13
2.157e-10
9.329e-13
2.152e-10
8.91e-13
2.147e-10
8.749e-13
2.143e-10
8.869e-13
2.138e-10
9.296e-13
2.133e-10
1.003e-12
2.128e-10
1.097e-12
1.173e-12
9.752e-10
1.589e-10
9.93e-10
3.039e-10
9.727e-10
3.378e-10
9.267e-10
3.191e-10
8.687e-10
2.814e-10
8.08e-10
2.404e-10
7.496e-10
2.025e-10
6.962e-10
1.698e-10
6.485e-10
1.425e-10
6.064e-10
1.2e-10
5.696e-10
1.014e-10
5.376e-10
8.609e-11
5.098e-10
7.333e-11
4.857e-10
6.263e-11
4.648e-10
5.359e-11
4.467e-10
4.588e-11
4.311e-10
3.926e-11
4.177e-10
3.351e-11
4.062e-10
2.849e-11
3.965e-10
2.405e-11
3.883e-10
2.01e-11
3.816e-10
1.654e-11
3.762e-10
1.331e-11
3.719e-10
1.035e-11
3.688e-10
7.594e-12
3.668e-10
5.01e-12
3.657e-10
2.556e-12
3.657e-10
1.978e-13
3.665e-10
-2.094e-12
3.683e-10
-4.345e-12
3.711e-10
-6.579e-12
3.747e-10
-8.816e-12
3.793e-10
-1.107e-11
3.849e-10
-1.337e-11
3.913e-10
-1.571e-11
3.988e-10
-1.812e-11
4.073e-10
-2.058e-11
4.169e-10
-2.312e-11
4.275e-10
-2.572e-11
4.392e-10
-2.839e-11
4.52e-10
-3.111e-11
4.659e-10
-3.387e-11
4.809e-10
-3.664e-11
4.971e-10
-3.94e-11
5.143e-10
-4.212e-11
5.326e-10
-4.474e-11
5.519e-10
-4.723e-11
5.721e-10
-4.951e-11
5.931e-10
-5.153e-11
6.147e-10
-5.321e-11
6.369e-10
-5.447e-11
6.593e-10
-5.524e-11
6.818e-10
-5.543e-11
7.041e-10
-5.497e-11
7.259e-10
-5.379e-11
7.469e-10
-5.183e-11
7.668e-10
-4.906e-11
7.852e-10
-4.545e-11
8.018e-10
-4.103e-11
8.163e-10
-3.584e-11
8.285e-10
-2.994e-11
8.38e-10
-2.345e-11
8.447e-10
-1.651e-11
8.484e-10
-9.251e-12
8.492e-10
-1.858e-12
8.471e-10
5.504e-12
8.42e-10
1.267e-11
8.342e-10
1.95e-11
8.237e-10
2.587e-11
8.11e-10
3.167e-11
7.961e-10
3.683e-11
7.794e-10
4.13e-11
7.612e-10
4.506e-11
7.417e-10
4.809e-11
7.213e-10
5.041e-11
7.002e-10
5.205e-11
6.786e-10
5.305e-11
6.569e-10
5.345e-11
6.352e-10
5.331e-11
6.137e-10
5.269e-11
5.926e-10
5.165e-11
5.721e-10
5.025e-11
5.522e-10
4.857e-11
5.331e-10
4.665e-11
5.148e-10
4.455e-11
4.974e-10
4.233e-11
4.81e-10
4.002e-11
4.654e-10
3.767e-11
4.509e-10
3.532e-11
4.372e-10
3.299e-11
4.245e-10
3.07e-11
4.127e-10
2.848e-11
4.018e-10
2.634e-11
3.917e-10
2.43e-11
3.824e-10
2.235e-11
3.738e-10
2.051e-11
3.66e-10
1.878e-11
3.588e-10
1.716e-11
3.523e-10
1.565e-11
3.463e-10
1.424e-11
3.409e-10
1.294e-11
3.36e-10
1.173e-11
3.315e-10
1.062e-11
3.274e-10
9.6e-12
3.238e-10
8.664e-12
3.205e-10
7.808e-12
3.175e-10
7.027e-12
3.148e-10
6.315e-12
3.124e-10
5.667e-12
3.102e-10
5.08e-12
3.083e-10
4.548e-12
3.066e-10
4.068e-12
3.05e-10
3.637e-12
3.036e-10
3.25e-12
3.024e-10
2.905e-12
3.012e-10
2.6e-12
3.002e-10
2.333e-12
2.993e-10
2.103e-12
2.985e-10
1.908e-12
2.978e-10
1.749e-12
2.971e-10
1.625e-12
2.964e-10
1.539e-12
2.958e-10
1.491e-12
2.952e-10
1.481e-12
2.946e-10
1.511e-12
2.94e-10
1.575e-12
2.935e-10
1.658e-12
1.722e-12
9.668e-10
1.296e-10
9.944e-10
2.763e-10
9.977e-10
3.344e-10
9.778e-10
3.391e-10
9.421e-10
3.171e-10
8.98e-10
2.845e-10
8.509e-10
2.495e-10
8.044e-10
2.164e-10
7.603e-10
1.866e-10
7.197e-10
1.606e-10
6.829e-10
1.382e-10
6.5e-10
1.191e-10
6.206e-10
1.026e-10
5.947e-10
8.854e-11
5.719e-10
7.64e-11
5.519e-10
6.587e-11
5.345e-10
5.668e-11
5.194e-10
4.862e-11
5.064e-10
4.15e-11
4.953e-10
3.515e-11
4.859e-10
2.946e-11
4.782e-10
2.43e-11
4.719e-10
1.958e-11
4.67e-10
1.523e-11
4.634e-10
1.117e-11
4.611e-10
7.35e-12
4.6e-10
3.708e-12
4.599e-10
2.009e-13
4.611e-10
-3.214e-12
4.633e-10
-6.572e-12
4.666e-10
-9.908e-12
4.711e-10
-1.325e-11
4.766e-10
-1.662e-11
4.833e-10
-2.005e-11
4.911e-10
-2.354e-11
5.001e-10
-2.713e-11
5.103e-10
-3.08e-11
5.218e-10
-3.457e-11
5.345e-10
-3.844e-11
5.485e-10
-4.24e-11
5.639e-10
-4.643e-11
5.805e-10
-5.052e-11
5.985e-10
-5.462e-11
6.178e-10
-5.87e-11
6.384e-10
-6.27e-11
6.602e-10
-6.657e-11
6.832e-10
-7.022e-11
7.072e-10
-7.358e-11
7.323e-10
-7.653e-11
7.58e-10
-7.899e-11
7.844e-10
-8.083e-11
8.111e-10
-8.194e-11
8.379e-10
-8.219e-11
8.644e-10
-8.149e-11
8.903e-10
-7.972e-11
9.153e-10
-7.68e-11
9.389e-10
-7.269e-11
9.608e-10
-6.735e-11
9.805e-10
-6.08e-11
9.978e-10
-5.311e-11
1.012e-09
-4.439e-11
1.024e-09
-3.479e-11
1.032e-09
-2.45e-11
1.036e-09
-1.377e-11
1.037e-09
-2.833e-12
1.035e-09
8.061e-12
1.029e-09
1.867e-11
1.019e-09
2.878e-11
1.007e-09
3.821e-11
9.918e-10
4.68e-11
9.742e-10
5.446e-11
9.544e-10
6.11e-11
9.327e-10
6.669e-11
9.096e-10
7.121e-11
8.853e-10
7.469e-11
8.602e-10
7.716e-11
8.346e-10
7.868e-11
8.087e-10
7.932e-11
7.829e-10
7.916e-11
7.573e-10
7.828e-11
7.321e-10
7.679e-11
7.076e-10
7.477e-11
6.839e-10
7.231e-11
6.61e-10
6.95e-11
6.392e-10
6.643e-11
6.183e-10
6.316e-11
5.986e-10
5.976e-11
5.8e-10
5.63e-11
5.625e-10
5.283e-11
5.461e-10
4.938e-11
5.308e-10
4.6e-11
5.165e-10
4.271e-11
5.033e-10
3.954e-11
4.911e-10
3.65e-11
4.799e-10
3.361e-11
4.695e-10
3.087e-11
4.6e-10
2.829e-11
4.513e-10
2.587e-11
4.434e-10
2.361e-11
4.361e-10
2.151e-11
4.295e-10
1.956e-11
4.234e-10
1.775e-11
4.18e-10
1.609e-11
4.13e-10
1.456e-11
4.085e-10
1.315e-11
4.045e-10
1.186e-11
4.008e-10
1.069e-11
3.975e-10
9.614e-12
3.946e-10
8.637e-12
3.919e-10
7.75e-12
3.895e-10
6.947e-12
3.873e-10
6.221e-12
3.854e-10
5.567e-12
3.837e-10
4.98e-12
3.821e-10
4.456e-12
3.807e-10
3.991e-12
3.795e-10
3.582e-12
3.784e-10
3.228e-12
3.773e-10
2.925e-12
3.764e-10
2.674e-12
3.756e-10
2.473e-12
3.748e-10
2.323e-12
3.74e-10
2.224e-12
3.734e-10
2.175e-12
3.727e-10
2.174e-12
3.721e-10
2.212e-12
3.714e-10
2.272e-12
2.32e-12
9.591e-10
1.08e-10
9.874e-10
2.48e-10
1.003e-09
3.193e-10
9.998e-10
3.418e-10
9.82e-10
3.35e-10
9.536e-10
3.128e-10
9.193e-10
2.839e-10
8.822e-10
2.534e-10
8.449e-10
2.239e-10
8.089e-10
1.966e-10
7.75e-10
1.721e-10
7.437e-10
1.504e-10
7.151e-10
1.312e-10
6.894e-10
1.143e-10
6.663e-10
9.945e-11
6.458e-10
8.636e-11
6.277e-10
7.476e-11
6.119e-10
6.446e-11
5.982e-10
5.524e-11
5.864e-10
4.696e-11
5.764e-10
3.946e-11
5.68e-10
3.261e-11
5.613e-10
2.631e-11
5.561e-10
2.047e-11
5.522e-10
1.499e-11
5.498e-10
9.813e-12
5.486e-10
4.86e-12
5.488e-10
7.626e-14
5.501e-10
-4.591e-12
5.528e-10
-9.19e-12
5.566e-10
-1.376e-11
5.617e-10
-1.835e-11
5.681e-10
-2.298e-11
5.757e-10
-2.768e-11
5.846e-10
-3.247e-11
5.949e-10
-3.739e-11
6.065e-10
-4.242e-11
6.195e-10
-4.759e-11
6.34e-10
-5.289e-11
6.499e-10
-5.83e-11
6.672e-10
-6.381e-11
6.861e-10
-6.938e-11
7.065e-10
-7.498e-11
7.283e-10
-8.054e-11
7.516e-10
-8.6e-11
7.763e-10
-9.126e-11
8.023e-10
-9.623e-11
8.295e-10
-1.008e-10
8.578e-10
-1.048e-10
8.87e-10
-1.081e-10
9.168e-10
-1.106e-10
9.47e-10
-1.121e-10
9.773e-10
-1.125e-10
1.007e-09
-1.115e-10
1.037e-09
-1.091e-10
1.065e-09
-1.051e-10
1.092e-09
-9.949e-11
1.117e-09
-9.22e-11
1.139e-09
-8.325e-11
1.159e-09
-7.274e-11
1.175e-09
-6.081e-11
1.188e-09
-4.768e-11
1.197e-09
-3.361e-11
1.202e-09
-1.892e-11
1.203e-09
-3.954e-12
1.201e-09
1.095e-11
1.194e-09
2.547e-11
1.183e-09
3.93e-11
1.169e-09
5.219e-11
1.152e-09
6.395e-11
1.132e-09
7.442e-11
1.11e-09
8.351e-11
1.085e-09
9.117e-11
1.059e-09
9.737e-11
1.032e-09
1.022e-10
1.003e-09
1.056e-10
9.742e-10
1.077e-10
9.449e-10
1.086e-10
9.157e-10
1.084e-10
8.867e-10
1.073e-10
8.582e-10
1.053e-10
8.304e-10
1.025e-10
8.035e-10
9.921e-11
7.776e-10
9.541e-11
7.528e-10
9.124e-11
7.292e-10
8.68e-11
7.067e-10
8.218e-11
6.856e-10
7.747e-11
6.657e-10
7.274e-11
6.47e-10
6.804e-11
6.296e-10
6.342e-11
6.134e-10
5.893e-11
5.983e-10
5.459e-11
5.844e-10
5.043e-11
5.715e-10
4.647e-11
5.596e-10
4.272e-11
5.488e-10
3.918e-11
5.388e-10
3.586e-11
5.296e-10
3.275e-11
5.213e-10
2.986e-11
5.137e-10
2.717e-11
5.067e-10
2.469e-11
5.004e-10
2.239e-11
4.947e-10
2.028e-11
4.895e-10
1.833e-11
4.848e-10
1.655e-11
4.806e-10
1.493e-11
4.768e-10
1.344e-11
4.733e-10
1.209e-11
4.702e-10
1.086e-11
4.674e-10
9.74e-12
4.649e-10
8.73e-12
4.626e-10
7.819e-12
4.606e-10
7.001e-12
4.588e-10
6.269e-12
4.572e-10
5.618e-12
4.557e-10
5.043e-12
4.544e-10
4.542e-12
4.532e-10
4.11e-12
4.522e-10
3.747e-12
4.512e-10
3.45e-12
4.503e-10
3.219e-12
4.495e-10
3.052e-12
4.487e-10
2.946e-12
4.48e-10
2.897e-12
4.473e-10
2.897e-12
4.466e-10
2.926e-12
2.955e-12
9.536e-10
9.189e-11
9.794e-10
2.222e-10
9.993e-10
2.994e-10
1.007e-09
3.341e-10
1.002e-09
3.399e-10
9.868e-10
3.281e-10
9.642e-10
3.066e-10
9.37e-10
2.805e-10
9.077e-10
2.532e-10
8.778e-10
2.265e-10
8.485e-10
2.014e-10
8.206e-10
1.783e-10
7.944e-10
1.573e-10
7.703e-10
1.384e-10
7.483e-10
1.214e-10
7.284e-10
1.062e-10
7.107e-10
9.249e-11
6.95e-10
8.014e-11
6.813e-10
6.898e-11
6.694e-10
5.883e-11
6.593e-10
4.957e-11
6.509e-10
4.104e-11
6.44e-10
3.315e-11
6.387e-10
2.578e-11
6.349e-10
1.884e-11
6.325e-10
1.224e-11
6.314e-10
5.902e-12
6.317e-10
-2.353e-13
6.334e-10
-6.239e-12
6.364e-10
-1.217e-11
6.407e-10
-1.807e-11
6.463e-10
-2.399e-11
6.533e-10
-2.998e-11
6.617e-10
-3.606e-11
6.715e-10
-4.227e-11
6.827e-10
-4.862e-11
6.954e-10
-5.513e-11
7.097e-10
-6.182e-11
7.254e-10
-6.866e-11
7.428e-10
-7.565e-11
7.617e-10
-8.277e-11
7.823e-10
-8.996e-11
8.045e-10
-9.719e-11
8.283e-10
-1.044e-10
8.537e-10
-1.114e-10
8.807e-10
-1.182e-10
9.09e-10
-1.246e-10
9.387e-10
-1.305e-10
9.696e-10
-1.357e-10
1.001e-09
-1.4e-10
1.034e-09
-1.432e-10
1.067e-09
-1.452e-10
1.1e-09
-1.457e-10
1.133e-09
-1.444e-10
1.165e-09
-1.413e-10
1.197e-09
-1.362e-10
1.226e-09
-1.29e-10
1.253e-09
-1.196e-10
1.278e-09
-1.08e-10
1.3e-09
-9.439e-11
1.318e-09
-7.894e-11
1.332e-09
-6.191e-11
1.342e-09
-4.366e-11
1.348e-09
-2.46e-11
1.349e-09
-5.181e-12
1.346e-09
1.415e-11
1.338e-09
3.297e-11
1.327e-09
5.089e-11
1.311e-09
6.759e-11
1.293e-09
8.28e-11
1.271e-09
9.636e-11
1.246e-09
1.081e-10
1.219e-09
1.18e-10
1.19e-09
1.261e-10
1.16e-09
1.323e-10
1.129e-09
1.367e-10
1.098e-09
1.394e-10
1.066e-09
1.406e-10
1.034e-09
1.404e-10
1.002e-09
1.39e-10
9.707e-10
1.364e-10
9.403e-10
1.329e-10
9.109e-10
1.286e-10
8.826e-10
1.237e-10
8.555e-10
1.184e-10
8.296e-10
1.127e-10
8.051e-10
1.067e-10
7.819e-10
1.006e-10
7.601e-10
9.453e-11
7.397e-10
8.847e-11
7.206e-10
8.251e-11
7.029e-10
7.67e-11
6.863e-10
7.11e-11
6.711e-10
6.572e-11
6.569e-10
6.06e-11
6.439e-10
5.574e-11
6.319e-10
5.116e-11
6.209e-10
4.685e-11
6.109e-10
4.282e-11
6.017e-10
3.907e-11
5.932e-10
3.558e-11
5.856e-10
3.235e-11
5.786e-10
2.936e-11
5.723e-10
2.661e-11
5.665e-10
2.408e-11
5.613e-10
2.176e-11
5.566e-10
1.963e-11
5.524e-10
1.769e-11
5.485e-10
1.592e-11
5.451e-10
1.431e-11
5.42e-10
1.285e-11
5.392e-10
1.153e-11
5.366e-10
1.034e-11
5.344e-10
9.26e-12
5.324e-10
8.296e-12
5.305e-10
7.437e-12
5.289e-10
6.676e-12
5.274e-10
6.009e-12
5.261e-10
5.431e-12
5.249e-10
4.939e-12
5.238e-10
4.53e-12
5.229e-10
4.201e-12
5.22e-10
3.95e-12
5.211e-10
3.774e-12
5.204e-10
3.665e-12
5.197e-10
3.614e-12
5.19e-10
3.606e-12
3.615e-12
9.497e-10
7.965e-11
9.723e-10
1.996e-10
9.936e-10
2.781e-10
1.007e-09
3.206e-10
1.011e-09
3.362e-10
1.006e-09
3.334e-10
9.929e-10
3.192e-10
9.749e-10
2.985e-10
9.535e-10
2.746e-10
9.303e-10
2.498e-10
9.064e-10
2.253e-10
8.828e-10
2.019e-10
8.601e-10
1.801e-10
8.386e-10
1.599e-10
8.186e-10
1.414e-10
8.003e-10
1.245e-10
7.838e-10
1.091e-10
7.689e-10
9.497e-11
7.559e-10
8.207e-11
7.444e-10
7.024e-11
7.347e-10
5.932e-11
7.265e-10
4.921e-11
7.199e-10
3.977e-11
7.148e-10
3.09e-11
7.111e-10
2.249e-11
7.089e-10
1.447e-11
7.081e-10
6.736e-12
7.086e-10
-7.842e-13
7.105e-10
-8.162e-12
7.138e-10
-1.546e-11
7.185e-10
-2.275e-11
7.246e-10
-3.007e-11
7.321e-10
-3.747e-11
7.41e-10
-4.5e-11
7.514e-10
-5.268e-11
7.634e-10
-6.055e-11
7.768e-10
-6.862e-11
7.919e-10
-7.689e-11
8.086e-10
-8.537e-11
8.27e-10
-9.403e-11
8.471e-10
-1.028e-10
8.689e-10
-1.118e-10
8.924e-10
-1.207e-10
9.177e-10
-1.296e-10
9.446e-10
-1.383e-10
9.731e-10
-1.468e-10
1.003e-09
-1.547e-10
1.035e-09
-1.62e-10
1.068e-09
-1.685e-10
1.102e-09
-1.739e-10
1.136e-09
-1.78e-10
1.172e-09
-1.805e-10
1.207e-09
-1.811e-10
1.242e-09
-1.797e-10
1.277e-09
-1.759e-10
1.31e-09
-1.696e-10
1.342e-09
-1.607e-10
1.372e-09
-1.491e-10
1.398e-09
-1.347e-10
1.422e-09
-1.178e-10
1.441e-09
-9.855e-11
1.457e-09
-7.731e-11
1.468e-09
-5.452e-11
1.474e-09
-3.072e-11
1.475e-09
-6.468e-12
1.471e-09
1.766e-11
1.463e-09
4.113e-11
1.451e-09
6.345e-11
1.434e-09
8.422e-11
1.414e-09
1.031e-10
1.39e-09
1.2e-10
1.364e-09
1.346e-10
1.335e-09
1.468e-10
1.304e-09
1.568e-10
1.272e-09
1.645e-10
1.239e-09
1.699e-10
1.205e-09
1.733e-10
1.171e-09
1.748e-10
1.136e-09
1.745e-10
1.103e-09
1.727e-10
1.07e-09
1.695e-10
1.037e-09
1.652e-10
1.006e-09
1.599e-10
9.758e-10
1.539e-10
9.47e-10
1.472e-10
9.195e-10
1.401e-10
8.934e-10
1.328e-10
8.688e-10
1.252e-10
8.457e-10
1.177e-10
8.24e-10
1.102e-10
8.037e-10
1.028e-10
7.848e-10
9.56e-11
7.672e-10
8.865e-11
7.51e-10
8.199e-11
7.359e-10
7.563e-11
7.221e-10
6.961e-11
7.093e-10
6.392e-11
6.976e-10
5.857e-11
6.869e-10
5.357e-11
6.77e-10
4.89e-11
6.681e-10
4.456e-11
6.599e-10
4.054e-11
6.524e-10
3.682e-11
6.456e-10
3.339e-11
6.395e-10
3.023e-11
6.339e-10
2.734e-11
6.288e-10
2.469e-11
6.243e-10
2.226e-11
6.201e-10
2.005e-11
6.164e-10
1.804e-11
6.131e-10
1.621e-11
6.1e-10
1.455e-11
6.073e-10
1.305e-11
6.049e-10
1.17e-11
6.027e-10
1.049e-11
6.007e-10
9.402e-12
5.99e-10
8.44e-12
5.974e-10
7.592e-12
5.96e-10
6.853e-12
5.947e-10
6.219e-12
5.935e-10
5.684e-12
5.925e-10
5.245e-12
5.915e-10
4.898e-12
5.907e-10
4.638e-12
5.899e-10
4.46e-12
5.892e-10
4.352e-12
5.885e-10
4.301e-12
4.288e-12
9.471e-10
7.002e-11
9.667e-10
1.8e-10
9.875e-10
2.573e-10
1.004e-09
3.041e-10
1.013e-09
3.267e-10
1.015e-09
3.315e-10
1.011e-09
3.24e-10
1e-09
3.086e-10
9.864e-10
2.887e-10
9.697e-10
2.665e-10
9.515e-10
2.435e-10
9.326e-10
2.207e-10
9.139e-10
1.988e-10
8.957e-10
1.781e-10
8.784e-10
1.587e-10
8.623e-10
1.406e-10
8.475e-10
1.239e-10
8.341e-10
1.084e-10
8.221e-10
9.403e-11
8.116e-10
8.073e-11
8.026e-10
6.835e-11
7.95e-10
5.677e-11
7.889e-10
4.589e-11
7.842e-10
3.56e-11
7.809e-10
2.58e-11
7.79e-10
1.639e-11
7.784e-10
7.282e-12
7.793e-10
-1.606e-12
7.815e-10
-1.035e-11
7.85e-10
-1.903e-11
7.9e-10
-2.771e-11
7.964e-10
-3.644e-11
8.042e-10
-4.528e-11
8.135e-10
-5.428e-11
8.243e-10
-6.348e-11
8.366e-10
-7.29e-11
8.506e-10
-8.256e-11
8.661e-10
-9.248e-11
8.834e-10
-1.026e-10
9.024e-10
-1.13e-10
9.232e-10
-1.236e-10
9.457e-10
-1.343e-10
9.7e-10
-1.45e-10
9.961e-10
-1.557e-10
1.024e-09
-1.662e-10
1.054e-09
-1.764e-10
1.085e-09
-1.86e-10
1.118e-09
-1.948e-10
1.152e-09
-2.027e-10
1.187e-09
-2.093e-10
1.224e-09
-2.143e-10
1.26e-09
-2.174e-10
1.298e-09
-2.183e-10
1.335e-09
-2.168e-10
1.371e-09
-2.124e-10
1.407e-09
-2.05e-10
1.44e-09
-1.943e-10
1.471e-09
-1.804e-10
1.5e-09
-1.631e-10
1.525e-09
-1.427e-10
1.546e-09
-1.194e-10
1.562e-09
-9.37e-11
1.574e-09
-6.606e-11
1.58e-09
-3.718e-11
1.581e-09
-7.76e-12
1.578e-09
2.149e-11
1.569e-09
4.99e-11
1.555e-09
7.688e-11
1.538e-09
1.019e-10
1.516e-09
1.247e-10
1.491e-09
1.45e-10
1.463e-09
1.625e-10
1.433e-09
1.772e-10
1.4e-09
1.892e-10
1.366e-09
1.983e-10
1.331e-09
2.048e-10
1.296e-09
2.089e-10
1.26e-09
2.106e-10
1.225e-09
2.102e-10
1.189e-09
2.08e-10
1.155e-09
2.041e-10
1.121e-09
1.989e-10
1.088e-09
1.925e-10
1.057e-09
1.852e-10
1.027e-09
1.772e-10
9.987e-10
1.686e-10
9.716e-10
1.598e-10
9.461e-10
1.508e-10
9.221e-10
1.417e-10
8.996e-10
1.327e-10
8.786e-10
1.238e-10
8.59e-10
1.152e-10
8.408e-10
1.068e-10
8.24e-10
9.884e-11
8.084e-10
9.122e-11
7.94e-10
8.398e-11
7.808e-10
7.715e-11
7.687e-10
7.073e-11
7.575e-10
6.471e-11
7.473e-10
5.91e-11
7.38e-10
5.389e-11
7.295e-10
4.905e-11
7.217e-10
4.457e-11
7.146e-10
4.045e-11
7.082e-10
3.665e-11
7.024e-10
3.316e-11
6.971e-10
2.996e-11
6.924e-10
2.703e-11
6.881e-10
2.436e-11
6.842e-10
2.193e-11
6.807e-10
1.972e-11
6.775e-10
1.771e-11
6.746e-10
1.589e-11
6.721e-10
1.426e-11
6.698e-10
1.278e-11
6.677e-10
1.146e-11
6.659e-10
1.029e-11
6.642e-10
9.25e-12
6.627e-10
8.34e-12
6.614e-10
7.553e-12
6.602e-10
6.882e-12
6.591e-10
6.324e-12
6.582e-10
5.872e-12
6.573e-10
5.521e-12
6.565e-10
5.265e-12
6.557e-10
5.094e-12
6.55e-10
4.998e-12
4.962e-12
9.453e-10
6.223e-11
9.623e-10
1.631e-10
9.82e-10
2.375e-10
9.998e-10
2.864e-10
1.013e-09
3.138e-10
1.02e-09
3.244e-10
1.021e-09
3.227e-10
1.017e-09
3.123e-10
1.01e-09
2.964e-10
9.99e-10
2.772e-10
9.862e-10
2.563e-10
9.722e-10
2.348e-10
9.576e-10
2.134e-10
9.43e-10
1.927e-10
9.288e-10
1.729e-10
9.152e-10
1.541e-10
9.026e-10
1.365e-10
8.91e-10
1.2e-10
8.805e-10
1.045e-10
8.713e-10
8.997e-11
8.633e-10
7.633e-11
8.566e-10
6.348e-11
8.512e-10
5.131e-11
8.471e-10
3.972e-11
8.442e-10
2.861e-11
8.427e-10
1.79e-11
8.425e-10
7.485e-12
8.436e-10
-2.719e-12
8.461e-10
-1.279e-11
8.499e-10
-2.282e-11
8.55e-10
-3.286e-11
8.616e-10
-4.299e-11
8.695e-10
-5.326e-11
8.79e-10
-6.372e-11
8.899e-10
-7.442e-11
9.024e-10
-8.54e-11
9.165e-10
-9.666e-11
9.322e-10
-1.082e-10
9.497e-10
-1.201e-10
9.689e-10
-1.322e-10
9.898e-10
-1.446e-10
1.013e-09
-1.571e-10
1.037e-09
-1.697e-10
1.064e-09
-1.822e-10
1.092e-09
-1.945e-10
1.122e-09
-2.065e-10
1.154e-09
-2.178e-10
1.187e-09
-2.283e-10
1.222e-09
-2.376e-10
1.259e-09
-2.455e-10
1.296e-09
-2.516e-10
1.334e-09
-2.555e-10
1.372e-09
-2.568e-10
1.411e-09
-2.552e-10
1.449e-09
-2.502e-10
1.485e-09
-2.417e-10
1.52e-09
-2.294e-10
1.553e-09
-2.132e-10
1.583e-09
-1.929e-10
1.609e-09
-1.689e-10
1.631e-09
-1.414e-10
1.648e-09
-1.109e-10
1.661e-09
-7.817e-11
1.667e-09
-4.39e-11
1.669e-09
-8.998e-12
1.664e-09
2.566e-11
1.655e-09
5.926e-11
1.641e-09
9.111e-11
1.622e-09
1.206e-10
1.599e-09
1.474e-10
1.573e-09
1.712e-10
1.544e-09
1.917e-10
1.512e-09
2.089e-10
1.479e-09
2.227e-10
1.444e-09
2.334e-10
1.408e-09
2.409e-10
1.371e-09
2.455e-10
1.334e-09
2.474e-10
1.298e-09
2.469e-10
1.262e-09
2.441e-10
1.226e-09
2.395e-10
1.192e-09
2.333e-10
1.159e-09
2.257e-10
1.127e-09
2.171e-10
1.096e-09
2.077e-10
1.067e-09
1.977e-10
1.04e-09
1.873e-10
1.014e-09
1.767e-10
9.894e-10
1.66e-10
9.666e-10
1.555e-10
9.453e-10
1.451e-10
9.255e-10
1.35e-10
9.07e-10
1.253e-10
8.9e-10
1.159e-10
8.742e-10
1.07e-10
8.597e-10
9.853e-11
8.463e-10
9.054e-11
8.34e-10
8.303e-11
8.227e-10
7.6e-11
8.123e-10
6.944e-11
8.029e-10
6.334e-11
7.943e-10
5.768e-11
7.864e-10
5.244e-11
7.792e-10
4.761e-11
7.727e-10
4.316e-11
7.668e-10
3.907e-11
7.615e-10
3.532e-11
7.566e-10
3.189e-11
7.522e-10
2.875e-11
7.483e-10
2.589e-11
7.447e-10
2.33e-11
7.415e-10
2.093e-11
7.385e-10
1.88e-11
7.359e-10
1.687e-11
7.336e-10
1.513e-11
7.315e-10
1.357e-11
7.296e-10
1.217e-11
7.279e-10
1.094e-11
7.264e-10
9.854e-12
7.25e-10
8.908e-12
7.238e-10
8.096e-12
7.227e-10
7.412e-12
7.218e-10
6.849e-12
7.209e-10
6.402e-12
7.201e-10
6.064e-12
7.194e-10
5.827e-12
7.187e-10
5.684e-12
5.624e-12
9.44e-10
5.575e-11
9.589e-10
1.482e-10
9.773e-10
2.191e-10
9.953e-10
2.684e-10
1.01e-09
2.988e-10
1.021e-09
3.138e-10
1.027e-09
3.167e-10
1.028e-09
3.109e-10
1.026e-09
2.988e-10
1.02e-09
2.827e-10
1.013e-09
2.641e-10
1.003e-09
2.442e-10
9.928e-10
2.238e-10
9.818e-10
2.036e-10
9.708e-10
1.839e-10
9.601e-10
1.649e-10
9.498e-10
1.468e-10
9.403e-10
1.295e-10
9.316e-10
1.132e-10
9.238e-10
9.773e-11
9.171e-10
8.307e-11
9.114e-10
6.914e-11
9.069e-10
5.585e-11
9.035e-10
4.311e-11
9.012e-10
3.084e-11
9.002e-10
1.894e-11
9.004e-10
7.313e-12
9.018e-10
-4.12e-12
9.044e-10
-1.545e-11
9.084e-10
-2.675e-11
9.136e-10
-3.809e-11
9.202e-10
-4.956e-11
9.281e-10
-6.121e-11
9.375e-10
-7.31e-11
9.483e-10
-8.527e-11
9.607e-10
-9.776e-11
9.746e-10
-1.106e-10
9.902e-10
-1.238e-10
1.007e-09
-1.373e-10
1.026e-09
-1.512e-10
1.047e-09
-1.653e-10
1.07e-09
-1.796e-10
1.094e-09
-1.941e-10
1.12e-09
-2.085e-10
1.149e-09
-2.227e-10
1.179e-09
-2.365e-10
1.21e-09
-2.496e-10
1.244e-09
-2.618e-10
1.279e-09
-2.727e-10
1.315e-09
-2.82e-10
1.353e-09
-2.893e-10
1.392e-09
-2.94e-10
1.431e-09
-2.959e-10
1.47e-09
-2.944e-10
1.509e-09
-2.891e-10
1.547e-09
-2.796e-10
1.583e-09
-2.657e-10
1.617e-09
-2.471e-10
1.648e-09
-2.239e-10
1.675e-09
-1.962e-10
1.698e-09
-1.643e-10
1.716e-09
-1.289e-10
1.729e-09
-9.072e-11
1.736e-09
-5.077e-11
1.737e-09
-1.011e-11
1.732e-09
3.021e-11
1.722e-09
6.922e-11
1.707e-09
1.061e-10
1.688e-09
1.402e-10
1.664e-09
1.71e-10
1.637e-09
1.982e-10
1.607e-09
2.217e-10
1.574e-09
2.413e-10
1.54e-09
2.571e-10
1.504e-09
2.692e-10
1.468e-09
2.776e-10
1.43e-09
2.827e-10
1.393e-09
2.847e-10
1.356e-09
2.839e-10
1.32e-09
2.806e-10
1.284e-09
2.751e-10
1.249e-09
2.678e-10
1.216e-09
2.59e-10
1.184e-09
2.49e-10
1.154e-09
2.381e-10
1.125e-09
2.266e-10
1.097e-09
2.146e-10
1.072e-09
2.024e-10
1.047e-09
1.902e-10
1.025e-09
1.781e-10
1.004e-09
1.662e-10
9.84e-10
1.546e-10
9.658e-10
1.435e-10
9.489e-10
1.328e-10
9.333e-10
1.226e-10
9.189e-10
1.129e-10
9.057e-10
1.038e-10
8.935e-10
9.52e-11
8.824e-10
8.717e-11
8.721e-10
7.967e-11
8.628e-10
7.269e-11
8.543e-10
6.621e-11
8.465e-10
6.023e-11
8.394e-10
5.47e-11
8.329e-10
4.96e-11
8.271e-10
4.492e-11
8.218e-10
4.063e-11
8.17e-10
3.67e-11
8.126e-10
3.311e-11
8.087e-10
2.983e-11
8.051e-10
2.685e-11
8.019e-10
2.414e-11
7.99e-10
2.168e-11
7.964e-10
1.946e-11
7.941e-10
1.746e-11
7.92e-10
1.566e-11
7.901e-10
1.405e-11
7.884e-10
1.262e-11
7.869e-10
1.136e-11
7.856e-10
1.025e-11
7.844e-10
9.296e-12
7.833e-10
8.483e-12
7.824e-10
7.807e-12
7.815e-10
7.261e-12
7.807e-10
6.84e-12
7.8e-10
6.536e-12
7.794e-10
6.345e-12
6.261e-12
9.43e-10
5.023e-11
9.562e-10
1.35e-10
9.733e-10
2.019e-10
9.911e-10
2.506e-10
1.007e-09
2.827e-10
1.02e-09
3.008e-10
1.029e-09
3.074e-10
1.035e-09
3.054e-10
1.037e-09
2.968e-10
1.036e-09
2.836e-10
1.033e-09
2.675e-10
1.027e-09
2.494e-10
1.021e-09
2.304e-10
1.014e-09
2.11e-10
1.006e-09
1.917e-10
9.978e-10
1.728e-10
9.9e-10
1.545e-10
9.826e-10
1.369e-10
9.758e-10
1.2e-10
9.697e-10
1.039e-10
9.643e-10
8.843e-11
9.598e-10
7.364e-11
9.563e-10
5.942e-11
9.537e-10
4.571e-11
9.521e-10
3.242e-11
9.515e-10
1.947e-11
9.521e-10
6.761e-12
9.538e-10
-5.787e-12
9.566e-10
-1.826e-11
9.606e-10
-3.074e-11
9.658e-10
-4.33e-11
9.722e-10
-5.603e-11
9.8e-10
-6.898e-11
9.891e-10
-8.221e-11
9.996e-10
-9.578e-11
1.012e-09
-1.097e-10
1.025e-09
-1.241e-10
1.04e-09
-1.388e-10
1.057e-09
-1.54e-10
1.075e-09
-1.695e-10
1.095e-09
-1.854e-10
1.117e-09
-2.015e-10
1.141e-09
-2.178e-10
1.166e-09
-2.341e-10
1.194e-09
-2.501e-10
1.223e-09
-2.658e-10
1.254e-09
-2.808e-10
1.287e-09
-2.948e-10
1.322e-09
-3.074e-10
1.358e-09
-3.182e-10
1.396e-09
-3.267e-10
1.434e-09
-3.326e-10
1.473e-09
-3.351e-10
1.513e-09
-3.339e-10
1.552e-09
-3.284e-10
1.591e-09
-3.181e-10