/*--------------------------------*- C++ -*----------------------------------*\
  =========                 |
  \\      /  F ield         | OpenFOAM: The Open Source CFD Toolbox
   \\    /   O peration     | Website:  https://openfoam.org
    \\  /    A nd           | Version:  7
     \\/     M anipulation  |
\*---------------------------------------------------------------------------*/
FoamFile
{
    version     2.0;
    format      ascii;
    class       volVectorField;
    location    "2639.99947344587281";
    object      U;
}
// * * * * * * * * * * * * * * * * * * * * * * * * * * * * * * * * * * * * * //

dimensions      [0 1 -1 0 0 0 0];

internalField   nonuniform List<vector> 
4096
(
(0.001039 0.0001611 0)
(0.0007463 0.0001314 0)
(0.0005302 8.473e-05 0)
(0.0003919 5.358e-05 0)
(0.0003036 3.467e-05 0)
(0.0002457 2.329e-05 0)
(0.0002061 1.634e-05 0)
(0.0001778 1.196e-05 0)
(0.0001567 9.077e-06 0)
(0.0001405 7.092e-06 0)
(0.0001278 5.668e-06 0)
(0.0001175 4.609e-06 0)
(0.0001091 3.796e-06 0)
(0.0001021 3.158e-06 0)
(9.635e-05 2.645e-06 0)
(9.147e-05 2.226e-06 0)
(8.737e-05 1.877e-06 0)
(8.391e-05 1.583e-06 0)
(8.1e-05 1.332e-06 0)
(7.855e-05 1.114e-06 0)
(7.651e-05 9.24e-07 0)
(7.483e-05 7.554e-07 0)
(7.348e-05 6.04e-07 0)
(7.24e-05 4.665e-07 0)
(7.16e-05 3.4e-07 0)
(7.104e-05 2.219e-07 0)
(7.07e-05 1.104e-07 0)
(7.059e-05 3.51e-09 0)
(7.069e-05 -1.002e-07 0)
(7.099e-05 -2.021e-07 0)
(7.149e-05 -3.034e-07 0)
(7.22e-05 -4.051e-07 0)
(7.312e-05 -5.081e-07 0)
(7.424e-05 -6.133e-07 0)
(7.557e-05 -7.213e-07 0)
(7.713e-05 -8.326e-07 0)
(7.891e-05 -9.476e-07 0)
(8.092e-05 -1.067e-06 0)
(8.318e-05 -1.19e-06 0)
(8.568e-05 -1.317e-06 0)
(8.845e-05 -1.447e-06 0)
(9.147e-05 -1.58e-06 0)
(9.477e-05 -1.715e-06 0)
(9.833e-05 -1.85e-06 0)
(0.0001022 -1.985e-06 0)
(0.0001063 -2.116e-06 0)
(0.0001106 -2.241e-06 0)
(0.0001152 -2.358e-06 0)
(0.00012 -2.462e-06 0)
(0.0001251 -2.552e-06 0)
(0.0001302 -2.621e-06 0)
(0.0001355 -2.667e-06 0)
(0.0001409 -2.685e-06 0)
(0.0001462 -2.67e-06 0)
(0.0001515 -2.62e-06 0)
(0.0001567 -2.531e-06 0)
(0.0001616 -2.4e-06 0)
(0.0001662 -2.228e-06 0)
(0.0001705 -2.013e-06 0)
(0.0001742 -1.759e-06 0)
(0.0001775 -1.469e-06 0)
(0.0001801 -1.148e-06 0)
(0.000182 -8.033e-07 0)
(0.0001833 -4.432e-07 0)
(0.0001838 -7.64e-08 0)
(0.0001836 2.882e-07 0)
(0.0001827 6.423e-07 0)
(0.000181 9.781e-07 0)
(0.0001788 1.289e-06 0)
(0.0001759 1.571e-06 0)
(0.0001725 1.819e-06 0)
(0.0001687 2.033e-06 0)
(0.0001644 2.209e-06 0)
(0.0001599 2.349e-06 0)
(0.0001551 2.454e-06 0)
(0.0001501 2.525e-06 0)
(0.000145 2.564e-06 0)
(0.0001399 2.573e-06 0)
(0.0001347 2.557e-06 0)
(0.0001297 2.518e-06 0)
(0.0001247 2.459e-06 0)
(0.0001198 2.383e-06 0)
(0.0001152 2.294e-06 0)
(0.0001107 2.195e-06 0)
(0.0001064 2.088e-06 0)
(0.0001023 1.976e-06 0)
(9.849e-05 1.861e-06 0)
(9.488e-05 1.745e-06 0)
(9.151e-05 1.629e-06 0)
(8.836e-05 1.516e-06 0)
(8.544e-05 1.405e-06 0)
(8.274e-05 1.298e-06 0)
(8.025e-05 1.196e-06 0)
(7.795e-05 1.099e-06 0)
(7.585e-05 1.007e-06 0)
(7.392e-05 9.2e-07 0)
(7.216e-05 8.39e-07 0)
(7.056e-05 7.634e-07 0)
(6.91e-05 6.933e-07 0)
(6.778e-05 6.283e-07 0)
(6.658e-05 5.684e-07 0)
(6.55e-05 5.133e-07 0)
(6.453e-05 4.627e-07 0)
(6.365e-05 4.164e-07 0)
(6.286e-05 3.741e-07 0)
(6.215e-05 3.356e-07 0)
(6.151e-05 3.006e-07 0)
(6.094e-05 2.689e-07 0)
(6.043e-05 2.401e-07 0)
(5.998e-05 2.141e-07 0)
(5.957e-05 1.907e-07 0)
(5.921e-05 1.696e-07 0)
(5.889e-05 1.507e-07 0)
(5.861e-05 1.339e-07 0)
(5.835e-05 1.19e-07 0)
(5.813e-05 1.059e-07 0)
(5.793e-05 9.458e-08 0)
(5.775e-05 8.495e-08 0)
(5.759e-05 7.704e-08 0)
(5.744e-05 7.092e-08 0)
(5.73e-05 6.677e-08 0)
(5.717e-05 6.488e-08 0)
(5.704e-05 6.585e-08 0)
(5.69e-05 7.074e-08 0)
(5.675e-05 8.163e-08 0)
(5.657e-05 1.019e-07 0)
(5.633e-05 1.354e-07 0)
(5.602e-05 1.759e-07 0)
(0.001209 0.0003128 0)
(0.001154 0.0003282 0)
(0.00101 0.000248 0)
(0.0008613 0.0001771 0)
(0.0007344 0.0001263 0)
(0.0006326 9.151e-05 0)
(0.0005524 6.797e-05 0)
(0.0004892 5.184e-05 0)
(0.0004389 4.05e-05 0)
(0.0003985 3.23e-05 0)
(0.0003655 2.62e-05 0)
(0.0003383 2.153e-05 0)
(0.0003157 1.788e-05 0)
(0.0002968 1.497e-05 0)
(0.0002808 1.26e-05 0)
(0.0002673 1.065e-05 0)
(0.0002558 9.008e-06 0)
(0.0002461 7.619e-06 0)
(0.0002379 6.426e-06 0)
(0.000231 5.389e-06 0)
(0.0002252 4.478e-06 0)
(0.0002204 3.668e-06 0)
(0.0002165 2.939e-06 0)
(0.0002134 2.276e-06 0)
(0.0002111 1.664e-06 0)
(0.0002095 1.093e-06 0)
(0.0002085 5.529e-07 0)
(0.0002081 3.547e-08 0)
(0.0002084 -4.665e-07 0)
(0.0002092 -9.594e-07 0)
(0.0002106 -1.449e-06 0)
(0.0002126 -1.939e-06 0)
(0.0002151 -2.436e-06 0)
(0.0002183 -2.941e-06 0)
(0.000222 -3.459e-06 0)
(0.0002263 -3.992e-06 0)
(0.0002313 -4.542e-06 0)
(0.0002369 -5.108e-06 0)
(0.0002432 -5.693e-06 0)
(0.0002502 -6.294e-06 0)
(0.0002579 -6.91e-06 0)
(0.0002663 -7.537e-06 0)
(0.0002754 -8.171e-06 0)
(0.0002852 -8.806e-06 0)
(0.0002958 -9.433e-06 0)
(0.0003071 -1.004e-05 0)
(0.000319 -1.062e-05 0)
(0.0003316 -1.116e-05 0)
(0.0003448 -1.164e-05 0)
(0.0003584 -1.204e-05 0)
(0.0003725 -1.235e-05 0)
(0.0003868 -1.255e-05 0)
(0.0004013 -1.262e-05 0)
(0.0004157 -1.254e-05 0)
(0.00043 -1.229e-05 0)
(0.0004438 -1.185e-05 0)
(0.000457 -1.123e-05 0)
(0.0004694 -1.042e-05 0)
(0.0004808 -9.408e-06 0)
(0.0004908 -8.217e-06 0)
(0.0004995 -6.862e-06 0)
(0.0005065 -5.367e-06 0)
(0.0005117 -3.763e-06 0)
(0.000515 -2.088e-06 0)
(0.0005165 -3.818e-07 0)
(0.000516 1.316e-06 0)
(0.0005135 2.966e-06 0)
(0.0005093 4.534e-06 0)
(0.0005033 5.992e-06 0)
(0.0004957 7.314e-06 0)
(0.0004867 8.485e-06 0)
(0.0004764 9.494e-06 0)
(0.0004651 1.033e-05 0)
(0.0004528 1.101e-05 0)
(0.0004399 1.151e-05 0)
(0.0004265 1.186e-05 0)
(0.0004128 1.206e-05 0)
(0.0003989 1.212e-05 0)
(0.0003849 1.206e-05 0)
(0.0003711 1.19e-05 0)
(0.0003575 1.163e-05 0)
(0.0003443 1.129e-05 0)
(0.0003315 1.089e-05 0)
(0.0003191 1.043e-05 0)
(0.0003073 9.939e-06 0)
(0.0002961 9.419e-06 0)
(0.0002855 8.884e-06 0)
(0.0002755 8.342e-06 0)
(0.0002661 7.801e-06 0)
(0.0002573 7.267e-06 0)
(0.0002491 6.746e-06 0)
(0.0002415 6.242e-06 0)
(0.0002345 5.759e-06 0)
(0.000228 5.298e-06 0)
(0.0002221 4.861e-06 0)
(0.0002166 4.449e-06 0)
(0.0002116 4.063e-06 0)
(0.0002071 3.702e-06 0)
(0.0002029 3.367e-06 0)
(0.0001991 3.056e-06 0)
(0.0001957 2.768e-06 0)
(0.0001926 2.504e-06 0)
(0.0001898 2.26e-06 0)
(0.0001873 2.037e-06 0)
(0.000185 1.833e-06 0)
(0.0001829 1.647e-06 0)
(0.0001811 1.478e-06 0)
(0.0001794 1.324e-06 0)
(0.0001779 1.184e-06 0)
(0.0001766 1.058e-06 0)
(0.0001754 9.441e-07 0)
(0.0001743 8.415e-07 0)
(0.0001734 7.495e-07 0)
(0.0001725 6.673e-07 0)
(0.0001718 5.944e-07 0)
(0.0001711 5.303e-07 0)
(0.0001705 4.746e-07 0)
(0.0001699 4.271e-07 0)
(0.0001694 3.878e-07 0)
(0.000169 3.57e-07 0)
(0.0001686 3.352e-07 0)
(0.0001682 3.235e-07 0)
(0.0001678 3.236e-07 0)
(0.0001674 3.385e-07 0)
(0.000167 3.728e-07 0)
(0.0001666 4.33e-07 0)
(0.0001661 5.222e-07 0)
(0.0001656 6.154e-07 0)
(0.001226 0.0002775 0)
(0.001243 0.0004026 0)
(0.001194 0.0003664 0)
(0.001102 0.0002983 0)
(0.0009996 0.0002346 0)
(0.0009014 0.0001832 0)
(0.000814 0.0001439 0)
(0.0007387 0.0001144 0)
(0.0006749 9.208e-05 0)
(0.000621 7.509e-05 0)
(0.0005755 6.191e-05 0)
(0.0005369 5.153e-05 0)
(0.0005042 4.321e-05 0)
(0.0004763 3.645e-05 0)
(0.0004525 3.087e-05 0)
(0.0004322 2.621e-05 0)
(0.0004148 2.227e-05 0)
(0.0004 1.89e-05 0)
(0.0003874 1.599e-05 0)
(0.0003767 1.344e-05 0)
(0.0003677 1.12e-05 0)
(0.0003602 9.19e-06 0)
(0.0003541 7.378e-06 0)
(0.0003493 5.724e-06 0)
(0.0003457 4.196e-06 0)
(0.0003431 2.766e-06 0)
(0.0003416 1.412e-06 0)
(0.000341 1.142e-07 0)
(0.0003413 -1.145e-06 0)
(0.0003426 -2.382e-06 0)
(0.0003448 -3.609e-06 0)
(0.0003479 -4.838e-06 0)
(0.0003519 -6.08e-06 0)
(0.0003568 -7.343e-06 0)
(0.0003626 -8.635e-06 0)
(0.0003694 -9.962e-06 0)
(0.0003772 -1.133e-05 0)
(0.000386 -1.273e-05 0)
(0.0003958 -1.418e-05 0)
(0.0004067 -1.567e-05 0)
(0.0004187 -1.719e-05 0)
(0.0004318 -1.873e-05 0)
(0.000446 -2.028e-05 0)
(0.0004613 -2.184e-05 0)
(0.0004777 -2.337e-05 0)
(0.0004951 -2.485e-05 0)
(0.0005136 -2.626e-05 0)
(0.0005331 -2.756e-05 0)
(0.0005534 -2.872e-05 0)
(0.0005745 -2.968e-05 0)
(0.0005961 -3.042e-05 0)
(0.0006182 -3.088e-05 0)
(0.0006404 -3.101e-05 0)
(0.0006626 -3.078e-05 0)
(0.0006844 -3.014e-05 0)
(0.0007057 -2.906e-05 0)
(0.0007259 -2.751e-05 0)
(0.0007449 -2.55e-05 0)
(0.0007623 -2.303e-05 0)
(0.0007777 -2.011e-05 0)
(0.0007909 -1.68e-05 0)
(0.0008016 -1.314e-05 0)
(0.0008096 -9.233e-06 0)
(0.0008148 -5.148e-06 0)
(0.000817 -9.857e-07 0)
(0.0008163 3.157e-06 0)
(0.0008127 7.189e-06 0)
(0.0008062 1.102e-05 0)
(0.0007971 1.46e-05 0)
(0.0007856 1.784e-05 0)
(0.0007718 2.073e-05 0)
(0.0007561 2.322e-05 0)
(0.0007388 2.53e-05 0)
(0.0007201 2.697e-05 0)
(0.0007003 2.825e-05 0)
(0.0006797 2.913e-05 0)
(0.0006586 2.966e-05 0)
(0.0006372 2.985e-05 0)
(0.0006157 2.973e-05 0)
(0.0005944 2.935e-05 0)
(0.0005734 2.874e-05 0)
(0.0005529 2.793e-05 0)
(0.000533 2.696e-05 0)
(0.0005139 2.586e-05 0)
(0.0004956 2.466e-05 0)
(0.0004781 2.34e-05 0)
(0.0004615 2.21e-05 0)
(0.0004459 2.077e-05 0)
(0.0004312 1.945e-05 0)
(0.0004174 1.814e-05 0)
(0.0004046 1.686e-05 0)
(0.0003927 1.562e-05 0)
(0.0003817 1.443e-05 0)
(0.0003715 1.329e-05 0)
(0.0003621 1.221e-05 0)
(0.0003535 1.119e-05 0)
(0.0003456 1.023e-05 0)
(0.0003383 9.331e-06 0)
(0.0003317 8.496e-06 0)
(0.0003257 7.72e-06 0)
(0.0003203 7.003e-06 0)
(0.0003153 6.341e-06 0)
(0.0003108 5.732e-06 0)
(0.0003067 5.173e-06 0)
(0.0003031 4.662e-06 0)
(0.0002997 4.195e-06 0)
(0.0002968 3.768e-06 0)
(0.0002941 3.381e-06 0)
(0.0002917 3.029e-06 0)
(0.0002895 2.71e-06 0)
(0.0002876 2.422e-06 0)
(0.0002858 2.163e-06 0)
(0.0002843 1.929e-06 0)
(0.0002829 1.721e-06 0)
(0.0002817 1.536e-06 0)
(0.0002805 1.372e-06 0)
(0.0002796 1.23e-06 0)
(0.0002787 1.108e-06 0)
(0.0002779 1.006e-06 0)
(0.0002771 9.252e-07 0)
(0.0002764 8.655e-07 0)
(0.0002758 8.289e-07 0)
(0.0002752 8.177e-07 0)
(0.0002746 8.354e-07 0)
(0.000274 8.861e-07 0)
(0.0002734 9.729e-07 0)
(0.0002727 1.089e-06 0)
(0.0002721 1.19e-06 0)
(0.001224 0.0002275 0)
(0.00126 0.0004003 0)
(0.001258 0.0004194 0)
(0.001216 0.000379 0)
(0.001149 0.0003231 0)
(0.001073 0.0002688 0)
(0.0009969 0.0002219 0)
(0.0009253 0.0001832 0)
(0.0008606 0.0001519 0)
(0.0008031 0.0001267 0)
(0.0007527 0.0001063 0)
(0.0007086 8.97e-05 0)
(0.0006703 7.606e-05 0)
(0.0006371 6.472e-05 0)
(0.0006083 5.521e-05 0)
(0.0005833 4.716e-05 0)
(0.0005618 4.027e-05 0)
(0.0005432 3.431e-05 0)
(0.0005273 2.913e-05 0)
(0.0005137 2.456e-05 0)
(0.0005023 2.05e-05 0)
(0.0004927 1.686e-05 0)
(0.000485 1.356e-05 0)
(0.0004788 1.054e-05 0)
(0.0004741 7.732e-06 0)
(0.0004708 5.101e-06 0)
(0.0004688 2.605e-06 0)
(0.0004681 2.088e-07 0)
(0.0004686 -2.119e-06 0)
(0.0004703 -4.405e-06 0)
(0.0004732 -6.674e-06 0)
(0.0004773 -8.946e-06 0)
(0.0004826 -1.124e-05 0)
(0.0004891 -1.357e-05 0)
(0.0004968 -1.595e-05 0)
(0.0005057 -1.84e-05 0)
(0.0005159 -2.091e-05 0)
(0.0005275 -2.349e-05 0)
(0.0005404 -2.614e-05 0)
(0.0005546 -2.886e-05 0)
(0.0005703 -3.163e-05 0)
(0.0005874 -3.445e-05 0)
(0.0006059 -3.728e-05 0)
(0.0006259 -4.01e-05 0)
(0.0006473 -4.288e-05 0)
(0.00067 -4.556e-05 0)
(0.0006941 -4.811e-05 0)
(0.0007193 -5.045e-05 0)
(0.0007457 -5.252e-05 0)
(0.000773 -5.424e-05 0)
(0.000801 -5.555e-05 0)
(0.0008296 -5.634e-05 0)
(0.0008584 -5.655e-05 0)
(0.000887 -5.609e-05 0)
(0.0009153 -5.49e-05 0)
(0.0009426 -5.29e-05 0)
(0.0009688 -5.008e-05 0)
(0.0009933 -4.641e-05 0)
(0.001016 -4.189e-05 0)
(0.001036 -3.659e-05 0)
(0.001053 -3.057e-05 0)
(0.001067 -2.394e-05 0)
(0.001077 -1.684e-05 0)
(0.001084 -9.423e-06 0)
(0.001087 -1.869e-06 0)
(0.001086 5.652e-06 0)
(0.001081 1.298e-05 0)
(0.001073 1.995e-05 0)
(0.001061 2.645e-05 0)
(0.001046 3.237e-05 0)
(0.001029 3.763e-05 0)
(0.001008 4.219e-05 0)
(0.000986 4.601e-05 0)
(0.0009619 4.909e-05 0)
(0.0009364 5.145e-05 0)
(0.0009098 5.311e-05 0)
(0.0008825 5.411e-05 0)
(0.0008548 5.45e-05 0)
(0.0008269 5.434e-05 0)
(0.0007993 5.369e-05 0)
(0.0007721 5.262e-05 0)
(0.0007454 5.118e-05 0)
(0.0007196 4.945e-05 0)
(0.0006946 4.748e-05 0)
(0.0006707 4.533e-05 0)
(0.0006478 4.305e-05 0)
(0.0006262 4.069e-05 0)
(0.0006057 3.829e-05 0)
(0.0005864 3.588e-05 0)
(0.0005684 3.35e-05 0)
(0.0005515 3.117e-05 0)
(0.0005358 2.89e-05 0)
(0.0005213 2.672e-05 0)
(0.0005078 2.464e-05 0)
(0.0004954 2.266e-05 0)
(0.000484 2.079e-05 0)
(0.0004735 1.902e-05 0)
(0.0004639 1.737e-05 0)
(0.0004551 1.584e-05 0)
(0.0004471 1.441e-05 0)
(0.0004398 1.308e-05 0)
(0.0004332 1.186e-05 0)
(0.0004272 1.073e-05 0)
(0.0004217 9.697e-06 0)
(0.0004168 8.748e-06 0)
(0.0004123 7.88e-06 0)
(0.0004083 7.088e-06 0)
(0.0004047 6.367e-06 0)
(0.0004014 5.712e-06 0)
(0.0003985 5.117e-06 0)
(0.0003959 4.579e-06 0)
(0.0003935 4.094e-06 0)
(0.0003914 3.658e-06 0)
(0.0003895 3.267e-06 0)
(0.0003878 2.92e-06 0)
(0.0003863 2.612e-06 0)
(0.0003849 2.343e-06 0)
(0.0003837 2.112e-06 0)
(0.0003826 1.917e-06 0)
(0.0003816 1.758e-06 0)
(0.0003807 1.637e-06 0)
(0.0003798 1.555e-06 0)
(0.000379 1.514e-06 0)
(0.0003782 1.516e-06 0)
(0.0003775 1.562e-06 0)
(0.0003767 1.65e-06 0)
(0.000376 1.763e-06 0)
(0.0003753 1.853e-06 0)
(0.001219 0.0001846 0)
(0.001255 0.0003713 0)
(0.001275 0.0004302 0)
(0.001264 0.0004213 0)
(0.001229 0.0003831 0)
(0.001178 0.0003359 0)
(0.001119 0.0002893 0)
(0.001059 0.0002472 0)
(0.001001 0.0002106 0)
(0.0009472 0.0001796 0)
(0.0008977 0.0001534 0)
(0.000853 0.0001313 0)
(0.0008132 0.0001126 0)
(0.0007778 9.675e-05 0)
(0.0007467 8.319e-05 0)
(0.0007193 7.152e-05 0)
(0.0006953 6.14e-05 0)
(0.0006745 5.257e-05 0)
(0.0006565 4.479e-05 0)
(0.0006411 3.789e-05 0)
(0.000628 3.171e-05 0)
(0.000617 2.614e-05 0)
(0.0006081 2.105e-05 0)
(0.0006009 1.637e-05 0)
(0.0005955 1.201e-05 0)
(0.0005917 7.91e-06 0)
(0.0005895 4.009e-06 0)
(0.0005887 2.551e-07 0)
(0.0005895 -3.397e-06 0)
(0.0005916 -6.987e-06 0)
(0.0005952 -1.055e-05 0)
(0.0006001 -1.412e-05 0)
(0.0006065 -1.773e-05 0)
(0.0006143 -2.139e-05 0)
(0.0006236 -2.513e-05 0)
(0.0006344 -2.895e-05 0)
(0.0006467 -3.289e-05 0)
(0.0006606 -3.692e-05 0)
(0.000676 -4.107e-05 0)
(0.0006932 -4.531e-05 0)
(0.0007119 -4.963e-05 0)
(0.0007324 -5.401e-05 0)
(0.0007546 -5.841e-05 0)
(0.0007784 -6.279e-05 0)
(0.0008039 -6.709e-05 0)
(0.0008311 -7.124e-05 0)
(0.0008598 -7.517e-05 0)
(0.0008899 -7.878e-05 0)
(0.0009213 -8.196e-05 0)
(0.0009538 -8.461e-05 0)
(0.0009872 -8.659e-05 0)
(0.001021 -8.779e-05 0)
(0.001055 -8.808e-05 0)
(0.001089 -8.733e-05 0)
(0.001123 -8.544e-05 0)
(0.001156 -8.233e-05 0)
(0.001187 -7.792e-05 0)
(0.001216 -7.219e-05 0)
(0.001242 -6.517e-05 0)
(0.001266 -5.693e-05 0)
(0.001286 -4.757e-05 0)
(0.001303 -3.727e-05 0)
(0.001315 -2.625e-05 0)
(0.001323 -1.473e-05 0)
(0.001327 -3.002e-06 0)
(0.001326 8.681e-06 0)
(0.00132 2.006e-05 0)
(0.001311 3.09e-05 0)
(0.001297 4.101e-05 0)
(0.001279 5.022e-05 0)
(0.001258 5.842e-05 0)
(0.001234 6.553e-05 0)
(0.001208 7.151e-05 0)
(0.001179 7.635e-05 0)
(0.001149 8.007e-05 0)
(0.001117 8.27e-05 0)
(0.001085 8.431e-05 0)
(0.001052 8.497e-05 0)
(0.001019 8.478e-05 0)
(0.0009857 8.382e-05 0)
(0.0009532 8.22e-05 0)
(0.0009215 8.001e-05 0)
(0.0008906 7.736e-05 0)
(0.0008608 7.434e-05 0)
(0.0008321 7.103e-05 0)
(0.0008048 6.751e-05 0)
(0.0007788 6.386e-05 0)
(0.0007543 6.014e-05 0)
(0.0007311 5.641e-05 0)
(0.0007095 5.272e-05 0)
(0.0006892 4.909e-05 0)
(0.0006703 4.556e-05 0)
(0.0006527 4.216e-05 0)
(0.0006365 3.891e-05 0)
(0.0006215 3.581e-05 0)
(0.0006076 3.288e-05 0)
(0.0005949 3.013e-05 0)
(0.0005833 2.754e-05 0)
(0.0005726 2.513e-05 0)
(0.0005628 2.288e-05 0)
(0.000554 2.08e-05 0)
(0.0005459 1.887e-05 0)
(0.0005385 1.709e-05 0)
(0.0005318 1.546e-05 0)
(0.0005258 1.396e-05 0)
(0.0005203 1.259e-05 0)
(0.0005154 1.134e-05 0)
(0.0005109 1.019e-05 0)
(0.0005069 9.155e-06 0)
(0.0005033 8.211e-06 0)
(0.0005001 7.357e-06 0)
(0.0004972 6.585e-06 0)
(0.0004946 5.89e-06 0)
(0.0004922 5.267e-06 0)
(0.0004901 4.711e-06 0)
(0.0004882 4.218e-06 0)
(0.0004865 3.786e-06 0)
(0.000485 3.411e-06 0)
(0.0004836 3.093e-06 0)
(0.0004824 2.83e-06 0)
(0.0004813 2.623e-06 0)
(0.0004802 2.472e-06 0)
(0.0004793 2.377e-06 0)
(0.0004783 2.34e-06 0)
(0.0004775 2.358e-06 0)
(0.0004766 2.424e-06 0)
(0.0004758 2.516e-06 0)
(0.0004751 2.587e-06 0)
(0.001214 0.000152 0)
(0.001246 0.0003355 0)
(0.001274 0.0004184 0)
(0.001281 0.0004358 0)
(0.001268 0.0004174 0)
(0.001239 0.0003823 0)
(0.001199 0.0003414 0)
(0.001153 0.0003006 0)
(0.001105 0.0002627 0)
(0.001058 0.0002286 0)
(0.001014 0.0001986 0)
(0.0009719 0.0001724 0)
(0.0009336 0.0001496 0)
(0.0008989 0.0001298 0)
(0.0008676 0.0001125 0)
(0.0008398 9.742e-05 0)
(0.0008151 8.413e-05 0)
(0.0007934 7.237e-05 0)
(0.0007744 6.192e-05 0)
(0.0007581 5.255e-05 0)
(0.0007441 4.41e-05 0)
(0.0007324 3.642e-05 0)
(0.0007228 2.937e-05 0)
(0.0007151 2.285e-05 0)
(0.0007093 1.675e-05 0)
(0.0007053 1.098e-05 0)
(0.000703 5.484e-06 0)
(0.0007023 1.774e-07 0)
(0.0007033 -4.995e-06 0)
(0.0007058 -1.009e-05 0)
(0.00071 -1.515e-05 0)
(0.0007157 -2.022e-05 0)
(0.000723 -2.534e-05 0)
(0.000732 -3.054e-05 0)
(0.0007426 -3.585e-05 0)
(0.0007549 -4.129e-05 0)
(0.0007689 -4.686e-05 0)
(0.0007847 -5.258e-05 0)
(0.0008022 -5.845e-05 0)
(0.0008216 -6.445e-05 0)
(0.0008429 -7.056e-05 0)
(0.0008661 -7.674e-05 0)
(0.0008912 -8.294e-05 0)
(0.0009183 -8.911e-05 0)
(0.0009471 -9.517e-05 0)
(0.0009779 -0.000101 0)
(0.00101 -0.0001065 0)
(0.001044 -0.0001116 0)
(0.00108 -0.0001161 0)
(0.001117 -0.0001198 0)
(0.001154 -0.0001225 0)
(0.001193 -0.0001242 0)
(0.001232 -0.0001246 0)
(0.00127 -0.0001235 0)
(0.001308 -0.0001208 0)
(0.001345 -0.0001164 0)
(0.00138 -0.0001102 0)
(0.001413 -0.0001021 0)
(0.001444 -9.219e-05 0)
(0.001471 -8.054e-05 0)
(0.001494 -6.733e-05 0)
(0.001512 -5.278e-05 0)
(0.001527 -3.719e-05 0)
(0.001536 -2.092e-05 0)
(0.00154 -4.344e-06 0)
(0.001539 1.217e-05 0)
(0.001532 2.825e-05 0)
(0.001521 4.357e-05 0)
(0.001506 5.785e-05 0)
(0.001486 7.088e-05 0)
(0.001462 8.248e-05 0)
(0.001435 9.255e-05 0)
(0.001405 0.000101 0)
(0.001372 0.0001079 0)
(0.001338 0.0001132 0)
(0.001302 0.0001169 0)
(0.001266 0.0001193 0)
(0.001228 0.0001203 0)
(0.001191 0.00012 0)
(0.001153 0.0001187 0)
(0.001117 0.0001165 0)
(0.001081 0.0001135 0)
(0.001046 0.0001098 0)
(0.001012 0.0001055 0)
(0.0009795 0.0001009 0)
(0.0009485 9.597e-05 0)
(0.000919 9.085e-05 0)
(0.0008911 8.562e-05 0)
(0.0008648 8.036e-05 0)
(0.0008401 7.515e-05 0)
(0.000817 7.003e-05 0)
(0.0007955 6.505e-05 0)
(0.0007755 6.024e-05 0)
(0.0007569 5.564e-05 0)
(0.0007398 5.125e-05 0)
(0.0007239 4.71e-05 0)
(0.0007094 4.318e-05 0)
(0.000696 3.951e-05 0)
(0.0006838 3.607e-05 0)
(0.0006726 3.288e-05 0)
(0.0006624 2.991e-05 0)
(0.000653 2.716e-05 0)
(0.0006446 2.463e-05 0)
(0.0006369 2.229e-05 0)
(0.0006299 2.015e-05 0)
(0.0006236 1.819e-05 0)
(0.0006179 1.639e-05 0)
(0.0006127 1.475e-05 0)
(0.000608 1.326e-05 0)
(0.0006038 1.191e-05 0)
(0.0006001 1.068e-05 0)
(0.0005967 9.568e-06 0)
(0.0005936 8.567e-06 0)
(0.0005909 7.668e-06 0)
(0.0005884 6.864e-06 0)
(0.0005862 6.15e-06 0)
(0.0005843 5.52e-06 0)
(0.0005825 4.972e-06 0)
(0.0005809 4.503e-06 0)
(0.0005794 4.109e-06 0)
(0.0005781 3.791e-06 0)
(0.0005769 3.547e-06 0)
(0.0005758 3.376e-06 0)
(0.0005748 3.278e-06 0)
(0.0005739 3.246e-06 0)
(0.000573 3.27e-06 0)
(0.0005721 3.327e-06 0)
(0.0005713 3.376e-06 0)
(0.00121 0.0001279 0)
(0.001237 0.0003009 0)
(0.001266 0.000396 0)
(0.001284 0.0004326 0)
(0.001286 0.000432 0)
(0.001273 0.0004102 0)
(0.001249 0.0003779 0)
(0.001217 0.0003417 0)
(0.001181 0.0003053 0)
(0.001143 0.0002708 0)
(0.001105 0.0002391 0)
(0.001068 0.0002104 0)
(0.001034 0.0001847 0)
(0.001001 0.0001618 0)
(0.0009719 0.0001414 0)
(0.0009451 0.0001232 0)
(0.000921 0.000107 0)
(0.0008997 9.254e-05 0)
(0.0008808 7.95e-05 0)
(0.0008644 6.771e-05 0)
(0.0008504 5.697e-05 0)
(0.0008385 4.714e-05 0)
(0.0008287 3.806e-05 0)
(0.000821 2.96e-05 0)
(0.0008151 2.165e-05 0)
(0.0008111 1.411e-05 0)
(0.0008089 6.888e-06 0)
(0.0008084 -1.018e-07 0)
(0.0008097 -6.931e-06 0)
(0.0008126 -1.367e-05 0)
(0.0008173 -2.037e-05 0)
(0.0008237 -2.71e-05 0)
(0.0008318 -3.389e-05 0)
(0.0008416 -4.079e-05 0)
(0.0008532 -4.783e-05 0)
(0.0008667 -5.504e-05 0)
(0.000882 -6.244e-05 0)
(0.0008992 -7.002e-05 0)
(0.0009184 -7.779e-05 0)
(0.0009396 -8.573e-05 0)
(0.0009629 -9.381e-05 0)
(0.0009882 -0.000102 0)
(0.001016 -0.0001102 0)
(0.001045 -0.0001183 0)
(0.001077 -0.0001263 0)
(0.00111 -0.0001341 0)
(0.001145 -0.0001413 0)
(0.001183 -0.000148 0)
(0.001221 -0.0001539 0)
(0.001262 -0.0001588 0)
(0.001303 -0.0001625 0)
(0.001345 -0.0001647 0)
(0.001387 -0.0001652 0)
(0.001429 -0.0001638 0)
(0.001471 -0.0001603 0)
(0.001512 -0.0001544 0)
(0.00155 -0.0001462 0)
(0.001587 -0.0001355 0)
(0.00162 -0.0001224 0)
(0.00165 -0.000107 0)
(0.001675 -8.944e-05 0)
(0.001696 -7.014e-05 0)
(0.001712 -4.945e-05 0)
(0.001722 -2.786e-05 0)
(0.001726 -5.847e-06 0)
(0.001725 1.607e-05 0)
(0.001718 3.74e-05 0)
(0.001706 5.772e-05 0)
(0.001688 7.666e-05 0)
(0.001667 9.392e-05 0)
(0.00164 0.0001093 0)
(0.001611 0.0001226 0)
(0.001578 0.0001339 0)
(0.001542 0.000143 0)
(0.001505 0.00015 0)
(0.001465 0.000155 0)
(0.001425 0.0001581 0)
(0.001384 0.0001595 0)
(0.001343 0.0001593 0)
(0.001303 0.0001576 0)
(0.001262 0.0001547 0)
(0.001223 0.0001507 0)
(0.001185 0.0001458 0)
(0.001148 0.0001403 0)
(0.001112 0.0001341 0)
(0.001078 0.0001276 0)
(0.001046 0.0001209 0)
(0.001016 0.000114 0)
(0.0009869 0.0001071 0)
(0.0009599 0.0001002 0)
(0.0009346 9.339e-05 0)
(0.000911 8.681e-05 0)
(0.0008891 8.044e-05 0)
(0.0008687 7.434e-05 0)
(0.0008499 6.853e-05 0)
(0.0008325 6.301e-05 0)
(0.0008165 5.782e-05 0)
(0.0008018 5.293e-05 0)
(0.0007883 4.837e-05 0)
(0.000776 4.411e-05 0)
(0.0007647 4.016e-05 0)
(0.0007545 3.65e-05 0)
(0.0007451 3.312e-05 0)
(0.0007366 3.001e-05 0)
(0.0007288 2.714e-05 0)
(0.0007218 2.452e-05 0)
(0.0007155 2.212e-05 0)
(0.0007098 1.993e-05 0)
(0.0007046 1.793e-05 0)
(0.0006999 1.611e-05 0)
(0.0006957 1.446e-05 0)
(0.0006919 1.297e-05 0)
(0.0006885 1.162e-05 0)
(0.0006855 1.041e-05 0)
(0.0006827 9.321e-06 0)
(0.0006803 8.355e-06 0)
(0.000678 7.5e-06 0)
(0.0006761 6.752e-06 0)
(0.0006743 6.107e-06 0)
(0.0006727 5.559e-06 0)
(0.0006712 5.107e-06 0)
(0.0006699 4.749e-06 0)
(0.0006687 4.481e-06 0)
(0.0006676 4.301e-06 0)
(0.0006666 4.2e-06 0)
(0.0006656 4.167e-06 0)
(0.0006647 4.18e-06 0)
(0.0006639 4.205e-06 0)
(0.001208 0.0001098 0)
(0.00123 0.0002699 0)
(0.001258 0.0003696 0)
(0.00128 0.000419 0)
(0.001292 0.0004327 0)
(0.001291 0.0004234 0)
(0.001279 0.0004005 0)
(0.001259 0.0003706 0)
(0.001234 0.0003378 0)
(0.001206 0.0003048 0)
(0.001175 0.0002731 0)
(0.001145 0.0002434 0)
(0.001115 0.000216 0)
(0.001087 0.0001909 0)
(0.001061 0.0001682 0)
(0.001036 0.0001476 0)
(0.001014 0.000129 0)
(0.0009937 0.0001121 0)
(0.0009759 9.667e-05 0)
(0.0009602 8.261e-05 0)
(0.0009466 6.969e-05 0)
(0.0009352 5.776e-05 0)
(0.0009257 4.667e-05 0)
(0.0009182 3.627e-05 0)
(0.0009126 2.645e-05 0)
(0.0009088 1.709e-05 0)
(0.0009069 8.088e-06 0)
(0.0009067 -6.525e-07 0)
(0.0009083 -9.217e-06 0)
(0.0009116 -1.768e-05 0)
(0.0009167 -2.612e-05 0)
(0.0009236 -3.46e-05 0)
(0.0009323 -4.317e-05 0)
(0.0009428 -5.188e-05 0)
(0.0009552 -6.077e-05 0)
(0.0009695 -6.987e-05 0)
(0.0009857 -7.92e-05 0)
(0.001004 -8.877e-05 0)
(0.001024 -9.858e-05 0)
(0.001047 -0.0001086 0)
(0.001071 -0.0001188 0)
(0.001098 -0.0001291 0)
(0.001127 -0.0001395 0)
(0.001158 -0.0001497 0)
(0.001192 -0.0001598 0)
(0.001227 -0.0001696 0)
(0.001265 -0.0001788 0)
(0.001304 -0.0001872 0)
(0.001346 -0.0001947 0)
(0.001388 -0.0002009 0)
(0.001432 -0.0002056 0)
(0.001477 -0.0002084 0)
(0.001522 -0.0002091 0)
(0.001568 -0.0002074 0)
(0.001612 -0.000203 0)
(0.001656 -0.0001957 0)
(0.001698 -0.0001854 0)
(0.001737 -0.0001719 0)
(0.001773 -0.0001553 0)
(0.001805 -0.0001358 0)
(0.001832 -0.0001136 0)
(0.001855 -8.91e-05 0)
(0.001872 -6.284e-05 0)
(0.001882 -3.541e-05 0)
(0.001887 -7.455e-06 0)
(0.001886 2.036e-05 0)
(0.001878 4.742e-05 0)
(0.001865 7.318e-05 0)
(0.001846 9.716e-05 0)
(0.001823 0.000119 0)
(0.001794 0.0001384 0)
(0.001762 0.0001553 0)
(0.001727 0.0001695 0)
(0.001689 0.000181 0)
(0.001649 0.0001899 0)
(0.001607 0.0001962 0)
(0.001564 0.0002002 0)
(0.00152 0.0002019 0)
(0.001477 0.0002016 0)
(0.001433 0.0001995 0)
(0.00139 0.0001958 0)
(0.001348 0.0001908 0)
(0.001308 0.0001847 0)
(0.001268 0.0001777 0)
(0.001231 0.00017 0)
(0.001195 0.0001618 0)
(0.00116 0.0001533 0)
(0.001128 0.0001446 0)
(0.001097 0.0001358 0)
(0.001069 0.0001271 0)
(0.001042 0.0001186 0)
(0.001017 0.0001103 0)
(0.0009933 0.0001022 0)
(0.0009717 9.454e-05 0)
(0.0009516 8.719e-05 0)
(0.0009331 8.022e-05 0)
(0.0009161 7.365e-05 0)
(0.0009004 6.747e-05 0)
(0.0008861 6.169e-05 0)
(0.0008729 5.63e-05 0)
(0.0008609 5.129e-05 0)
(0.0008499 4.665e-05 0)
(0.0008399 4.235e-05 0)
(0.0008307 3.84e-05 0)
(0.0008225 3.476e-05 0)
(0.000815 3.142e-05 0)
(0.0008082 2.837e-05 0)
(0.000802 2.557e-05 0)
(0.0007964 2.302e-05 0)
(0.0007914 2.071e-05 0)
(0.0007869 1.86e-05 0)
(0.0007828 1.669e-05 0)
(0.0007791 1.497e-05 0)
(0.0007758 1.341e-05 0)
(0.0007729 1.202e-05 0)
(0.0007702 1.078e-05 0)
(0.0007678 9.674e-06 0)
(0.0007657 8.705e-06 0)
(0.0007638 7.862e-06 0)
(0.000762 7.141e-06 0)
(0.0007605 6.537e-06 0)
(0.0007591 6.046e-06 0)
(0.0007578 5.663e-06 0)
(0.0007566 5.384e-06 0)
(0.0007556 5.2e-06 0)
(0.0007546 5.098e-06 0)
(0.0007537 5.061e-06 0)
(0.0007528 5.058e-06 0)
(0.001206 9.579e-05 0)
(0.001225 0.000243 0)
(0.001251 0.0003426 0)
(0.001275 0.0003998 0)
(0.001291 0.0004243 0)
(0.001298 0.0004256 0)
(0.001297 0.0004117 0)
(0.001287 0.0003886 0)
(0.001272 0.0003605 0)
(0.001252 0.0003304 0)
(0.00123 0.0003 0)
(0.001206 0.0002705 0)
(0.001182 0.0002425 0)
(0.001158 0.0002163 0)
(0.001135 0.000192 0)
(0.001114 0.0001697 0)
(0.001094 0.0001491 0)
(0.001076 0.0001301 0)
(0.00106 0.0001127 0)
(0.001046 9.662e-05 0)
(0.001033 8.171e-05 0)
(0.001023 6.783e-05 0)
(0.001014 5.482e-05 0)
(0.001007 4.256e-05 0)
(0.001002 3.091e-05 0)
(0.0009983 1.975e-05 0)
(0.0009968 8.971e-06 0)
(0.0009969 -1.53e-06 0)
(0.0009989 -1.185e-05 0)
(0.001003 -2.208e-05 0)
(0.001008 -3.229e-05 0)
(0.001015 -4.256e-05 0)
(0.001024 -5.296e-05 0)
(0.001035 -6.354e-05 0)
(0.001048 -7.434e-05 0)
(0.001063 -8.541e-05 0)
(0.00108 -9.676e-05 0)
(0.001099 -0.0001084 0)
(0.00112 -0.0001203 0)
(0.001143 -0.0001325 0)
(0.001168 -0.0001449 0)
(0.001196 -0.0001575 0)
(0.001226 -0.0001701 0)
(0.001258 -0.0001826 0)
(0.001293 -0.0001949 0)
(0.00133 -0.0002068 0)
(0.001369 -0.0002181 0)
(0.00141 -0.0002284 0)
(0.001453 -0.0002376 0)
(0.001497 -0.0002453 0)
(0.001543 -0.0002511 0)
(0.00159 -0.0002547 0)
(0.001637 -0.0002557 0)
(0.001685 -0.0002537 0)
(0.001732 -0.0002485 0)
(0.001778 -0.0002397 0)
(0.001822 -0.0002272 0)
(0.001863 -0.0002108 0)
(0.001902 -0.0001906 0)
(0.001936 -0.0001667 0)
(0.001965 -0.0001395 0)
(0.001989 -0.0001094 0)
(0.002007 -7.717e-05 0)
(0.002018 -4.346e-05 0)
(0.002023 -9.106e-06 0)
(0.002022 2.506e-05 0)
(0.002014 5.826e-05 0)
(0.001999 8.981e-05 0)
(0.001979 0.0001191 0)
(0.001954 0.0001458 0)
(0.001924 0.0001696 0)
(0.001891 0.0001901 0)
(0.001853 0.0002074 0)
(0.001813 0.0002214 0)
(0.001771 0.0002322 0)
(0.001727 0.0002399 0)
(0.001682 0.0002446 0)
(0.001636 0.0002467 0)
(0.00159 0.0002462 0)
(0.001545 0.0002436 0)
(0.0015 0.0002391 0)
(0.001456 0.000233 0)
(0.001414 0.0002255 0)
(0.001373 0.000217 0)
(0.001334 0.0002076 0)
(0.001297 0.0001976 0)
(0.001261 0.0001872 0)
(0.001227 0.0001766 0)
(0.001196 0.000166 0)
(0.001166 0.0001554 0)
(0.001138 0.000145 0)
(0.001112 0.0001349 0)
(0.001088 0.0001251 0)
(0.001065 0.0001157 0)
(0.001045 0.0001068 0)
(0.001026 9.83e-05 0)
(0.001008 9.028e-05 0)
(0.0009917 8.275e-05 0)
(0.0009767 7.57e-05 0)
(0.0009631 6.912e-05 0)
(0.0009506 6.3e-05 0)
(0.0009391 5.733e-05 0)
(0.0009287 5.209e-05 0)
(0.0009193 4.725e-05 0)
(0.0009106 4.28e-05 0)
(0.0009028 3.872e-05 0)
(0.0008957 3.497e-05 0)
(0.0008893 3.155e-05 0)
(0.0008835 2.843e-05 0)
(0.0008782 2.558e-05 0)
(0.0008735 2.299e-05 0)
(0.0008692 2.065e-05 0)
(0.0008654 1.852e-05 0)
(0.0008619 1.661e-05 0)
(0.0008588 1.489e-05 0)
(0.000856 1.335e-05 0)
(0.0008535 1.199e-05 0)
(0.0008513 1.078e-05 0)
(0.0008493 9.724e-06 0)
(0.0008475 8.814e-06 0)
(0.0008458 8.042e-06 0)
(0.0008444 7.404e-06 0)
(0.0008431 6.893e-06 0)
(0.0008419 6.502e-06 0)
(0.0008408 6.224e-06 0)
(0.0008398 6.046e-06 0)
(0.0008389 5.952e-06 0)
(0.000838 5.92e-06 0)
(0.001205 8.464e-05 0)
(0.001221 0.0002196 0)
(0.001244 0.0003166 0)
(0.001268 0.000378 0)
(0.001288 0.00041 0)
(0.001301 0.0004198 0)
(0.001306 0.0004139 0)
(0.001305 0.0003974 0)
(0.001297 0.0003745 0)
(0.001286 0.000348 0)
(0.00127 0.0003198 0)
(0.001253 0.0002915 0)
(0.001235 0.0002638 0)
(0.001216 0.0002373 0)
(0.001198 0.0002122 0)
(0.00118 0.0001886 0)
(0.001163 0.0001666 0)
(0.001148 0.0001461 0)
(0.001134 0.0001271 0)
(0.001121 0.0001092 0)
(0.00111 9.259e-05 0)
(0.001101 7.696e-05 0)
(0.001093 6.221e-05 0)
(0.001087 4.82e-05 0)
(0.001082 3.482e-05 0)
(0.00108 2.195e-05 0)
(0.001079 9.451e-06 0)
(0.001079 -2.768e-06 0)
(0.001081 -1.481e-05 0)
(0.001085 -2.678e-05 0)
(0.001091 -3.876e-05 0)
(0.001099 -5.083e-05 0)
(0.001108 -6.307e-05 0)
(0.001119 -7.552e-05 0)
(0.001132 -8.826e-05 0)
(0.001147 -0.0001013 0)
(0.001164 -0.0001147 0)
(0.001183 -0.0001284 0)
(0.001204 -0.0001425 0)
(0.001228 -0.0001569 0)
(0.001254 -0.0001716 0)
(0.001282 -0.0001865 0)
(0.001312 -0.0002014 0)
(0.001345 -0.0002163 0)
(0.00138 -0.0002309 0)
(0.001417 -0.000245 0)
(0.001457 -0.0002584 0)
(0.001498 -0.0002708 0)
(0.001542 -0.0002818 0)
(0.001588 -0.0002911 0)
(0.001635 -0.0002982 0)
(0.001683 -0.0003026 0)
(0.001732 -0.0003041 0)
(0.001781 -0.000302 0)
(0.00183 -0.0002961 0)
(0.001878 -0.0002859 0)
(0.001924 -0.0002712 0)
(0.001967 -0.0002518 0)
(0.002007 -0.0002279 0)
(0.002043 -0.0001994 0)
(0.002074 -0.0001669 0)
(0.002099 -0.000131 0)
(0.002118 -9.231e-05 0)
(0.00213 -5.189e-05 0)
(0.002135 -1.073e-05 0)
(0.002133 3.018e-05 0)
(0.002124 6.986e-05 0)
(0.002109 0.0001075 0)
(0.002088 0.0001425 0)
(0.002062 0.0001742 0)
(0.00203 0.0002023 0)
(0.001995 0.0002267 0)
(0.001956 0.0002471 0)
(0.001914 0.0002636 0)
(0.001871 0.0002763 0)
(0.001825 0.0002853 0)
(0.001779 0.0002908 0)
(0.001732 0.0002931 0)
(0.001684 0.0002925 0)
(0.001638 0.0002893 0)