/*--------------------------------*- C++ -*----------------------------------*\
  =========                 |
  \\      /  F ield         | OpenFOAM: The Open Source CFD Toolbox
   \\    /   O peration     | Website:  https://openfoam.org
    \\  /    A nd           | Version:  7
     \\/     M anipulation  |
\*---------------------------------------------------------------------------*/
FoamFile
{
    version     2.0;
    format      ascii;
    class       volScalarField;
    location    "2639.99947344587281";
    object      Y.K;
}
// * * * * * * * * * * * * * * * * * * * * * * * * * * * * * * * * * * * * * //

dimensions      [0 0 0 0 0 0 0];

internalField   nonuniform List<scalar> 
4096
(
3.959e-75
3.517e-73
-1.185e-73
1.61e-73
-5.207e-74
-1.052e-73
4.363e-74
1.729e-74
-2.969e-75
-9.412e-74
9.253e-73
-1.446e-71
2.245e-70
-3.108e-69
4.247e-68
-5.411e-67
6.578e-66
-7.725e-65
8.464e-64
-9.066e-63
9.315e-62
-9.182e-61
8.777e-60
-8.078e-59
7.182e-58
-6.128e-57
4.988e-56
-3.882e-55
2.744e-54
-1.89e-53
1.26e-52
-7.999e-52
4.739e-51
-2.474e-50
1.046e-49
-1.803e-49
-3.015e-48
4.815e-47
-5.044e-46
4.192e-45
-3.053e-44
1.927e-43
-1.034e-42
4.252e-42
-7.601e-42
-9.586e-41
1.457e-39
-1.321e-38
9.693e-38
-6.161e-37
3.581e-36
-1.882e-35
9.021e-35
-3.983e-34
1.639e-33
-6.128e-33
2.218e-32
-6.583e-32
2.017e-31
-1.976e-31
5.589e-31
8.788e-30
1.061e-30
8.02e-29
5.153e-28
4.62e-28
5.702e-27
2.215e-26
3.417e-26
3.062e-25
9.196e-25
1.913e-24
3.642e-24
2.703e-23
7.022e-23
1.765e-22
1.345e-21
6.142e-21
1.002e-19
1.603e-18
4.124e-18
7.86e-18
1.334e-17
2.13e-17
3.274e-17
4.895e-17
7.162e-17
1.029e-16
1.456e-16
2.033e-16
2.803e-16
3.821e-16
5.154e-16
6.886e-16
9.118e-16
1.197e-15
1.56e-15
2.017e-15
2.591e-15
3.306e-15
4.193e-15
5.288e-15
6.633e-15
8.277e-15
1.028e-14
1.27e-14
1.564e-14
1.916e-14
2.34e-14
2.845e-14
3.448e-14
4.164e-14
5.013e-14
6.015e-14
7.196e-14
8.584e-14
1.021e-13
1.211e-13
1.433e-13
1.691e-13
1.991e-13
2.337e-13
2.736e-13
3.191e-13
3.702e-13
4.259e-13
4.821e-13
5.27e-13
-1.172e-72
6.174e-72
-7.824e-72
1.172e-72
4.908e-72
-3.951e-72
3.756e-73
1.102e-72
9.063e-74
-5.649e-72
5.085e-71
-8.166e-70
1.24e-68
-1.776e-67
2.399e-66
-3.064e-65
3.712e-64
-4.282e-63
4.721e-62
-4.998e-61
5.094e-60
-5.012e-59
4.763e-58
-4.372e-57
3.869e-56
-3.291e-55
2.671e-54
-2.069e-53
1.464e-52
-1.01e-51
6.746e-51
-4.299e-50
2.559e-49
-1.354e-48
5.899e-48
-1.275e-47
-1.323e-46
2.383e-45
-2.57e-44
2.125e-43
-1.559e-42
9.912e-42
-5.407e-41
2.307e-40
-5.221e-40
-3.961e-39
6.593e-38
-6.12e-37
4.617e-36
-2.958e-35
1.701e-34
-8.94e-34
4.283e-33
-1.887e-32
7.869e-32
-2.939e-31
1.064e-30
-3.123e-30
1.017e-29
-8.84e-30
3.987e-29
4.6e-28
2.616e-28
4.659e-27
2.681e-26
3.385e-26
3.083e-25
1.157e-24
2.103e-24
1.554e-23
4.704e-23
9.743e-23
1.896e-22
1.224e-21
3.191e-21
7.493e-21
4.893e-20
1.549e-19
1.131e-18
2.989e-18
5.904e-18
1.028e-17
1.67e-17
2.596e-17
3.914e-17
5.762e-17
8.324e-17
1.183e-16
1.658e-16
2.295e-16
3.14e-16
4.252e-16
5.701e-16
7.575e-16
9.98e-16
1.305e-15
1.693e-15
2.181e-15
2.793e-15
3.553e-15
4.495e-15
5.655e-15
7.078e-15
8.815e-15
1.093e-14
1.349e-14
1.658e-14
2.029e-14
2.474e-14
3.006e-14
3.639e-14
4.391e-14
5.281e-14
6.332e-14
7.57e-14
9.024e-14
1.073e-13
1.272e-13
1.504e-13
1.774e-13
2.088e-13
2.45e-13
2.869e-13
3.348e-13
3.894e-13
4.505e-13
5.166e-13
5.806e-13
2.635e-71
-1.832e-70
4.539e-70
-5.904e-70
3.911e-70
-6.433e-71
-7.946e-71
3.823e-71
1.962e-71
-3.31e-70
2.729e-69
-4.388e-68
6.678e-67
-9.556e-66
1.288e-64
-1.639e-63
1.976e-62
-2.266e-61
2.484e-60
-2.614e-59
2.649e-58
-2.592e-57
2.45e-56
-2.238e-55
1.973e-54
-1.672e-53
1.353e-52
-1.045e-51
7.413e-51
-5.136e-50
3.447e-49
-2.212e-48
1.331e-47
-7.21e-47
3.293e-46
-9.493e-46
-4.289e-45
1.034e-43
-1.185e-42
9.965e-42
-7.454e-41
4.826e-40
-2.717e-39
1.228e-38
-3.591e-38
-1.005e-37
2.52e-36
-2.51e-35
1.963e-34
-1.277e-33
7.409e-33
-3.929e-32
1.89e-31
-8.34e-31
3.518e-30
-1.31e-29
4.838e-29
-1.402e-28
5.015e-28
-3.373e-28
2.825e-27
2.377e-26
2.741e-26
2.8e-25
1.364e-24
2.41e-24
1.706e-23
5.809e-23
1.287e-22
7.823e-22
2.311e-21
4.741e-21
9.444e-21
5.101e-20
1.299e-19
2.818e-19
1.39e-18
3.293e-18
6.114e-18
1.029e-17
1.638e-17
2.511e-17
3.743e-17
5.458e-17
7.813e-17
1.101e-16
1.53e-16
2.101e-16
2.854e-16
3.838e-16
5.115e-16
6.759e-16
8.863e-16
1.154e-15
1.492e-15
1.917e-15
2.449e-15
3.11e-15
3.93e-15
4.94e-15
6.18e-15
7.696e-15
9.543e-15
1.178e-14
1.449e-14
1.776e-14
2.168e-14
2.637e-14
3.197e-14
3.864e-14
4.655e-14
5.591e-14
6.696e-14
7.997e-14
9.524e-14
1.131e-13
1.34e-13
1.584e-13
1.868e-13
2.197e-13
2.578e-13
3.019e-13
3.526e-13
4.109e-13
4.776e-13
5.536e-13
6.399e-13
7.394e-13
-4.355e-70
3.457e-69
-1.201e-68
2.51e-68
-3.33e-68
2.819e-68
-1.403e-68
2.85e-69
1.06e-69
-1.876e-68
1.394e-67
-2.235e-66
3.399e-65
-4.849e-64
6.502e-63
-8.215e-62
9.822e-61
-1.117e-59
1.213e-58
-1.265e-57
1.272e-56
-1.235e-55
1.159e-54
-1.052e-53
9.227e-53
-7.787e-52
6.29e-51
-4.848e-50
3.455e-49
-2.409e-48
1.63e-47
-1.058e-46
6.478e-46
-3.628e-45
1.751e-44
-6.67e-44
-2.711e-44
3.627e-42
-4.744e-41
4.127e-40
-3.203e-39
2.139e-38
-1.263e-37
6.112e-37
-2.228e-36
1.044e-36
6.957e-35
-8.333e-34
7.073e-33
-4.759e-32
2.819e-31
-1.525e-30
7.412e-30
-3.287e-29
1.419e-28
-5.255e-28
2.012e-27
-5.634e-27
2.331e-26
-5.834e-27
1.879e-25
1.167e-24
2.2e-24
1.664e-23
6.445e-23
1.604e-22
9.093e-22
2.94e-21
6.945e-21
3.547e-20
9.894e-20
1.99e-19
3.976e-19
1.579e-18
3.719e-18
6.806e-18
1.141e-17
1.817e-17
2.786e-17
4.149e-17
6.032e-17
8.595e-17
1.204e-16
1.661e-16
2.261e-16
3.043e-16
4.051e-16
5.343e-16
6.987e-16
9.067e-16
1.168e-15
1.496e-15
1.905e-15
2.413e-15
3.04e-15
3.813e-15
4.763e-15
5.924e-15
7.34e-15
9.062e-15
1.115e-14
1.367e-14
1.67e-14
2.035e-14
2.472e-14
2.993e-14
3.615e-14
4.353e-14
5.228e-14
6.263e-14
7.483e-14
8.918e-14
1.06e-13
1.257e-13
1.488e-13
1.757e-13
2.069e-13
2.432e-13
2.852e-13
3.337e-13
3.897e-13
4.541e-13
5.281e-13
6.129e-13
7.097e-13
8.202e-13
9.476e-13
1.113e-12
6.261e-69
-5.404e-68
2.323e-67
-6.486e-67
1.233e-66
-1.639e-66
1.509e-66
-9.057e-67
2.945e-67
-1.027e-66
6.856e-66
-1.084e-64
1.64e-63
-2.321e-62
3.078e-61
-3.841e-60
4.53e-59
-5.079e-58
5.443e-57
-5.603e-56
5.564e-55
-5.343e-54
4.968e-53
-4.474e-52
3.896e-51
-3.273e-50
2.638e-49
-2.032e-48
1.457e-47
-1.025e-46
7.016e-46
-4.627e-45
2.9e-44
-1.691e-43
8.6e-43
-4.264e-42
7.683e-42
8.304e-41
-1.546e-39
1.439e-38
-1.195e-37
8.366e-37
-5.26e-36
2.784e-35
-1.214e-34
3.142e-34
5.008e-34
-1.892e-32
1.995e-31
-1.455e-30
8.977e-30
-5.055e-29
2.505e-28
-1.119e-27
5.056e-27
-1.838e-26
7.487e-26
-1.9e-25
9.902e-25
5.611e-25
1.196e-23
5.264e-23
1.563e-22
9.286e-22
3.358e-21
8.821e-21
4.347e-20
1.291e-19
3.136e-19
1.2e-18
3.001e-18
5.864e-18
1.033e-17
1.725e-17
2.767e-17
4.286e-17
6.435e-17
9.409e-17
1.344e-16
1.88e-16
2.582e-16
3.49e-16
4.649e-16
6.116e-16
7.957e-16
1.025e-15
1.309e-15
1.659e-15
2.09e-15
2.616e-15
3.259e-15
4.042e-15
4.992e-15
6.144e-15
7.536e-15
9.217e-15
1.124e-14
1.368e-14
1.66e-14
2.009e-14
2.427e-14
2.926e-14
3.519e-14
4.223e-14
5.059e-14
6.047e-14
7.214e-14
8.588e-14
1.02e-13
1.21e-13
1.432e-13
1.691e-13
1.994e-13
2.346e-13
2.754e-13
3.228e-13
3.776e-13
4.409e-13
5.138e-13
5.976e-13
6.938e-13
8.039e-13
9.297e-13
1.073e-12
1.236e-12
1.422e-12
1.635e-12
1.933e-12
-8.344e-68
7.609e-67
-3.793e-66
1.302e-65
-3.186e-65
5.691e-65
-7.417e-65
6.74e-65
-3.658e-65
-5.064e-65
3.309e-64
-5.022e-63
7.5e-62
-1.044e-60
1.359e-59
-1.661e-58
1.917e-57
-2.105e-56
2.211e-55
-2.235e-54
2.181e-53
-2.063e-52
1.894e-51
-1.687e-50
1.457e-49
-1.217e-48
9.783e-48
-7.538e-47
5.458e-46
-3.885e-45
2.698e-44
-1.814e-43
1.169e-42
-7.109e-42
3.94e-41
-1.998e-40
7.172e-40
-2.023e-40
-3.408e-38
3.825e-37
-3.653e-36
2.752e-35
-1.883e-34
1.091e-33
-5.458e-33
2.229e-32
-6.791e-32
-6.461e-32
3.362e-30
-3.288e-29
2.223e-28
-1.364e-27
7.035e-27
-3.144e-26
1.563e-25
-5.368e-25
2.455e-24
-4.514e-24
3.668e-23
5.886e-23
6.886e-22
2.811e-21
8.66e-21
4.592e-20
1.499e-19
4.079e-19
1.572e-18
4.18e-18
8.737e-18
1.651e-17
2.923e-17
4.918e-17
7.925e-17
1.23e-16
1.845e-16
2.687e-16
3.809e-16
5.269e-16
7.134e-16
9.475e-16
1.237e-15
1.591e-15
2.021e-15
2.537e-15
3.155e-15
3.892e-15
4.769e-15
5.81e-15
7.044e-15
8.507e-15
1.024e-14
1.229e-14
1.473e-14
1.761e-14
2.102e-14
2.506e-14
2.984e-14
3.55e-14
4.218e-14
5.006e-14
5.937e-14
7.033e-14
8.323e-14
9.838e-14
1.162e-13
1.37e-13
1.614e-13
1.899e-13
2.231e-13
2.618e-13
3.068e-13
3.59e-13
4.195e-13
4.894e-13
5.702e-13
6.632e-13
7.702e-13
8.93e-13
1.034e-12
1.195e-12
1.379e-12
1.588e-12
1.826e-12
2.096e-12
2.402e-12
2.748e-12
3.141e-12
3.718e-12
1.063e-66
-1.006e-65
5.59e-65
-2.243e-64
6.665e-64
-1.494e-63
2.525e-63
-3.104e-63
2.395e-63
-2.481e-63
1.317e-62
-2.196e-61
3.229e-60
-4.375e-59
5.525e-58
-6.546e-57
7.327e-56
-7.806e-55
7.973e-54
-7.854e-53
7.494e-52
-6.949e-51
6.271e-50
-5.509e-49
4.708e-48
-3.905e-47
3.132e-46
-2.417e-45
1.771e-44
-1.279e-43
9.038e-43
-6.217e-42
4.131e-41
-2.622e-40
1.566e-39
-8.509e-39
4.182e-38
-1.361e-37
-3.432e-39
4.811e-36
-7.985e-35
6.975e-34
-5.451e-33
3.467e-32
-1.947e-31
9.821e-31
-4.844e-30
1.471e-29
-1.284e-29
-2.477e-28
3.274e-27
-2.634e-26
1.562e-25
-6.702e-25
4.203e-24
-1.216e-23
7.173e-23
-1.122e-23
1.086e-21
5.062e-21
3.461e-20
1.299e-19
4.158e-19
1.738e-18
5.113e-18
1.192e-17
2.495e-17
4.86e-17
8.915e-17
1.552e-16
2.575e-16
4.09e-16
6.244e-16
9.191e-16
1.309e-15
1.809e-15
2.433e-15
3.195e-15
4.106e-15
5.181e-15
6.431e-15
7.872e-15
9.525e-15
1.141e-14
1.356e-14
1.602e-14
1.882e-14
2.203e-14
2.57e-14
2.994e-14
3.482e-14
4.046e-14
4.7e-14
5.459e-14
6.341e-14
7.368e-14
8.565e-14
9.959e-14
1.158e-13
1.348e-13
1.569e-13
1.826e-13
2.126e-13
2.475e-13
2.881e-13
3.352e-13
3.899e-13
4.532e-13
5.265e-13
6.113e-13
7.092e-13
8.22e-13
9.518e-13
1.101e-12
1.272e-12
1.468e-12
1.693e-12
1.949e-12
2.241e-12
2.573e-12
2.95e-12
3.378e-12
3.862e-12
4.409e-12
5.025e-12
5.718e-12
6.496e-12
7.679e-12
-1.315e-65
1.276e-64
-7.694e-64
3.493e-63
-1.214e-62
3.278e-62
-6.865e-62
1.077e-61
-1.12e-61
-7.928e-62
7.63e-61
-9.42e-60
1.295e-58
-1.68e-57
2.03e-56
-2.299e-55
2.463e-54
-2.519e-53
2.478e-52
-2.36e-51
2.187e-50
-1.977e-49
1.746e-48
-1.508e-47
1.273e-46
-1.048e-45
8.381e-45
-6.487e-44
4.823e-43
-3.54e-42
2.553e-41
-1.8e-40
1.235e-39
-8.178e-39
5.185e-38
-3.104e-37
1.717e-36
-8.347e-36
3.877e-35
-9.974e-35
-4.506e-34
9.798e-33
-1.105e-31
8.182e-31
-5.029e-30
3.046e-29
-1.66e-28
7.863e-28
-3.199e-27
8.368e-27
-3.355e-27
-1.178e-25
1.443e-24
-7.183e-24
9.858e-23
-9.607e-23
2.075e-21
5.707e-21
5.499e-20
2.612e-19
1.304e-18
4.492e-18
1.228e-17
2.999e-17
6.752e-17
1.416e-16
2.782e-16
5.149e-16
9.009e-16
1.496e-15
2.367e-15
3.58e-15
5.198e-15
7.269e-15
9.826e-15
1.288e-14
1.644e-14
2.047e-14
2.497e-14
2.99e-14
3.527e-14
4.107e-14
4.733e-14
5.41e-14
6.145e-14
6.947e-14
7.828e-14
8.804e-14
9.892e-14
1.111e-13
1.249e-13
1.405e-13
1.583e-13
1.786e-13
2.02e-13
2.288e-13
2.596e-13
2.951e-13
3.361e-13
3.834e-13
4.381e-13
5.011e-13
5.739e-13
6.579e-13
7.547e-13
8.663e-13
9.948e-13
1.143e-12
1.312e-12
1.508e-12
1.731e-12
1.987e-12
2.28e-12
2.615e-12
2.997e-12
3.432e-12
3.927e-12
4.489e-12
5.126e-12
5.848e-12
6.663e-12
7.583e-12
8.618e-12
9.782e-12
1.109e-11
1.255e-11
1.417e-11
1.67e-11
1.586e-64
-1.568e-63
1.007e-62
-5.054e-62
2.003e-61
-6.341e-61
1.6e-60
-3.134e-60
4.339e-60
-5.71e-60
2.071e-59
-3.392e-58
4.689e-57
-5.749e-56
6.516e-55
-6.929e-54
6.995e-53
-6.774e-52
6.349e-51
-5.796e-50
5.177e-49
-4.538e-48
3.909e-47
-3.31e-46
2.753e-45
-2.247e-44
1.793e-43
-1.395e-42
1.055e-41
-7.888e-41
5.813e-40
-4.208e-39
2.98e-38
-2.055e-37
1.373e-36
-8.827e-36
5.41e-35
-3.13e-34
1.615e-33
-9.649e-33
3.252e-32
-4.179e-32
-5.233e-31
6.969e-30
-6.712e-29
5.685e-28
-3.863e-27
2.245e-26
-1.036e-25
4.418e-25
-1.772e-24
7.767e-24
-8.543e-24
4.131e-23
1.687e-21
4.818e-21
6.445e-20
3.52e-19
1.97e-18
7.602e-18
2.349e-17
6.476e-17
1.637e-16
3.823e-16
8.296e-16
1.678e-15
3.175e-15
5.643e-15
9.456e-15
1.5e-14
2.262e-14
3.255e-14
4.489e-14
5.957e-14
7.634e-14
9.484e-14
1.146e-13
1.353e-13
1.565e-13
1.778e-13
1.992e-13
2.207e-13
2.423e-13
2.643e-13
2.87e-13
3.108e-13
3.361e-13
3.634e-13
3.934e-13
4.265e-13
4.636e-13
5.053e-13
5.525e-13
6.061e-13
6.673e-13
7.372e-13
8.172e-13
9.088e-13
1.014e-12
1.134e-12
1.272e-12
1.431e-12
1.612e-12
1.82e-12
2.059e-12
2.332e-12
2.644e-12
3.001e-12
3.408e-12
3.873e-12
4.403e-12
5.006e-12
5.692e-12
6.472e-12
7.356e-12
8.358e-12
9.492e-12
1.077e-11
1.222e-11
1.384e-11
1.567e-11
1.773e-11
2.003e-11
2.261e-11
2.548e-11
2.87e-11
3.222e-11
3.78e-11
-1.865e-63
1.867e-62
-1.261e-61
6.883e-61
-3.055e-60
1.112e-59
-3.313e-59
7.884e-59
-1.373e-58
-2.605e-59
1.136e-57
-1.306e-56
1.508e-55
-1.67e-54
1.727e-53
-1.683e-52
1.57e-51
-1.418e-50
1.251e-49
-1.084e-48
9.271e-48
-7.837e-47
6.556e-46
-5.428e-45
4.445e-44
-3.595e-43
2.866e-42
-2.245e-41
1.731e-40
-1.322e-39
9.983e-39
-7.433e-38
5.44e-37
-3.903e-36
2.734e-35
-1.865e-34
1.233e-33
-7.859e-33
4.805e-32
-2.789e-31
1.496e-30
-7.311e-30
3.331e-29
-1.076e-28
1.062e-28
2.087e-27
-2.224e-26
1.569e-25
-1.084e-24
7.568e-24
-4.327e-23
2.777e-22
-4.65e-22
4.689e-21
4.226e-20
3.329e-19
2.245e-18
9.928e-18
3.556e-17
1.137e-16
3.317e-16
8.88e-16
2.188e-15
4.976e-15
1.047e-14
2.045e-14
3.722e-14
6.342e-14
1.016e-13
1.536e-13
2.203e-13
3.011e-13
3.938e-13
4.95e-13
6.006e-13
7.061e-13
8.08e-13
9.03e-13
9.892e-13
1.066e-12
1.135e-12
1.197e-12
1.253e-12
1.305e-12
1.356e-12
1.408e-12
1.463e-12
1.523e-12
1.59e-12
1.666e-12
1.753e-12
1.853e-12
1.968e-12
2.102e-12
2.256e-12
2.433e-12
2.636e-12
2.87e-12
3.138e-12
3.446e-12
3.798e-12
4.2e-12
4.66e-12
5.185e-12
5.783e-12
6.464e-12
7.239e-12
8.121e-12
9.123e-12
1.026e-11
1.155e-11
1.301e-11
1.466e-11
1.652e-11
1.863e-11
2.1e-11
2.367e-11
2.668e-11
3.005e-11
3.383e-11
3.806e-11
4.279e-11
4.806e-11
5.394e-11
6.047e-11
6.773e-11
7.561e-11
8.828e-11
2.126e-62
-2.145e-61
1.51e-60
-8.851e-60
4.338e-59
-1.791e-58
6.229e-58
-1.802e-57
4.192e-57
-8.691e-57
2.86e-56
-3.254e-55
3.754e-54
-3.745e-53
3.392e-52
-2.929e-51
2.462e-50
-2.038e-49
1.672e-48
-1.365e-47
1.11e-46
-9.009e-46
7.294e-45
-5.891e-44
4.742e-43
-3.8e-42
3.027e-41
-2.396e-40
1.891e-39
-1.483e-38
1.152e-37
-8.868e-37
6.739e-36
-5.047e-35
3.711e-34
-2.679e-33
1.892e-32
-1.303e-31
8.744e-31
-5.661e-30
3.463e-29
-2.045e-28
1.119e-27
-5.835e-27
2.863e-26
-1.271e-25
6.141e-25
-2.255e-24
3.965e-24
8.937e-24
-1.725e-22
3.138e-21
3.9e-21
1.908e-19
1.738e-18
9.2e-18
3.933e-17
1.497e-16
5.172e-16
1.63e-15
4.69e-15
1.234e-14
2.974e-14
6.579e-14
1.34e-13
2.521e-13
4.404e-13
7.176e-13
1.096e-12
1.576e-12
2.145e-12
2.778e-12
3.439e-12
4.09e-12
4.692e-12
5.212e-12
5.644e-12
5.965e-12
6.191e-12
6.336e-12
6.416e-12
6.444e-12
6.435e-12
6.413e-12
6.387e-12
6.364e-12
6.368e-12
6.39e-12
6.442e-12
6.532e-12
6.661e-12
6.841e-12
7.072e-12
7.359e-12
7.708e-12
8.126e-12
8.619e-12
9.197e-12
9.868e-12
1.064e-11
1.153e-11
1.256e-11
1.372e-11
1.506e-11
1.657e-11
1.829e-11
2.025e-11
2.246e-11
2.496e-11
2.779e-11
3.098e-11
3.458e-11
3.863e-11
4.319e-11
4.831e-11
5.405e-11
6.048e-11
6.768e-11
7.572e-11
8.47e-11
9.47e-11
1.058e-10
1.182e-10
1.319e-10
1.471e-10
1.639e-10
1.82e-10
2.113e-10
-2.322e-61
2.353e-60
-1.713e-59
1.068e-58
-5.714e-58
2.643e-57
-1.058e-56
3.605e-56
-9.818e-56
1.002e-55
7.19e-55
-8.706e-54
7.113e-53
-5.298e-52
3.796e-51
-2.765e-50
2.044e-49
-1.531e-48
1.158e-47
-8.835e-47
6.794e-46
-5.261e-45
4.098e-44
-3.21e-43
2.526e-42
-1.994e-41
1.582e-40
-1.254e-39
9.918e-39
-7.822e-38
6.133e-37
-4.799e-36
3.729e-35
-2.869e-34
2.16e-33
-1.609e-32
1.174e-31
-8.373e-31
5.844e-30
-3.926e-29
2.612e-28
-1.666e-27
1.048e-26
-6.368e-26
3.736e-25
-2.112e-24
1.146e-23
-5.976e-23
3.012e-22
-1.358e-21
4.222e-21
5.04e-20
5.851e-19
5.165e-18
2.923e-17
1.367e-16
5.723e-16
2.173e-15
7.492e-15
2.345e-14
6.666e-14
1.722e-13
4.052e-13
8.701e-13
1.71e-12
3.092e-12
5.167e-12
8.027e-12
1.165e-11
1.589e-11
2.049e-11
2.51e-11
2.937e-11
3.299e-11
3.572e-11
3.743e-11
3.839e-11
3.827e-11
3.772e-11
3.673e-11
3.542e-11
3.394e-11
3.242e-11
3.094e-11
2.957e-11
2.835e-11
2.732e-11
2.648e-11
2.584e-11
2.541e-11
2.515e-11
2.518e-11
2.537e-11
2.576e-11
2.637e-11
2.722e-11
2.83e-11
2.963e-11
3.123e-11
3.313e-11
3.534e-11
3.791e-11
4.086e-11
4.424e-11
4.809e-11
5.246e-11
5.741e-11
6.301e-11
6.933e-11
7.644e-11
8.444e-11
9.343e-11
1.035e-10
1.148e-10
1.274e-10
1.415e-10
1.573e-10
1.748e-10
1.943e-10
2.16e-10
2.4e-10
2.667e-10
2.961e-10
3.287e-10
3.645e-10
4.041e-10
4.463e-10
5.153e-10
2.391e-60
-2.424e-59
1.814e-58
-1.192e-57
6.896e-57
-3.544e-56
1.629e-55
-6.729e-55
2.5e-54
-8.304e-54
2.415e-53
-5.903e-53
1.048e-52
-2.891e-52
1.056e-51
-1.432e-50
1.535e-49
-1.366e-48
1.088e-47
-8.204e-47
6.021e-46
-4.344e-45
3.079e-44
-2.121e-43
1.396e-42
-8.166e-42
6.23e-41
-1.497e-40
-5.298e-40
1.442e-38
-1.661e-37
1.46e-36
-1.193e-35
8.787e-35
-8.817e-34
4.235e-33
-2.125e-32
6.758e-32
2.154e-31
-7.402e-30
8.996e-29
-8.971e-28
7.677e-27
-6.038e-26
4.451e-25
-3.095e-24
2.048e-23
-1.245e-22
8.954e-22
-2.044e-21
1.731e-19
2.076e-18
1.433e-17
8.181e-17
4.192e-16
1.949e-15
8.209e-15
3.129e-14
1.077e-13
3.347e-13
9.387e-13
2.377e-12
5.447e-12
1.132e-11
2.141e-11
3.706e-11
5.906e-11
8.719e-11
1.2e-10
1.548e-10
1.888e-10
2.183e-10
2.409e-10
2.549e-10
2.596e-10
2.567e-10
2.488e-10
2.366e-10
2.215e-10
2.05e-10
1.884e-10
1.725e-10
1.577e-10
1.445e-10
1.329e-10
1.229e-10
1.144e-10
1.073e-10
1.016e-10
9.711e-11
9.369e-11
9.131e-11
8.981e-11
8.928e-11
8.963e-11
9.069e-11
9.256e-11
9.526e-11
9.879e-11
1.032e-10
1.085e-10
1.148e-10
1.222e-10
1.306e-10
1.404e-10
1.515e-10
1.64e-10
1.782e-10
1.943e-10
2.123e-10
2.325e-10
2.551e-10
2.804e-10
3.086e-10
3.4e-10
3.75e-10
4.139e-10
4.571e-10
5.049e-10
5.579e-10
6.164e-10
6.809e-10
7.521e-10
8.303e-10
9.162e-10
1.011e-09
1.111e-09
1.275e-09
-2.261e-59
2.288e-58
-1.748e-57
1.199e-56
-7.401e-56
4.138e-55
-2.11e-54
9.867e-54
-4.241e-53
1.671e-52
-5.952e-52
1.834e-51
-4.323e-51
-4.631e-51
7.707e-50
-6.462e-49
4.194e-48
-2.529e-47
1.464e-46
-8.8e-46
5.819e-45
-4.317e-44
3.502e-43
-2.966e-42
2.525e-41
-2.101e-40
1.695e-39
-1.28e-38
9.068e-38
-5.938e-37
3.759e-36
-2.159e-35
6.976e-35
6.494e-35
-4.741e-33
6.556e-32
-6.89e-31
6.357e-30
-5.396e-29
4.304e-28
-3.262e-27
2.363e-26
-1.641e-25
1.098e-24
-7.049e-24
4.398e-23
-2.561e-22
1.653e-21
-5.135e-21
2.968e-19
3.916e-18
2.987e-17
1.909e-16
1.099e-15
5.732e-15
2.705e-14
1.151e-13
4.408e-13
1.515e-12
4.667e-12
1.289e-11
3.192e-11
7.104e-11
1.425e-10
2.583e-10
4.265e-10
6.458e-10
9.031e-10
1.175e-09
1.43e-09
1.649e-09
1.79e-09
1.859e-09
1.84e-09
1.776e-09
1.668e-09
1.532e-09
1.381e-09
1.229e-09
1.085e-09
9.525e-10
8.352e-10
7.335e-10
6.467e-10
5.737e-10
5.129e-10
4.627e-10
4.216e-10
3.883e-10
3.617e-10
3.407e-10
3.246e-10
3.127e-10
3.046e-10
2.995e-10
2.984e-10
2.998e-10
3.037e-10
3.103e-10
3.197e-10
3.318e-10
3.468e-10
3.646e-10
3.856e-10
4.1e-10
4.379e-10
4.697e-10
5.058e-10
5.464e-10
5.92e-10
6.432e-10
7.003e-10
7.64e-10
8.349e-10
9.137e-10
1.001e-09
1.098e-09
1.205e-09
1.323e-09
1.453e-09
1.597e-09
1.755e-09
1.928e-09
2.118e-09
2.325e-09
2.553e-09
2.792e-09
3.186e-09
1.935e-58
-1.948e-57
1.512e-56
-1.076e-55
7.028e-55
-4.238e-54
2.374e-53
-1.244e-52
6.132e-52
-2.853e-51
1.254e-50
-5.177e-50
1.97e-49
-6.529e-49
1.514e-48
3.429e-48
-6.807e-47
6.287e-46
-5.013e-45
3.672e-44
-2.556e-43
1.713e-42
-1.108e-41
6.849e-41
-3.953e-40
2.026e-39
-7.145e-39
-3.843e-39
4.339e-37
-6.079e-36
6.469e-35
-6.091e-34
5.329e-33
-4.425e-32
3.528e-31
-2.717e-30
2.028e-29
-1.471e-28
1.038e-27
-7.128e-27
4.764e-26
-3.098e-25
1.963e-24
-1.204e-23
7.242e-23
-4.11e-22
2.526e-21
-9.062e-21
4.181e-19
6.106e-18
5.17e-17
3.711e-16
2.408e-15
1.418e-14
7.549e-14
3.618e-13
1.555e-12
5.977e-12
2.048e-11
6.248e-11
1.696e-10
4.099e-10
8.832e-10
1.703e-09
2.947e-09
4.623e-09
6.624e-09
8.744e-09
1.072e-08
1.23e-08
1.342e-08
1.347e-08
1.315e-08
1.24e-08
1.132e-08
1.007e-08
8.766e-09
7.516e-09
6.377e-09
5.378e-09
4.526e-09
3.813e-09
3.226e-09
2.747e-09
2.359e-09
2.046e-09
1.794e-09
1.593e-09
1.432e-09
1.303e-09
1.202e-09
1.123e-09
1.062e-09
1.016e-09
9.841e-10
9.639e-10
9.528e-10
9.546e-10
9.633e-10
9.802e-10
1.006e-09
1.039e-09
1.082e-09
1.133e-09
1.193e-09
1.262e-09
1.342e-09
1.433e-09
1.536e-09
1.652e-09
1.781e-09
1.925e-09
2.086e-09
2.265e-09
2.463e-09
2.681e-09
2.923e-09
3.19e-09
3.483e-09
3.805e-09
4.159e-09
4.547e-09
4.971e-09
5.434e-09
5.938e-09
6.49e-09
7.065e-09
8.017e-09
-1.439e-57
1.436e-56
-1.126e-55
8.258e-55
-5.653e-54
3.633e-53
-2.204e-52
1.271e-51
-7.018e-51
3.733e-50
-1.927e-49
9.728e-49
-4.84e-48
2.397e-47
-1.196e-46
6.093e-46
-3.214e-45
1.775e-44
-1.031e-43
6.3e-43
-4.03e-42
2.684e-41
-1.857e-40
1.331e-39
-9.864e-39
7.536e-38
-5.935e-37
4.591e-36
-3.508e-35
2.644e-34
-1.964e-33
1.438e-32
-1.036e-31
7.356e-31
-5.139e-30
3.531e-29
-2.386e-28
1.584e-27
-1.033e-26
6.607e-26
-4.143e-25
2.546e-24
-1.526e-23
9.047e-23
-5.092e-22
3.076e-21
-1.181e-20
4.763e-19
7.71e-18
7.256e-17
5.858e-16
4.297e-15
2.867e-14
1.731e-13
9.407e-13
4.579e-12
1.987e-11
7.658e-11
2.614e-10
7.884e-10
2.099e-09
4.935e-09
1.026e-08
1.893e-08
3.114e-08
4.617e-08
6.235e-08
7.746e-08
8.93e-08
9.705e-08
9.643e-08
9.272e-08
8.564e-08
7.625e-08
6.587e-08
5.555e-08
4.601e-08
3.763e-08
3.054e-08
2.471e-08
2.001e-08
1.626e-08
1.33e-08
1.098e-08
9.165e-09
7.742e-09
6.626e-09
5.75e-09
5.061e-09
4.518e-09
4.092e-09
3.758e-09
3.498e-09
3.3e-09
3.152e-09
3.046e-09
2.979e-09
2.937e-09
2.94e-09
2.962e-09
3.008e-09
3.079e-09
3.175e-09
3.296e-09
3.441e-09
3.613e-09
3.813e-09
4.041e-09
4.3e-09
4.591e-09
4.918e-09
5.283e-09
5.688e-09
6.137e-09
6.634e-09
7.183e-09
7.787e-09
8.451e-09
9.18e-09
9.978e-09
1.085e-08
1.181e-08
1.285e-08
1.398e-08
1.521e-08
1.655e-08
1.794e-08
2.024e-08
8.814e-57
-8.714e-56
6.879e-55
-5.155e-54
3.659e-53
-2.47e-52
1.593e-51
-9.875e-51
5.916e-50
-3.446e-49
1.961e-48
-1.096e-47
6.035e-47
-3.287e-46
1.778e-45
-9.598e-45
5.207e-44
-2.868e-43
1.625e-42
-9.599e-42
5.976e-41
-3.932e-40
2.718e-39
-1.949e-38
1.432e-37
-1.066e-36
8.001e-36
-5.799e-35
4.129e-34
-2.894e-33
2.001e-32
-1.366e-31
9.205e-31
-6.13e-30
4.033e-29
-2.62e-28
1.681e-27
-1.064e-26
6.643e-26
-4.087e-25
2.476e-24
-1.474e-23
8.682e-23
-4.851e-22
2.923e-21
-1.164e-20
4.327e-19
7.751e-18
8.102e-17
7.354e-16
6.099e-15
4.616e-14
3.17e-13
1.962e-12
1.088e-11
5.372e-11
2.351e-10
9.08e-10
3.082e-09
9.172e-09
2.389e-08
5.445e-08
1.087e-07
1.911e-07
2.97e-07
4.144e-07
5.257e-07
6.135e-07
6.677e-07
6.604e-07
6.282e-07
5.71e-07
4.981e-07
4.198e-07
3.443e-07
2.765e-07
2.188e-07
1.714e-07
1.337e-07
1.043e-07
8.159e-08
6.427e-08
5.109e-08
4.108e-08
3.346e-08
2.764e-08
2.318e-08
1.974e-08
1.707e-08
1.5e-08
1.339e-08
1.213e-08
1.114e-08
1.039e-08
9.809e-09
9.382e-09
9.08e-09
8.887e-09
8.771e-09
8.782e-09
8.848e-09
8.985e-09
9.193e-09
9.472e-09
9.821e-09
1.024e-08
1.073e-08
1.13e-08
1.195e-08
1.268e-08
1.35e-08
1.442e-08
1.544e-08
1.657e-08
1.781e-08
1.919e-08
2.069e-08
2.235e-08
2.416e-08
2.613e-08
2.829e-08
3.064e-08
3.319e-08
3.597e-08
3.896e-08
4.223e-08
4.558e-08
5.115e-08
-4.257e-56
4.166e-55
-3.299e-54
2.509e-53
-1.827e-52
1.277e-51
-8.601e-51
5.619e-50
-3.583e-49
2.246e-48
-1.394e-47
8.619e-47
-5.337e-46
3.32e-45
-2.076e-44
1.305e-43
-8.233e-43
5.202e-42
-3.287e-41
2.076e-40
-1.308e-39
8.23e-39
-5.174e-38
3.254e-37
-2.051e-36
1.297e-35
-8.265e-35
5.251e-34
-3.335e-33
2.117e-32
-1.341e-31
8.469e-31
-5.331e-30
3.341e-29
-2.082e-28
1.289e-27
-7.926e-27
4.831e-26
-2.917e-25
1.743e-24
-1.029e-23
6.017e-23
-3.395e-22
2.145e-21
-8.767e-21
3.094e-19
6.12e-18
7.09e-17
7.216e-16
6.75e-15
5.789e-14
4.52e-13
3.191e-12
2.022e-11
1.142e-10
5.714e-10
2.518e-09
9.72e-09
3.273e-08
9.581e-08
2.433e-07
5.353e-07
1.021e-06
1.701e-06
2.483e-06
3.246e-06
3.864e-06
4.253e-06
4.201e-06
3.974e-06
3.575e-06
3.072e-06
2.541e-06
2.037e-06
1.595e-06
1.227e-06
9.323e-07
7.04e-07
5.307e-07
4.011e-07
3.05e-07
2.34e-07
1.817e-07
1.43e-07
1.142e-07
9.27e-08
7.65e-08
6.42e-08
5.479e-08
4.755e-08
4.195e-08
3.76e-08
3.422e-08
3.16e-08
2.959e-08
2.806e-08
2.695e-08
2.618e-08
2.57e-08
2.545e-08
2.552e-08
2.576e-08
2.619e-08
2.682e-08
2.764e-08
2.865e-08
2.986e-08
3.127e-08
3.288e-08
3.471e-08
3.677e-08
3.907e-08
4.162e-08
4.444e-08
4.756e-08
5.098e-08
5.473e-08
5.884e-08
6.332e-08
6.821e-08
7.353e-08
7.93e-08
8.555e-08
9.231e-08
9.961e-08
1.075e-07
1.156e-07
1.29e-07
1.535e-55
-1.528e-54
1.224e-53
-9.406e-53
6.912e-52
-4.862e-51
3.275e-50
-2.112e-49
1.303e-48
-7.689e-48
4.327e-47
-2.313e-46
1.165e-45
-5.438e-45
2.279e-44
-7.873e-44
1.536e-43
6.91e-43
-1.137e-41
9.834e-41
-6.496e-40
3.139e-39
-1.046e-38
-1.707e-38
7.747e-37
-9.898e-36
9.715e-35
-8.155e-34
6.319e-33
-4.65e-32
3.298e-31
-2.275e-30
1.535e-29
-1.016e-28
6.62e-28
-4.25e-27
2.693e-26
-1.685e-25
1.042e-24
-6.363e-24
3.845e-23
-2.28e-22
1.411e-21
-5.166e-21
1.705e-19
3.75e-18
4.806e-17
5.461e-16
5.737e-15
5.553e-14
4.918e-13
3.954e-12
2.863e-11
1.853e-10
1.063e-09
5.371e-09
2.374e-08
9.125e-08
3.034e-07
8.698e-07
2.142e-06
4.523e-06
8.2e-06
1.286e-05
1.753e-05
2.149e-05
2.419e-05
2.397e-05
2.269e-05
2.033e-05
1.733e-05
1.416e-05
1.118e-05
8.595e-06
6.47e-06
4.8e-06
3.53e-06
2.586e-06
1.897e-06
1.398e-06
1.04e-06
7.82e-07
5.962e-07
4.617e-07
3.635e-07
2.913e-07
2.376e-07
1.973e-07
1.668e-07
1.435e-07
1.256e-07
1.118e-07
1.011e-07
9.272e-08
8.629e-08
8.139e-08
7.772e-08
7.508e-08
7.335e-08
7.224e-08
7.206e-08
7.24e-08
7.326e-08
7.465e-08
7.657e-08
7.901e-08
8.196e-08
8.543e-08
8.943e-08
9.399e-08
9.911e-08
1.048e-07
1.112e-07
1.182e-07
1.26e-07
1.345e-07
1.438e-07
1.54e-07
1.65e-07
1.77e-07
1.901e-07
2.042e-07
2.194e-07
2.359e-07
2.535e-07
2.726e-07
2.92e-07
3.242e-07
-7.661e-55
7.019e-54
-5.389e-53
4.147e-52
-3.169e-51
2.397e-50
-1.788e-49
1.312e-48
-9.445e-48
6.671e-47
-4.621e-46
3.142e-45
-2.099e-44
1.38e-43
-8.943e-43
5.722e-42
-3.621e-41
2.269e-40
-1.41e-39
8.693e-39
-5.333e-38
3.258e-37
-1.981e-36
1.2e-35
-7.249e-35
4.365e-34
-2.619e-33
1.563e-32
-9.289e-32
5.495e-31
-3.237e-30
1.899e-29
-1.11e-28
6.462e-28
-3.749e-27
2.167e-26
-1.248e-25
7.163e-25
-4.096e-24
2.334e-23
-1.321e-22
7.686e-22
-3.326e-21
5.46e-20
1.722e-18
2.501e-17
3.164e-16
3.71e-15
4.029e-14
4.027e-13
3.672e-12
3.03e-11
2.243e-10
1.476e-09
8.562e-09
4.344e-08
1.914e-07
7.272e-07
2.37e-06
6.599e-06
1.564e-05
3.144e-05
5.385e-05
7.914e-05
0.0001004
0.0001178
0.0001176
0.0001122
0.000101
8.61e-05
7.015e-05
5.505e-05
4.192e-05
3.118e-05
2.278e-05
1.645e-05
1.18e-05
8.458e-06
6.08e-06
4.403e-06
3.223e-06
2.391e-06
1.801e-06
1.38e-06
1.077e-06
8.559e-07
6.933e-07
5.724e-07
4.813e-07
4.122e-07
3.592e-07
3.184e-07
2.867e-07
2.621e-07
2.431e-07
2.285e-07
2.175e-07
2.094e-07
2.038e-07
2.004e-07
1.987e-07
1.992e-07
2.009e-07
2.04e-07
2.085e-07
2.144e-07
2.216e-07
2.301e-07
2.4e-07
2.513e-07
2.64e-07
2.783e-07
2.941e-07
3.115e-07
3.307e-07
3.517e-07
3.746e-07
3.996e-07
4.267e-07
4.561e-07
4.878e-07
5.221e-07
5.589e-07
5.985e-07
6.408e-07
6.864e-07
7.325e-07
8.087e-07
-1.751e-54
1.748e-53
-1.42e-52
1.117e-51
-8.476e-51
6.211e-50
-4.4e-49
3.018e-48
-2.008e-47
1.299e-46
-8.189e-46
5.05e-45
-3.058e-44
1.824e-43
-1.078e-42
6.337e-42
-3.726e-41
2.202e-40
-1.314e-39
7.949e-39
-4.876e-38
3.034e-37
-1.916e-36
1.225e-35
-7.904e-35
5.142e-34
-3.345e-33
2.156e-32
-1.377e-31
8.726e-31
-5.489e-30
3.432e-29
-2.134e-28
1.321e-27
-8.14e-27
5e-26
-3.062e-25
1.87e-24
-1.14e-23
6.937e-23
-4.187e-22
2.68e-21
-9.122e-21
3.902e-19
9.636e-18
1.399e-16
1.82e-15
2.202e-14
2.466e-13
2.535e-12
2.372e-11
2e-10
1.506e-09
1.002e-08
5.836e-08
2.949e-07
1.282e-06
4.76e-06
1.501e-05
4.009e-05
9.025e-05
0.0001713
0.0002754
0.0003771
0.0004532
0.0004774
0.00046
0.0004182
0.0003599
0.0002954
0.0002331
0.0001781
0.0001325
9.653e-05
6.924e-05
4.916e-05
3.474e-05
2.456e-05
1.745e-05
1.251e-05
9.074e-06
6.682e-06
5.004e-06
3.817e-06
2.967e-06
2.351e-06
1.901e-06
1.566e-06
1.316e-06
1.125e-06
9.8e-07
8.679e-07
7.81e-07
7.135e-07
6.611e-07
6.208e-07
5.902e-07
5.676e-07
5.516e-07
5.418e-07
5.353e-07
5.361e-07
5.397e-07
5.468e-07
5.575e-07
5.718e-07
5.894e-07
6.105e-07
6.349e-07
6.629e-07
6.944e-07
7.296e-07
7.686e-07
8.116e-07
8.588e-07
9.103e-07
9.664e-07
1.027e-06
1.093e-06
1.164e-06
1.24e-06
1.323e-06
1.41e-06
1.504e-06
1.604e-06
1.712e-06
1.819e-06
1.996e-06
7.027e-54
-6.528e-53
5.061e-52
-3.909e-51
2.984e-50
-2.246e-49
1.663e-48
-1.21e-47
8.641e-47
-6.055e-46
4.164e-45
-2.811e-44
1.865e-43
-1.218e-42
7.829e-42
-4.964e-41
3.109e-40
-1.925e-39
1.18e-38
-7.172e-38
4.326e-37
-2.592e-36
1.544e-35
-9.152e-35
5.403e-34
-3.178e-33
1.862e-32
-1.086e-31
6.317e-31
-3.665e-30
2.122e-29
-1.227e-28
7.094e-28
-4.101e-27
2.372e-26
-1.374e-25
7.972e-25
-4.638e-24
2.708e-23
-1.582e-22
9.596e-22
-4.239e-21
8.825e-20
2.955e-18
4.76e-17
6.805e-16
9.089e-15
1.131e-13
1.301e-12
1.37e-11
1.31e-10
1.123e-09
8.55e-09
5.711e-08
3.309e-07
1.647e-06
6.967e-06
2.487e-05
7.459e-05
0.0001876
0.0003949
0.0007022
0.001048
0.001346
0.001504
0.001471
0.001364
0.001198
0.001005
0.0008098
0.0006307
0.000477
0.000352
0.0002546
0.0001815
0.0001281
9.004e-05
6.336e-05
4.485e-05
3.206e-05
2.322e-05
1.709e-05
1.28e-05
9.774e-06
7.61e-06
6.045e-06
4.898e-06
4.047e-06
3.409e-06
2.924e-06
2.552e-06
2.266e-06
2.043e-06
1.87e-06
1.736e-06
1.632e-06
1.553e-06
1.495e-06
1.453e-06
1.427e-06
1.41e-06
1.411e-06
1.419e-06
1.437e-06
1.463e-06
1.498e-06
1.542e-06
1.594e-06
1.654e-06
1.723e-06
1.801e-06
1.888e-06
1.983e-06
2.088e-06
2.203e-06
2.328e-06
2.463e-06
2.609e-06
2.767e-06
2.936e-06
3.116e-06
3.309e-06
3.515e-06
3.733e-06
3.964e-06
4.21e-06
4.454e-06
4.854e-06
1.044e-53
-1.03e-52
8.364e-52
-6.646e-51
5.138e-50
-3.865e-49
2.828e-48
-2.016e-47
1.401e-46
-9.504e-46
6.312e-45
-4.111e-44
2.633e-43
-1.662e-42
1.037e-41
-6.404e-41
3.927e-40
-2.396e-39
1.456e-38
-8.835e-38
5.357e-37
-3.25e-36
1.974e-35
-1.201e-34
7.327e-34
-4.485e-33
2.743e-32
-1.672e-31
1.015e-30
-6.15e-30
3.72e-29
-2.248e-28
1.359e-27
-8.225e-27
4.988e-26
-3.033e-25
1.852e-24
-1.136e-23
7.016e-23
-4.335e-22
2.858e-21
-1.03e-20
4.418e-19
1.208e-17
1.95e-16
2.856e-15
3.913e-14
4.991e-13
5.874e-12
6.316e-11
6.138e-10
5.326e-09
4.074e-08
2.71e-07
1.547e-06
7.487e-06
3.029e-05
0.000102
0.0002845
0.0006601
0.001279
0.002124
0.002897
0.003519
0.003515
0.003352
0.003035
0.002634
0.002204
0.001783
0.001397
0.001064
0.0007901
0.0005749
0.0004119
0.0002921
0.0002061
0.0001456
0.0001035
7.436e-05
5.415e-05
4.008e-05
3.022e-05
2.323e-05
1.821e-05
1.457e-05
1.189e-05
9.889e-06