/*--------------------------------*- C++ -*----------------------------------*\
  =========                 |
  \\      /  F ield         | OpenFOAM: The Open Source CFD Toolbox
   \\    /   O peration     | Website:  https://openfoam.org
    \\  /    A nd           | Version:  7
     \\/     M anipulation  |
\*---------------------------------------------------------------------------*/
FoamFile
{
    version     2.0;
    format      ascii;
    class       volScalarField;
    location    "599.999473410984592";
    object      p;
}
// * * * * * * * * * * * * * * * * * * * * * * * * * * * * * * * * * * * * * //

dimensions      [0 2 -2 0 0 0 0];

internalField   nonuniform List<scalar> 
4096
(
0.0006546
0.0004837
0.0003995
0.0003573
0.000334
0.0003201
0.0003112
0.0003051
0.0003008
0.0002975
0.000295
0.000293
0.0002913
0.0002899
0.0002888
0.0002878
0.0002869
0.0002861
0.0002854
0.0002847
0.0002841
0.0002836
0.000283
0.0002825
0.000282
0.0002815
0.000281
0.0002805
0.00028
0.0002795
0.0002789
0.0002784
0.0002778
0.0002771
0.0002765
0.0002757
0.0002749
0.000274
0.000273
0.0002719
0.0002707
0.0002693
0.0002677
0.0002659
0.0002638
0.0002615
0.0002589
0.0002559
0.0002526
0.0002489
0.0002448
0.0002402
0.0002352
0.0002297
0.0002237
0.0002172
0.0002103
0.0002029
0.0001951
0.0001869
0.0001784
0.0001696
0.0001606
0.0001516
0.0001425
0.0001334
0.0001246
0.0001159
0.0001075
9.939e-05
9.17e-05
8.441e-05
7.756e-05
7.115e-05
6.521e-05
5.972e-05
5.468e-05
5.008e-05
4.59e-05
4.213e-05
3.873e-05
3.568e-05
3.296e-05
3.053e-05
2.838e-05
2.647e-05
2.477e-05
2.327e-05
2.193e-05
2.074e-05
1.968e-05
1.872e-05
1.786e-05
1.708e-05
1.636e-05
1.569e-05
1.508e-05
1.449e-05
1.394e-05
1.341e-05
1.29e-05
1.241e-05
1.192e-05
1.145e-05
1.097e-05
1.051e-05
1.004e-05
9.577e-06
9.112e-06
8.645e-06
8.178e-06
7.708e-06
7.235e-06
6.759e-06
6.28e-06
5.797e-06
5.311e-06
4.821e-06
4.327e-06
3.829e-06
3.329e-06
2.825e-06
2.321e-06
1.817e-06
1.318e-06
8.319e-07
3.756e-07
4.556e-08
0.0005102
0.0004464
0.0003966
0.0003646
0.0003437
0.0003294
0.0003194
0.000312
0.0003066
0.0003023
0.000299
0.0002964
0.0002942
0.0002924
0.0002908
0.0002895
0.0002883
0.0002873
0.0002864
0.0002855
0.0002847
0.000284
0.0002833
0.0002826
0.000282
0.0002814
0.0002807
0.0002801
0.0002795
0.0002788
0.0002782
0.0002775
0.0002767
0.000276
0.0002751
0.0002743
0.0002733
0.0002722
0.0002711
0.0002698
0.0002684
0.0002668
0.000265
0.0002631
0.0002609
0.0002584
0.0002557
0.0002526
0.0002492
0.0002454
0.0002413
0.0002367
0.0002317
0.0002263
0.0002205
0.0002142
0.0002074
0.0002003
0.0001928
0.000185
0.0001768
0.0001685
0.00016
0.0001513
0.0001427
0.0001341
0.0001256
0.0001174
0.0001093
0.0001016
9.422e-05
8.719e-05
8.055e-05
7.431e-05
6.85e-05
6.309e-05
5.81e-05
5.352e-05
4.932e-05
4.55e-05
4.202e-05
3.889e-05
3.605e-05
3.351e-05
3.122e-05
2.917e-05
2.732e-05
2.567e-05
2.419e-05
2.285e-05
2.164e-05
2.054e-05
1.955e-05
1.863e-05
1.779e-05
1.701e-05
1.628e-05
1.559e-05
1.494e-05
1.432e-05
1.373e-05
1.316e-05
1.26e-05
1.206e-05
1.153e-05
1.1e-05
1.049e-05
9.977e-06
9.471e-06
8.967e-06
8.465e-06
7.964e-06
7.464e-06
6.963e-06
6.462e-06
5.96e-06
5.457e-06
4.953e-06
4.447e-06
3.939e-06
3.431e-06
2.921e-06
2.413e-06
1.907e-06
1.406e-06
9.157e-07
4.452e-07
7.438e-08
0.0004267
0.000405
0.0003796
0.0003588
0.0003433
0.0003316
0.0003226
0.0003156
0.00031
0.0003056
0.0003019
0.000299
0.0002965
0.0002943
0.0002925
0.000291
0.0002896
0.0002884
0.0002872
0.0002862
0.0002853
0.0002844
0.0002836
0.0002828
0.000282
0.0002812
0.0002805
0.0002797
0.000279
0.0002782
0.0002774
0.0002766
0.0002757
0.0002748
0.0002739
0.0002728
0.0002717
0.0002705
0.0002692
0.0002678
0.0002662
0.0002645
0.0002626
0.0002605
0.0002582
0.0002556
0.0002527
0.0002496
0.0002461
0.0002423
0.0002381
0.0002336
0.0002287
0.0002233
0.0002176
0.0002115
0.0002049
0.0001981
0.0001908
0.0001833
0.0001755
0.0001675
0.0001594
0.0001511
0.0001429
0.0001347
0.0001266
0.0001187
0.000111
0.0001035
9.64e-05
8.96e-05
8.316e-05
7.709e-05
7.14e-05
6.609e-05
6.115e-05
5.659e-05
5.239e-05
4.854e-05
4.502e-05
4.181e-05
3.889e-05
3.625e-05
3.385e-05
3.168e-05
2.971e-05
2.793e-05
2.631e-05
2.485e-05
2.351e-05
2.229e-05
2.116e-05
2.013e-05
1.918e-05
1.828e-05
1.745e-05
1.667e-05
1.593e-05
1.522e-05
1.455e-05
1.39e-05
1.328e-05
1.267e-05
1.208e-05
1.15e-05
1.094e-05
1.038e-05
9.834e-06
9.293e-06
8.758e-06
8.226e-06
7.699e-06
7.174e-06
6.651e-06
6.129e-06
5.609e-06
5.089e-06
4.57e-06
4.052e-06
3.534e-06
3.016e-06
2.501e-06
1.987e-06
1.478e-06
9.749e-07
4.819e-07
7.896e-08
0.0003819
0.0003749
0.0003615
0.0003484
0.0003375
0.0003287
0.0003216
0.0003157
0.0003108
0.0003067
0.0003033
0.0003003
0.0002978
0.0002956
0.0002937
0.000292
0.0002905
0.0002891
0.0002879
0.0002867
0.0002857
0.0002847
0.0002837
0.0002828
0.000282
0.0002811
0.0002802
0.0002794
0.0002785
0.0002776
0.0002767
0.0002758
0.0002748
0.0002738
0.0002727
0.0002716
0.0002704
0.0002691
0.0002676
0.0002661
0.0002644
0.0002626
0.0002605
0.0002583
0.0002559
0.0002532
0.0002503
0.0002471
0.0002436
0.0002398
0.0002356
0.0002311
0.0002262
0.000221
0.0002153
0.0002094
0.000203
0.0001963
0.0001893
0.000182
0.0001745
0.0001667
0.0001589
0.0001509
0.000143
0.0001351
0.0001272
0.0001196
0.0001122
0.000105
9.807e-05
9.147e-05
8.52e-05
7.927e-05
7.369e-05
6.846e-05
6.359e-05
5.906e-05
5.487e-05
5.101e-05
4.746e-05
4.421e-05
4.124e-05
3.852e-05
3.604e-05
3.379e-05
3.173e-05
2.985e-05
2.813e-05
2.657e-05
2.513e-05
2.38e-05
2.258e-05
2.145e-05
2.04e-05
1.942e-05
1.85e-05
1.763e-05
1.681e-05
1.603e-05
1.529e-05
1.458e-05
1.389e-05
1.323e-05
1.259e-05
1.196e-05
1.135e-05
1.076e-05
1.017e-05
9.597e-06
9.031e-06
8.472e-06
7.919e-06
7.372e-06
6.828e-06
6.289e-06
5.752e-06
5.219e-06
4.687e-06
4.157e-06
3.628e-06
3.101e-06
2.576e-06
2.052e-06
1.531e-06
1.013e-06
4.985e-07
7.521e-08
0.000355
0.000354
0.0003471
0.0003385
0.0003307
0.0003241
0.0003186
0.0003139
0.0003099
0.0003064
0.0003033
0.0003006
0.0002982
0.0002961
0.0002942
0.0002925
0.0002909
0.0002895
0.0002882
0.000287
0.0002859
0.0002849
0.0002838
0.0002828
0.0002819
0.0002809
0.00028
0.0002791
0.0002781
0.0002771
0.0002762
0.0002751
0.0002741
0.000273
0.0002718
0.0002705
0.0002692
0.0002678
0.0002663
0.0002647
0.0002629
0.000261
0.0002589
0.0002566
0.0002541
0.0002514
0.0002484
0.0002452
0.0002417
0.0002378
0.0002337
0.0002292
0.0002244
0.0002192
0.0002136
0.0002077
0.0002015
0.000195
0.0001881
0.000181
0.0001737
0.0001661
0.0001585
0.0001507
0.000143
0.0001353
0.0001277
0.0001203
0.000113
0.000106
9.932e-05
9.288e-05
8.674e-05
8.093e-05
7.544e-05
7.029e-05
6.547e-05
6.098e-05
5.681e-05
5.295e-05
4.94e-05
4.612e-05
4.312e-05
4.036e-05
3.783e-05
3.551e-05
3.339e-05
3.144e-05
2.965e-05
2.801e-05
2.649e-05
2.509e-05
2.379e-05
2.258e-05
2.145e-05
2.04e-05
1.94e-05
1.847e-05
1.758e-05
1.674e-05
1.594e-05
1.517e-05
1.444e-05
1.372e-05
1.304e-05
1.237e-05
1.172e-05
1.109e-05
1.048e-05
9.871e-06
9.278e-06
8.694e-06
8.119e-06
7.551e-06
6.99e-06
6.434e-06
5.883e-06
5.336e-06
4.792e-06
4.251e-06
3.712e-06
3.176e-06
2.64e-06
2.106e-06
1.573e-06
1.041e-06
5.087e-07
7.092e-08
0.0003376
0.0003392
0.0003358
0.0003302
0.0003245
0.0003194
0.0003151
0.0003113
0.000308
0.0003051
0.0003025
0.0003001
0.0002979
0.000296
0.0002942
0.0002926
0.0002911
0.0002897
0.0002884
0.0002872
0.000286
0.0002849
0.0002838
0.0002828
0.0002818
0.0002808
0.0002798
0.0002788
0.0002777
0.0002767
0.0002757
0.0002746
0.0002734
0.0002722
0.000271
0.0002697
0.0002683
0.0002668
0.0002652
0.0002635
0.0002617
0.0002597
0.0002576
0.0002552
0.0002527
0.00025
0.000247
0.0002437
0.0002402
0.0002364
0.0002322
0.0002278
0.000223
0.0002178
0.0002124
0.0002066
0.0002004
0.000194
0.0001873
0.0001803
0.0001731
0.0001657
0.0001582
0.0001506
0.000143
0.0001354
0.000128
0.0001207
0.0001136
0.0001068
0.0001002
9.387e-05
8.784e-05
8.211e-05
7.671e-05
7.162e-05
6.685e-05
6.24e-05
5.825e-05
5.441e-05
5.086e-05
4.758e-05
4.456e-05
4.178e-05
3.922e-05
3.687e-05
3.47e-05
3.271e-05
3.087e-05
2.917e-05
2.759e-05
2.613e-05
2.477e-05
2.351e-05
2.232e-05
2.121e-05
2.016e-05
1.917e-05
1.823e-05
1.734e-05
1.649e-05
1.568e-05
1.49e-05
1.415e-05
1.342e-05
1.272e-05
1.204e-05
1.138e-05
1.074e-05
1.011e-05
9.491e-06
8.886e-06
8.292e-06
7.707e-06
7.13e-06
6.56e-06
5.996e-06
5.437e-06
4.883e-06
4.332e-06
3.784e-06
3.239e-06
2.694e-06
2.151e-06
1.608e-06
1.064e-06
5.169e-07
6.782e-08
0.0003257
0.0003282
0.0003269
0.0003233
0.0003191
0.0003151
0.0003116
0.0003086
0.0003058
0.0003034
0.0003012
0.0002991
0.0002972
0.0002955
0.0002939
0.0002923
0.0002909
0.0002896
0.0002883
0.0002871
0.0002859
0.0002848
0.0002837
0.0002827
0.0002816
0.0002806
0.0002795
0.0002785
0.0002774
0.0002764
0.0002752
0.0002741
0.0002729
0.0002717
0.0002704
0.000269
0.0002676
0.0002661
0.0002644
0.0002627
0.0002608
0.0002588
0.0002566
0.0002542
0.0002517
0.0002489
0.0002459
0.0002427
0.0002392
0.0002353
0.0002312
0.0002268
0.000222
0.0002169
0.0002115
0.0002058
0.0001997
0.0001933
0.0001867
0.0001798
0.0001726
0.0001653
0.0001579
0.0001504
0.0001429
0.0001355
0.0001281
0.000121
0.000114
0.0001072
0.0001007
9.448e-05
8.853e-05
8.288e-05
7.753e-05
7.249e-05
6.776e-05
6.335e-05
5.923e-05
5.541e-05
5.187e-05
4.86e-05
4.558e-05
4.28e-05
4.023e-05
3.786e-05
3.567e-05
3.365e-05
3.178e-05
3.005e-05
2.844e-05
2.694e-05
2.554e-05
2.423e-05
2.301e-05
2.185e-05
2.076e-05
1.973e-05
1.875e-05
1.782e-05
1.694e-05
1.609e-05
1.527e-05
1.449e-05
1.374e-05
1.301e-05
1.23e-05
1.162e-05
1.095e-05
1.03e-05
9.666e-06
9.044e-06
8.435e-06
7.835e-06
7.245e-06
6.664e-06
6.089e-06
5.521e-06
4.958e-06
4.399e-06
3.843e-06
3.29e-06
2.739e-06
2.188e-06
1.636e-06
1.083e-06
5.247e-07
6.655e-08
0.0003171
0.0003198
0.0003198
0.0003175
0.0003145
0.0003114
0.0003085
0.0003059
0.0003036
0.0003016
0.0002997
0.0002979
0.0002963
0.0002947
0.0002933
0.0002919
0.0002906
0.0002893
0.0002881
0.0002869
0.0002858
0.0002847
0.0002836
0.0002825
0.0002815
0.0002804
0.0002793
0.0002783
0.0002772
0.0002761
0.0002749
0.0002738
0.0002725
0.0002713
0.0002699
0.0002686
0.0002671
0.0002655
0.0002639
0.0002621
0.0002602
0.0002582
0.000256
0.0002536
0.0002511
0.0002483
0.0002453
0.0002421
0.0002386
0.0002348
0.0002307
0.0002263
0.0002215
0.0002165
0.0002111
0.0002053
0.0001993
0.000193
0.0001863
0.0001795
0.0001724
0.0001651
0.0001577
0.0001503
0.0001428
0.0001354
0.0001281
0.000121
0.0001141
0.0001074
0.0001009
9.475e-05
8.885e-05
8.324e-05
7.793e-05
7.293e-05
6.824e-05
6.385e-05
5.977e-05
5.597e-05
5.246e-05
4.921e-05
4.621e-05
4.343e-05
4.087e-05
3.851e-05
3.632e-05
3.429e-05
3.241e-05
3.066e-05
2.904e-05
2.752e-05
2.609e-05
2.476e-05
2.351e-05
2.232e-05
2.121e-05
2.015e-05
1.914e-05
1.818e-05
1.727e-05
1.64e-05
1.556e-05
1.475e-05
1.398e-05
1.323e-05
1.25e-05
1.18e-05
1.111e-05
1.045e-05
9.799e-06
9.165e-06
8.543e-06
7.933e-06
7.333e-06
6.743e-06
6.16e-06
5.585e-06
5.015e-06
4.45e-06
3.889e-06
3.33e-06
2.773e-06
2.217e-06
1.659e-06
1.099e-06
5.33e-07
6.743e-08
0.0003106
0.0003133
0.0003139
0.0003127
0.0003105
0.0003081
0.0003057
0.0003035
0.0003016
0.0002998
0.0002981
0.0002966
0.0002952
0.0002938
0.0002925
0.0002913
0.00029
0.0002889
0.0002877
0.0002866
0.0002855
0.0002844
0.0002834
0.0002823
0.0002813
0.0002802
0.0002792
0.0002781
0.000277
0.0002759
0.0002747
0.0002735
0.0002723
0.000271
0.0002697
0.0002683
0.0002668
0.0002652
0.0002636
0.0002618
0.0002599
0.0002579
0.0002557
0.0002533
0.0002508
0.0002481
0.0002451
0.0002419
0.0002384
0.0002346
0.0002305
0.0002262
0.0002214
0.0002164
0.000211
0.0002053
0.0001992
0.0001929
0.0001863
0.0001794
0.0001723
0.000165
0.0001576
0.0001501
0.0001426
0.0001352
0.0001279
0.0001208
0.0001139
0.0001073
0.0001008
9.468e-05
8.88e-05
8.321e-05
7.792e-05
7.295e-05
6.828e-05
6.392e-05
5.987e-05
5.611e-05
5.262e-05
4.941e-05
4.644e-05
4.369e-05
4.116e-05
3.881e-05
3.664e-05
3.463e-05
3.275e-05
3.101e-05
2.938e-05
2.786e-05
2.643e-05
2.508e-05
2.382e-05
2.262e-05
2.149e-05
2.042e-05
1.939e-05
1.842e-05
1.749e-05
1.66e-05
1.575e-05
1.492e-05
1.413e-05
1.337e-05
1.263e-05
1.192e-05
1.122e-05
1.055e-05
9.888e-06
9.244e-06
8.615e-06
7.997e-06
7.391e-06
6.795e-06
6.208e-06
5.628e-06
5.054e-06
4.485e-06
3.921e-06
3.359e-06
2.799e-06
2.239e-06
1.678e-06
1.113e-06
5.423e-07
7.065e-08
0.0003056
0.0003081
0.0003091
0.0003085
0.000307
0.0003052
0.0003032
0.0003014
0.0002997
0.0002981
0.0002967
0.0002954
0.0002941
0.0002929
0.0002917
0.0002906
0.0002895
0.0002884
0.0002873
0.0002863
0.0002852
0.0002842
0.0002832
0.0002821
0.0002811
0.0002801
0.000279
0.0002779
0.0002769
0.0002757
0.0002746
0.0002734
0.0002722
0.0002709
0.0002696
0.0002682
0.0002667
0.0002651
0.0002635
0.0002617
0.0002599
0.0002578
0.0002557
0.0002534
0.0002509
0.0002482
0.0002453
0.0002421
0.0002386
0.0002349
0.0002308
0.0002265
0.0002218
0.0002167
0.0002113
0.0002056
0.0001995
0.0001931
0.0001864
0.0001795
0.0001723
0.000165
0.0001575
0.0001499
0.0001424
0.0001349
0.0001276
0.0001205
0.0001135
0.0001069
0.0001004
9.426e-05
8.838e-05
8.278e-05
7.75e-05
7.253e-05
6.788e-05
6.355e-05
5.953e-05
5.581e-05
5.238e-05
4.921e-05
4.628e-05
4.358e-05
4.109e-05
3.879e-05
3.665e-05
3.467e-05
3.282e-05
3.11e-05
2.948e-05
2.797e-05
2.655e-05
2.521e-05
2.395e-05
2.275e-05
2.162e-05
2.054e-05
1.951e-05
1.853e-05
1.759e-05
1.67e-05
1.584e-05
1.501e-05
1.421e-05
1.344e-05
1.27e-05
1.197e-05
1.127e-05
1.059e-05
9.929e-06
9.282e-06
8.648e-06
8.028e-06
7.419e-06
6.82e-06
6.231e-06
5.649e-06
5.073e-06
4.504e-06
3.938e-06
3.376e-06
2.815e-06
2.254e-06
1.692e-06
1.126e-06
5.527e-07
7.637e-08
0.0003015
0.0003039
0.0003051
0.000305
0.000304
0.0003026
0.0003011
0.0002995
0.000298
0.0002966
0.0002954
0.0002942
0.000293
0.0002919
0.0002909
0.0002899
0.0002889
0.0002879
0.0002869
0.0002859
0.0002849
0.0002839
0.0002829
0.000282
0.000281
0.00028
0.0002789
0.0002779
0.0002768
0.0002757
0.0002746
0.0002734
0.0002722
0.0002709
0.0002696
0.0002682
0.0002668
0.0002653
0.0002636
0.0002619
0.0002601
0.0002581
0.000256
0.0002538
0.0002513
0.0002487
0.0002458
0.0002427
0.0002393
0.0002356
0.0002316
0.0002272
0.0002225
0.0002175
0.000212
0.0002062
0.0002001
0.0001936
0.0001869
0.0001799
0.0001726
0.0001651
0.0001575
0.0001498
0.0001421
0.0001345
0.0001271
0.0001199
0.0001129
0.0001062
9.969e-05
9.347e-05
8.755e-05
8.193e-05
7.663e-05
7.167e-05
6.703e-05
6.273e-05
5.876e-05
5.509e-05
5.171e-05
4.861e-05
4.575e-05
4.311e-05
4.069e-05
3.844e-05
3.636e-05
3.442e-05
3.262e-05
3.093e-05
2.935e-05
2.786e-05
2.647e-05
2.515e-05
2.39e-05
2.271e-05
2.159e-05
2.052e-05
1.95e-05
1.852e-05
1.759e-05
1.669e-05
1.583e-05
1.5e-05
1.421e-05
1.344e-05
1.269e-05
1.197e-05
1.127e-05
1.059e-05
9.925e-06
9.277e-06
8.644e-06
8.024e-06
7.415e-06
6.817e-06
6.228e-06
5.648e-06
5.074e-06
4.505e-06
3.941e-06
3.38e-06
2.821e-06
2.262e-06
1.701e-06
1.136e-06
5.645e-07
8.47e-08
0.0002982
0.0003004
0.0003017
0.0003019
0.0003014
0.0003003
0.0002991
0.0002978
0.0002965
0.0002953
0.0002942
0.0002931
0.0002921
0.0002911
0.0002901
0.0002892
0.0002883
0.0002874
0.0002864
0.0002855
0.0002846
0.0002837
0.0002827
0.0002818
0.0002808
0.0002799
0.0002789
0.0002779
0.0002768
0.0002758
0.0002747
0.0002735
0.0002723
0.0002711
0.0002698
0.0002685
0.0002671
0.0002656
0.000264
0.0002624
0.0002606
0.0002587
0.0002567
0.0002545
0.0002521
0.0002495
0.0002467
0.0002437
0.0002404
0.0002368
0.0002328
0.0002285
0.0002238
0.0002187
0.0002132
0.0002073
0.0002011
0.0001945
0.0001876
0.0001805
0.000173
0.0001654
0.0001576
0.0001497
0.0001417
0.000134
0.0001264
0.0001191
0.000112
0.0001051
9.856e-05
9.227e-05
8.628e-05
8.062e-05
7.529e-05
7.032e-05
6.571e-05
6.144e-05
5.752e-05
5.393e-05
5.063e-05
4.761e-05
4.484e-05
4.229e-05
3.994e-05
3.778e-05
3.577e-05
3.39e-05
3.215e-05
3.052e-05
2.899e-05
2.755e-05
2.618e-05
2.49e-05
2.367e-05
2.251e-05
2.141e-05
2.036e-05
1.935e-05
1.839e-05
1.747e-05
1.658e-05
1.573e-05
1.491e-05
1.412e-05
1.336e-05
1.262e-05
1.19e-05
1.121e-05
1.053e-05
9.873e-06
9.23e-06
8.601e-06
7.985e-06
7.38e-06
6.786e-06
6.201e-06
5.624e-06
5.054e-06
4.49e-06
3.93e-06
3.373e-06
2.818e-06
2.263e-06
1.707e-06
1.146e-06
5.778e-07
9.565e-08
0.0002955
0.0002975
0.0002988
0.0002993
0.000299
0.0002983
0.0002974
0.0002963
0.0002952
0.0002941
0.0002931
0.0002921
0.0002912
0.0002903
0.0002894
0.0002886
0.0002877
0.0002869
0.000286
0.0002852
0.0002843
0.0002835
0.0002826
0.0002817
0.0002808
0.0002798
0.0002789
0.0002779
0.0002769
0.0002759
0.0002748
0.0002737
0.0002726
0.0002714
0.0002702
0.0002689
0.0002675
0.0002661
0.0002646
0.000263
0.0002613
0.0002595
0.0002576
0.0002555
0.0002532
0.0002508
0.0002481
0.0002451
0.0002419
0.0002384
0.0002345
0.0002302
0.0002255
0.0002204
0.0002149
0.000209
0.0002026
0.0001959
0.0001888
0.0001814
0.0001738
0.0001659
0.0001578
0.0001495
0.0001413
0.0001333
0.0001255
0.000118
0.0001107
0.0001037
9.699e-05
9.058e-05
8.45e-05
7.877e-05
7.342e-05
6.845e-05
6.386e-05
5.966e-05
5.581e-05
5.231e-05
4.912e-05
4.621e-05
4.355e-05
4.111e-05
3.887e-05
3.681e-05
3.489e-05
3.311e-05
3.144e-05
2.988e-05
2.841e-05
2.703e-05
2.571e-05
2.447e-05
2.329e-05
2.217e-05
2.109e-05
2.007e-05
1.909e-05
1.815e-05
1.725e-05
1.638e-05
1.555e-05
1.474e-05
1.396e-05
1.321e-05
1.249e-05
1.178e-05
1.11e-05
1.043e-05
9.778e-06
9.142e-06
8.521e-06
7.913e-06
7.316e-06
6.728e-06
6.15e-06
5.58e-06
5.017e-06
4.459e-06
3.905e-06
3.355e-06
2.806e-06
2.258e-06
1.708e-06
1.154e-06
5.925e-07
1.092e-07
0.0002932
0.0002951
0.0002964
0.000297
0.000297
0.0002965
0.0002958
0.0002949
0.000294
0.0002931
0.0002922
0.0002913
0.0002904
0.0002896
0.0002888
0.000288
0.0002872
0.0002864
0.0002857
0.0002849
0.0002841
0.0002833
0.0002824
0.0002816
0.0002808
0.0002799
0.000279
0.0002781
0.0002771
0.0002761
0.0002751
0.0002741
0.000273
0.0002719
0.0002707
0.0002695
0.0002682
0.0002668
0.0002654
0.0002639
0.0002623
0.0002606
0.0002588
0.0002568
0.0002547
0.0002524
0.0002498
0.000247
0.0002439
0.0002405
0.0002367
0.0002325
0.0002279
0.0002228
0.0002173
0.0002113
0.0002048
0.0001978
0.0001905
0.0001829
0.0001749
0.0001667
0.0001582
0.0001495
0.0001408
0.0001324
0.0001242
0.0001164
0.0001089
0.0001017
9.484e-05
8.829e-05
8.211e-05
7.632e-05
7.095e-05
6.6e-05
6.147e-05
5.734e-05
5.361e-05
5.023e-05
4.718e-05
4.441e-05
4.189e-05
3.96e-05
3.749e-05
3.555e-05
3.375e-05
3.207e-05
3.05e-05
2.903e-05
2.763e-05
2.632e-05
2.507e-05
2.388e-05
2.275e-05
2.167e-05
2.064e-05
1.965e-05
1.871e-05
1.78e-05
1.693e-05
1.608e-05
1.527e-05
1.449e-05
1.373e-05
1.3e-05
1.229e-05
1.16e-05
1.093e-05
1.028e-05
9.639e-06
9.016e-06
8.407e-06
7.809e-06
7.222e-06
6.645e-06
6.076e-06
5.515e-06
4.961e-06
4.412e-06
3.867e-06
3.325e-06
2.786e-06
2.246e-06
1.705e-06
1.16e-06
6.088e-07
1.253e-07
0.0002913
0.000293
0.0002943
0.000295
0.0002952
0.0002949
0.0002944
0.0002937
0.0002929
0.0002921
0.0002913
0.0002905
0.0002897
0.000289
0.0002883
0.0002875
0.0002868
0.0002861
0.0002854
0.0002846
0.0002839
0.0002831
0.0002824
0.0002816
0.0002808
0.00028
0.0002791
0.0002783
0.0002774
0.0002764
0.0002755
0.0002745
0.0002735
0.0002724
0.0002713
0.0002702
0.000269
0.0002677
0.0002664
0.000265
0.0002635
0.0002619
0.0002602
0.0002584
0.0002564
0.0002543
0.0002519
0.0002493
0.0002464
0.0002432
0.0002395
0.0002355
0.000231
0.0002259
0.0002204
0.0002143
0.0002077
0.0002006
0.000193
0.000185
0.0001766
0.0001679
0.0001588
0.0001495
0.0001402
0.0001311
0.0001225
0.0001144
0.0001066
9.907e-05
9.196e-05
8.526e-05
7.899e-05
7.316e-05
6.779e-05
6.29e-05
5.846e-05
5.447e-05
5.089e-05
4.768e-05
4.48e-05
4.222e-05
3.988e-05
3.775e-05
3.581e-05
3.401e-05
3.235e-05
3.08e-05
2.934e-05
2.797e-05
2.667e-05
2.544e-05
2.426e-05
2.315e-05
2.208e-05
2.105e-05
2.007e-05
1.913e-05
1.822e-05
1.735e-05
1.652e-05
1.571e-05
1.492e-05
1.417e-05
1.344e-05
1.273e-05
1.204e-05
1.137e-05
1.072e-05
1.008e-05
9.462e-06
8.855e-06
8.26e-06
7.676e-06
7.102e-06
6.538e-06
5.981e-06
5.432e-06
4.889e-06
4.351e-06
3.817e-06
3.286e-06
2.757e-06
2.229e-06
1.699e-06
1.165e-06
6.264e-07
1.437e-07
0.0002897
0.0002913
0.0002925
0.0002933
0.0002936
0.0002935
0.0002932
0.0002926
0.000292
0.0002913
0.0002906
0.0002899
0.0002892
0.0002885
0.0002878
0.0002871
0.0002865
0.0002858
0.0002851
0.0002844
0.0002838
0.0002831
0.0002823
0.0002816
0.0002809
0.0002801
0.0002793
0.0002785
0.0002777
0.0002768
0.0002759
0.000275
0.0002741
0.0002731
0.0002721
0.000271
0.0002699
0.0002688
0.0002675
0.0002663
0.0002649
0.0002635
0.0002619
0.0002603
0.0002585
0.0002566
0.0002544
0.000252
0.0002494
0.0002463
0.0002429
0.0002391
0.0002347
0.0002299
0.0002244
0.0002183
0.0002117
0.0002044
0.0001965
0.0001881
0.0001793
0.00017
0.00016
0.0001496
0.0001393
0.0001294
0.0001201
0.0001114
0.0001032
9.542e-05
8.809e-05
8.128e-05
7.498e-05
6.917e-05
6.387e-05
5.909e-05
5.482e-05
5.101e-05
4.764e-05
4.466e-05
4.201e-05
3.964e-05
3.752e-05
3.56e-05
3.385e-05
3.223e-05
3.073e-05
2.932e-05
2.799e-05
2.674e-05
2.554e-05
2.44e-05
2.332e-05
2.227e-05
2.127e-05
2.032e-05
1.939e-05
1.85e-05
1.765e-05
1.682e-05
1.602e-05
1.525e-05
1.451e-05
1.378e-05
1.308e-05
1.24e-05
1.174e-05
1.109e-05
1.047e-05
9.851e-06
9.25e-06
8.661e-06
8.084e-06
7.517e-06
6.959e-06
6.409e-06
5.867e-06
5.332e-06
4.802e-06
4.277e-06
3.756e-06
3.238e-06
2.722e-06
2.206e-06
1.689e-06
1.17e-06
6.452e-07
1.642e-07
0.0002883
0.0002898
0.000291
0.0002918
0.0002922
0.0002922
0.000292
0.0002917
0.0002911
0.0002906
0.0002899
0.0002893
0.0002887
0.000288
0.0002874
0.0002868
0.0002862
0.0002856
0.0002849
0.0002843
0.0002837
0.000283
0.0002824
0.0002817
0.000281
0.0002803
0.0002796
0.0002788
0.0002781
0.0002773
0.0002765
0.0002756
0.0002748
0.0002739
0.0002729
0.000272
0.000271
0.0002699
0.0002688
0.0002677
0.0002665
0.0002652
0.0002639
0.0002624
0.0002608
0.0002591
0.0002572
0.0002551
0.0002528
0.00025
0.0002469
0.0002434
0.0002393
0.0002347
0.0002294
0.0002235
0.0002169
0.0002097
0.0002016
0.0001928
0.0001835
0.0001733
0.000162
0.00015
0.000138
0.0001267
0.0001163
0.000107
9.844e-05
9.037e-05
8.294e-05
7.615e-05
6.993e-05
6.424e-05
5.912e-05
5.455e-05
5.051e-05
4.697e-05
4.388e-05
4.118e-05
3.881e-05
3.672e-05
3.486e-05
3.318e-05
3.164e-05
3.022e-05
2.89e-05
2.765e-05
2.647e-05
2.535e-05
2.427e-05
2.324e-05
2.224e-05
2.129e-05
2.037e-05
1.948e-05
1.862e-05
1.779e-05
1.699e-05
1.621e-05
1.546e-05
1.474e-05
1.403e-05
1.334e-05
1.268e-05
1.203e-05
1.14e-05
1.078e-05
1.018e-05
9.585e-06
9.007e-06
8.44e-06
7.882e-06
7.334e-06
6.794e-06
6.262e-06
5.736e-06
5.217e-06
4.702e-06
4.192e-06
3.685e-06
3.182e-06
2.68e-06
2.178e-06
1.677e-06
1.173e-06
6.651e-07
1.865e-07
0.0002871
0.0002885
0.0002897
0.0002905
0.000291
0.0002911
0.0002911
0.0002908
0.0002904
0.0002899
0.0002894
0.0002888
0.0002883
0.0002877
0.0002871
0.0002865
0.000286
0.0002854
0.0002848
0.0002842
0.0002837
0.0002831
0.0002825
0.0002818
0.0002812
0.0002806
0.0002799
0.0002792
0.0002785
0.0002778
0.0002771
0.0002763
0.0002755
0.0002747
0.0002739
0.000273
0.0002721
0.0002712
0.0002702
0.0002692
0.0002682
0.0002671
0.000266
0.0002647
0.0002634
0.000262
0.0002604
0.0002586
0.0002566
0.0002542
0.0002515
0.0002484
0.0002447
0.0002404
0.0002355
0.00023
0.0002238
0.0002168
0.0002089
0.0002
0.0001904
0.0001792
0.0001658
0.0001508
0.0001358
0.000122
0.0001101
0.0001001
9.146e-05
8.339e-05
7.614e-05
6.963e-05
6.371e-05
5.831e-05
5.349e-05
4.925e-05
4.556e-05
4.237e-05
3.964e-05
3.729e-05
3.526e-05
3.35e-05
3.193e-05
3.052e-05
2.923e-05
2.804e-05
2.691e-05
2.584e-05
2.482e-05
2.383e-05
2.288e-05
2.196e-05
2.107e-05
2.021e-05
1.937e-05
1.856e-05
1.777e-05
1.701e-05
1.626e-05
1.554e-05
1.484e-05
1.416e-05
1.35e-05
1.286e-05
1.223e-05
1.162e-05
1.102e-05
1.043e-05
9.855e-06
9.291e-06
8.738e-06
8.195e-06
7.66e-06
7.133e-06
6.613e-06
6.099e-06
5.592e-06
5.089e-06
4.591e-06
4.097e-06
3.607e-06
3.119e-06
2.632e-06
2.147e-06
1.662e-06
1.175e-06
6.859e-07
2.103e-07
0.0002861
0.0002875
0.0002886
0.0002894
0.0002899
0.0002902
0.0002902
0.00029
0.0002897
0.0002893
0.0002889
0.0002884
0.0002879
0.0002874
0.0002869
0.0002863
0.0002858
0.0002853
0.0002848
0.0002842
0.0002837
0.0002831
0.0002826
0.000282
0.0002815
0.0002809
0.0002803
0.0002797
0.000279
0.0002784
0.0002777
0.000277
0.0002764
0.0002756
0.0002749
0.0002741
0.0002734
0.0002726
0.0002718
0.0002709
0.00027
0.0002691
0.0002682
0.0002672
0.0002661
0.000265
0.0002637
0.0002623
0.0002607
0.0002588
0.0002566
0.0002539
0.0002508
0.0002471
0.0002428
0.0002379
0.0002324
0.0002263
0.0002191
0.0002106
0.0002024
0.0001906
0.0001731
0.0001519
0.0001314
0.0001135
9.903e-05
8.899e-05
8.156e-05
7.395e-05
6.734e-05
6.159e-05
5.631e-05
5.141e-05
4.705e-05
4.327e-05
4.003e-05
3.729e-05
3.499e-05
3.306e-05
3.143e-05
3.003e-05
2.88e-05
2.769e-05
2.667e-05
2.571e-05
2.48e-05
2.391e-05
2.306e-05
2.222e-05
2.14e-05
2.06e-05
1.982e-05
1.905e-05
1.83e-05
1.757e-05
1.686e-05
1.617e-05
1.549e-05
1.483e-05
1.418e-05
1.355e-05
1.294e-05
1.233e-05
1.175e-05
1.117e-05
1.061e-05
1.005e-05
9.51e-06
8.976e-06
8.45e-06
7.931e-06
7.42e-06
6.916e-06
6.417e-06
5.924e-06
5.436e-06
4.952e-06
4.472e-06
3.995e-06
3.522e-06
3.05e-06
2.581e-06
2.113e-06
1.645e-06
1.177e-06
7.072e-07
2.353e-07
0.0002853
0.0002865
0.0002877
0.0002885
0.000289
0.0002893
0.0002894
0.0002894
0.0002892
0.0002889
0.0002885
0.0002881
0.0002876
0.0002872
0.0002867
0.0002862
0.0002857
0.0002852
0.0002847
0.0002843
0.0002838
0.0002833
0.0002828
0.0002823
0.0002817
0.0002812
0.0002807
0.0002801
0.0002796
0.000279
0.0002784
0.0002778
0.0002772
0.0002766
0.000276
0.0002753
0.0002747
0.000274
0.0002733
0.0002726
0.0002719
0.0002712
0.0002705
0.0002697
0.0002689
0.0002681
0.0002672
0.0002662
0.000265
0.0002637
0.000262
0.0002599
0.0002574
0.0002544
0.0002508
0.0002469
0.0002426
0.0002384
0.0002325
0.0002221
0.0002175
0.000214
0.0001936
0.000155
0.0001191
9.335e-05
7.963e-05
7.613e-05
7.124e-05
6.187e-05
5.628e-05
5.206e-05
4.785e-05
4.371e-05
3.997e-05
3.676e-05
3.407e-05
3.184e-05
3.003e-05
2.858e-05
2.739e-05
2.639e-05
2.553e-05
2.475e-05
2.401e-05
2.33e-05
2.261e-05
2.192e-05
2.123e-05
2.054e-05
1.986e-05
1.918e-05
1.851e-05
1.785e-05
1.719e-05
1.654e-05
1.591e-05
1.529e-05
1.467e-05
1.407e-05
1.349e-05
1.291e-05
1.234e-05
1.179e-05
1.124e-05
1.071e-05
1.018e-05
9.66e-06
9.149e-06
8.645e-06
8.147e-06
7.656e-06
7.17e-06
6.689e-06
6.212e-06
5.74e-06
5.272e-06
4.808e-06
4.346e-06
3.888e-06
3.432e-06
2.978e-06
2.526e-06
2.076e-06
1.627e-06
1.178e-06
7.289e-07
2.61e-07
0.0002845
0.0002858
0.0002868
0.0002877
0.0002882
0.0002886
0.0002888
0.0002888
0.0002886
0.0002884
0.0002881
0.0002878
0.0002874
0.000287
0.0002865
0.0002861
0.0002857
0.0002852
0.0002848
0.0002843
0.0002839
0.0002834
0.000283
0.0002825
0.0002821
0.0002816
0.0002811
0.0002806
0.0002801
0.0002796
0.0002791
0.0002786
0.0002781
0.0002776
0.0002771
0.0002765
0.000276
0.0002754
0.0002749
0.0002744
0.0002738
0.0002733
0.0002728
0.0002723
0.0002718
0.0002713
0.0002708
0.0002702
0.0002695
0.0002686
0.0002675
0.000266
0.0002642
0.0002619
0.0002592
0.0002562
0.0002535
0.0002512
0.0002499
0.0002381
0.000204
0.0001804
0.0001665
0.0001477
0.0001312
0.0001228
0.0001095
8.463e-05
5.726e-05
4.664e-05
4.51e-05
4.181e-05
3.896e-05
3.564e-05
3.255e-05
2.998e-05
2.787e-05
2.619e-05
2.492e-05
2.398e-05
2.327e-05
2.27e-05
2.222e-05
2.177e-05
2.132e-05
2.087e-05
2.039e-05
1.989e-05
1.938e-05
1.884e-05
1.83e-05
1.774e-05
1.718e-05
1.662e-05
1.605e-05
1.549e-05
1.494e-05
1.438e-05
1.384e-05
1.33e-05
1.277e-05
1.225e-05
1.173e-05
1.123e-05
1.072e-05
1.023e-05
9.739e-06
9.256e-06
8.778e-06
8.305e-06
7.836e-06
7.372e-06
6.912e-06
6.455e-06
6.002e-06
5.552e-06
5.104e-06
4.659e-06
4.217e-06
3.777e-06
3.339e-06
2.904e-06
2.47e-06
2.038e-06
1.608e-06
1.179e-06
7.506e-07
2.871e-07
0.000284
0.0002851
0.0002861
0.000287
0.0002876
0.000288
0.0002882
0.0002883
0.0002882
0.000288
0.0002878
0.0002875
0.0002872
0.0002868
0.0002864
0.000286
0.0002856
0.0002852
0.0002848
0.0002844
0.000284
0.0002836
0.0002832
0.0002828
0.0002824
0.000282
0.0002816
0.0002811
0.0002807
0.0002803
0.0002799
0.0002794
0.000279
0.0002786
0.0002781
0.0002777
0.0002773
0.0002769
0.0002765
0.0002761
0.0002757
0.0002754
0.0002751
0.0002748
0.0002746
0.0002744
0.0002742
0.000274
0.0002738
0.0002735
0.0002729
0.000272
0.0002708
0.0002691
0.000267
0.0002644
0.000261
0.0002605
0.0002504
0.0001921
0.0001677
0.0001397
0.0001231
0.0001344
0.0001532
0.0001585
0.0001436
0.0001185
0.0001032
5.357e-05
3.673e-05
3.438e-05
3.148e-05
2.76e-05
2.512e-05
2.319e-05
2.166e-05
2.054e-05
1.983e-05
1.941e-05
1.919e-05
1.906e-05
1.896e-05
1.883e-05
1.867e-05
1.846e-05
1.82e-05
1.789e-05
1.754e-05
1.715e-05
1.674e-05
1.63e-05
1.585e-05
1.539e-05
1.491e-05
1.444e-05
1.396e-05
1.348e-05
1.3e-05
1.253e-05
1.206e-05
1.159e-05
1.112e-05
1.066e-05
1.02e-05
9.748e-06
9.297e-06
8.849e-06
8.405e-06
7.963e-06
7.524e-06
7.087e-06
6.653e-06
6.221e-06
5.79e-06
5.362e-06
4.935e-06
4.51e-06
4.087e-06
3.666e-06
3.246e-06
2.829e-06
2.413e-06
1.999e-06
1.588e-06
1.179e-06
7.72e-07
3.13e-07
0.0002834
0.0002846
0.0002856
0.0002864
0.000287
0.0002874
0.0002877
0.0002878
0.0002878
0.0002877
0.0002875
0.0002873
0.000287
0.0002867
0.0002864
0.000286
0.0002857
0.0002853
0.0002849
0.0002846
0.0002842
0.0002838
0.0002835
0.0002831
0.0002827
0.0002824
0.000282
0.0002817
0.0002813
0.0002809
0.0002806
0.0002802
0.0002799
0.0002796
0.0002792
0.0002789
0.0002786
0.0002783
0.000278
0.0002778
0.0002775
0.0002774
0.0002773
0.0002772
0.0002772
0.0002773
0.0002775
0.0002777
0.0002779
0.0002781
0.000278
0.0002777
0.0002769
0.0002756
0.0002739
0.0002718
0.0002669
0.0002419
0.0002055
8.321e-05
4.394e-05
9.011e-06
8.875e-05
0.0001333
0.0001712
0.0002205
0.000321
0.0002165
0.0001866
9.738e-05
7.101e-05
3.373e-05
2.267e-05
1.978e-05
1.8e-05
1.673e-05
1.572e-05
1.511e-05
1.493e-05
1.503e-05
1.529e-05
1.558e-05
1.584e-05
1.603e-05
1.613e-05
1.615e-05
1.609e-05
1.595e-05
1.576e-05
1.551e-05
1.522e-05
1.49e-05
1.455e-05
1.418e-05
1.38e-05
1.34e-05
1.3e-05
1.259e-05
1.218e-05
1.176e-05
1.135e-05
1.093e-05
1.052e-05
1.01e-05
9.688e-06
9.274e-06
8.861e-06
8.449e-06
8.037e-06
7.626e-06
7.216e-06
6.806e-06
6.397e-06
5.989e-06
5.581e-06
5.174e-06
4.768e-06
4.363e-06
3.959e-06
3.556e-06
3.154e-06
2.754e-06
2.356e-06
1.961e-06
1.568e-06
1.179e-06
7.928e-07
3.383e-07
0.000283
0.0002841
0.0002851
0.0002859
0.0002865
0.000287
0.0002873
0.0002874
0.0002875
0.0002875
0.0002873
0.0002871
0.0002869
0.0002866
0.0002863
0.000286
0.0002857