/*--------------------------------*- C++ -*----------------------------------*\
  =========                 |
  \\      /  F ield         | OpenFOAM: The Open Source CFD Toolbox
   \\    /   O peration     | Website:  https://openfoam.org
    \\  /    A nd           | Version:  7
     \\/     M anipulation  |
\*---------------------------------------------------------------------------*/
FoamFile
{
    version     2.0;
    format      ascii;
    class       surfaceScalarField;
    location    "599.999473410984592";
    object      phi;
}
// * * * * * * * * * * * * * * * * * * * * * * * * * * * * * * * * * * * * * //

dimensions      [0 3 -1 0 0 0 0];

internalField   nonuniform List<scalar> 
8032
(
6.857e-10
2.518e-10
4.804e-10
2.053e-10
3.48e-10
1.324e-10
2.643e-10
8.372e-11
2.101e-10
5.415e-11
1.738e-10
3.635e-11
1.483e-10
2.548e-11
1.297e-10
1.862e-11
1.156e-10
1.41e-11
1.046e-10
1.099e-11
9.584e-11
8.748e-12
8.876e-11
7.079e-12
8.297e-11
5.796e-12
7.818e-11
4.783e-12
7.422e-11
3.965e-12
7.093e-11
3.292e-12
6.82e-11
2.727e-12
6.595e-11
2.245e-12
6.413e-11
1.827e-12
6.267e-11
1.46e-12
6.153e-11
1.132e-12
6.07e-11
8.338e-13
6.014e-11
5.59e-13
5.984e-11
3.017e-13
5.978e-11
5.696e-14
5.996e-11
-1.793e-13
6.037e-11
-4.107e-13
6.101e-11
-6.403e-13
6.188e-11
-8.709e-13
6.299e-11
-1.105e-12
6.433e-11
-1.344e-12
6.592e-11
-1.591e-12
6.777e-11
-1.847e-12
6.988e-11
-2.113e-12
7.227e-11
-2.39e-12
7.495e-11
-2.679e-12
7.793e-11
-2.98e-12
8.122e-11
-3.293e-12
8.484e-11
-3.616e-12
8.879e-11
-3.95e-12
9.308e-11
-4.291e-12
9.772e-11
-4.637e-12
1.027e-10
-4.985e-12
1.08e-10
-5.329e-12
1.137e-10
-5.664e-12
1.197e-10
-5.984e-12
1.26e-10
-6.281e-12
1.325e-10
-6.547e-12
1.393e-10
-6.774e-12
1.462e-10
-6.95e-12
1.533e-10
-7.067e-12
1.604e-10
-7.113e-12
1.675e-10
-7.08e-12
1.744e-10
-6.957e-12
1.812e-10
-6.738e-12
1.876e-10
-6.417e-12
1.936e-10
-5.989e-12
1.99e-10
-5.454e-12
2.039e-10
-4.815e-12
2.079e-10
-4.078e-12
2.112e-10
-3.256e-12
2.136e-10
-2.363e-12
2.15e-10
-1.419e-12
2.154e-10
-4.461e-13
2.149e-10
5.313e-13
2.134e-10
1.489e-12
2.11e-10
2.404e-12
2.077e-10
3.258e-12
2.037e-10
4.035e-12
1.99e-10
4.725e-12
1.937e-10
5.32e-12
1.878e-10
5.817e-12
1.816e-10
6.216e-12
1.751e-10
6.52e-12
1.684e-10
6.733e-12
1.615e-10
6.86e-12
1.546e-10
6.907e-12
1.477e-10
6.883e-12
1.409e-10
6.795e-12
1.343e-10
6.653e-12
1.278e-10
6.463e-12
1.216e-10
6.235e-12
1.156e-10
5.977e-12
1.099e-10
5.696e-12
1.045e-10
5.398e-12
9.942e-11
5.091e-12
9.464e-11
4.779e-12
9.017e-11
4.467e-12
8.601e-11
4.159e-12
8.215e-11
3.858e-12
7.859e-11
3.567e-12
7.53e-11
3.288e-12
7.228e-11
3.022e-12
6.951e-11
2.769e-12
6.698e-11
2.532e-12
6.467e-11
2.309e-12
6.256e-11
2.102e-12
6.066e-11
1.909e-12
5.893e-11
1.73e-12
5.736e-11
1.565e-12
5.595e-11
1.413e-12
5.467e-11
1.274e-12
5.353e-11
1.147e-12
5.25e-11
1.031e-12
5.157e-11
9.246e-13
5.074e-11
8.283e-13
5e-11
7.409e-13
4.934e-11
6.618e-13
4.875e-11
5.903e-13
4.822e-11
5.257e-13
4.776e-11
4.676e-13
4.734e-11
4.155e-13
4.697e-11
3.689e-13
4.665e-11
3.274e-13
4.635e-11
2.906e-13
4.61e-11
2.583e-13
4.587e-11
2.304e-13
4.566e-11
2.066e-13
4.547e-11
1.871e-13
4.53e-11
1.719e-13
4.514e-11
1.615e-13
4.498e-11
1.566e-13
4.482e-11
1.586e-13
4.465e-11
1.701e-13
4.446e-11
1.96e-13
4.421e-11
2.445e-13
4.389e-11
3.248e-13
4.221e-13
9.523e-10
2.37e-10
8.501e-10
3.075e-10
7.275e-10
2.55e-10
6.183e-10
1.929e-10
5.294e-10
1.43e-10
4.594e-10
1.064e-10
4.044e-10
8.045e-11
3.61e-10
6.203e-11
3.263e-10
4.877e-11
2.983e-10
3.901e-11
2.754e-10
3.165e-11
2.565e-10
2.596e-11
2.408e-10
2.148e-11
2.277e-10
1.786e-11
2.168e-10
1.49e-11
2.077e-10
1.243e-11
2.001e-10
1.034e-11
1.938e-10
8.538e-12
1.886e-10
6.969e-12
1.845e-10
5.582e-12
1.813e-10
4.337e-12
1.789e-10
3.202e-12
1.773e-10
2.154e-12
1.765e-10
1.17e-12
1.763e-10
2.329e-13
1.768e-10
-6.719e-13
1.779e-10
-1.558e-12
1.797e-10
-2.436e-12
1.822e-10
-3.316e-12
1.853e-10
-4.208e-12
1.891e-10
-5.119e-12
1.935e-10
-6.055e-12
1.987e-10
-7.022e-12
2.046e-10
-8.026e-12
2.113e-10
-9.068e-12
2.188e-10
-1.015e-11
2.271e-10
-1.128e-11
2.362e-10
-1.244e-11
2.462e-10
-1.364e-11
2.571e-10
-1.487e-11
2.69e-10
-1.613e-11
2.817e-10
-1.74e-11
2.954e-10
-1.867e-11
3.1e-10
-1.991e-11
3.255e-10
-2.113e-11
3.418e-10
-2.227e-11
3.588e-10
-2.333e-11
3.765e-10
-2.427e-11
3.948e-10
-2.506e-11
4.135e-10
-2.566e-11
4.325e-10
-2.604e-11
4.516e-10
-2.616e-11
4.705e-10
-2.599e-11
4.89e-10
-2.55e-11
5.069e-10
-2.466e-11
5.24e-10
-2.344e-11
5.398e-10
-2.185e-11
5.543e-10
-1.988e-11
5.67e-10
-1.754e-11
5.778e-10
-1.485e-11
5.864e-10
-1.186e-11
5.926e-10
-8.619e-12
5.964e-10
-5.2e-12
5.976e-10
-1.68e-12
5.963e-10
1.858e-12
5.925e-10
5.329e-12
5.862e-10
8.654e-12
5.777e-10
1.177e-11
5.671e-10
1.461e-11
5.547e-10
1.715e-11
5.407e-10
1.935e-11
5.253e-10
2.12e-11
5.088e-10
2.271e-11
4.915e-10
2.387e-11
4.735e-10
2.47e-11
4.551e-10
2.522e-11
4.366e-10
2.544e-11
4.181e-10
2.541e-11
3.997e-10
2.514e-11
3.817e-10
2.466e-11
3.642e-10
2.401e-11
3.472e-10
2.321e-11
3.309e-10
2.23e-11
3.153e-10
2.13e-11
3.004e-10
2.023e-11
2.864e-10
1.912e-11
2.732e-10
1.798e-11
2.608e-10
1.684e-11
2.493e-10
1.571e-11
2.385e-10
1.461e-11
2.286e-10
1.353e-11
2.194e-10
1.25e-11
2.109e-10
1.151e-11
2.031e-10
1.057e-11
1.959e-10
9.681e-12
1.894e-10
8.847e-12
1.834e-10
8.067e-12
1.78e-10
7.34e-12
1.73e-10
6.666e-12
1.686e-10
6.042e-12
1.645e-10
5.467e-12
1.609e-10
4.938e-12
1.575e-10
4.453e-12
1.546e-10
4.009e-12
1.519e-10
3.604e-12
1.495e-10
3.236e-12
1.473e-10
2.9e-12
1.454e-10
2.596e-12
1.437e-10
2.321e-12
1.421e-10
2.072e-12
1.407e-10
1.847e-12
1.395e-10
1.645e-12
1.384e-10
1.465e-12
1.374e-10
1.303e-12
1.366e-10
1.16e-12
1.358e-10
1.035e-12
1.351e-10
9.252e-13
1.345e-10
8.318e-13
1.339e-10
7.544e-13
1.334e-10
6.933e-13
1.329e-10
6.494e-13
1.324e-10
6.244e-13
1.32e-10
6.212e-13
1.315e-10
6.441e-13
1.31e-10
6.994e-13
1.304e-10
7.946e-13
1.298e-10
9.282e-13
1.054e-12
9.779e-10
1.966e-10
9.637e-10
3.217e-10
9.013e-10
3.174e-10
8.213e-10
2.729e-10
7.411e-10
2.232e-10
6.683e-10
1.793e-10
6.05e-10
1.437e-10
5.513e-10
1.158e-10
5.06e-10
9.406e-11
4.679e-10
7.71e-11
4.359e-10
6.372e-11
4.088e-10
5.302e-11
3.859e-10
4.433e-11
3.666e-10
3.719e-11
3.503e-10
3.123e-11
3.365e-10
2.62e-11
3.25e-10
2.188e-11
3.154e-10
1.814e-11
3.075e-10
1.485e-11
3.012e-10
1.192e-11
2.962e-10
9.274e-12
2.926e-10
6.855e-12
2.901e-10
4.61e-12
2.888e-10
2.498e-12
2.885e-10
4.823e-13
2.893e-10
-1.467e-12
2.911e-10
-3.376e-12
2.94e-10
-5.269e-12
2.978e-10
-7.167e-12
3.027e-10
-9.088e-12
3.086e-10
-1.105e-11
3.156e-10
-1.306e-11
3.238e-10
-1.513e-11
3.33e-10
-1.728e-11
3.434e-10
-1.951e-11
3.551e-10
-2.182e-11
3.68e-10
-2.421e-11
3.823e-10
-2.668e-11
3.979e-10
-2.922e-11
4.148e-10
-3.183e-11
4.332e-10
-3.448e-11
4.529e-10
-3.714e-11
4.741e-10
-3.98e-11
4.965e-10
-4.241e-11
5.204e-10
-4.493e-11
5.454e-10
-4.732e-11
5.716e-10
-4.951e-11
5.987e-10
-5.144e-11
6.267e-10
-5.304e-11
6.553e-10
-5.425e-11
6.843e-10
-5.499e-11
7.133e-10
-5.519e-11
7.421e-10
-5.477e-11
7.702e-10
-5.368e-11
7.975e-10
-5.186e-11
8.233e-10
-4.927e-11
8.473e-10
-4.59e-11
8.692e-10
-4.173e-11
8.884e-10
-3.68e-11
9.048e-10
-3.116e-11
9.178e-10
-2.49e-11
9.273e-10
-1.812e-11
9.331e-10
-1.097e-11
9.35e-10
-3.61e-12
9.331e-10
3.788e-12
9.274e-10
1.105e-11
9.18e-10
1.802e-11
9.052e-10
2.455e-11
8.893e-10
3.053e-11
8.706e-10
3.588e-11
8.494e-10
4.054e-11
8.261e-10
4.448e-11
8.011e-10
4.77e-11
7.748e-10
5.02e-11
7.475e-10
5.201e-11
7.195e-10
5.317e-11
6.913e-10
5.372e-11
6.63e-10
5.371e-11
6.349e-10
5.321e-11
6.073e-10
5.227e-11
5.803e-10
5.096e-11
5.542e-10
4.934e-11
5.29e-10
4.746e-11
5.049e-10
4.539e-11
4.82e-10
4.317e-11
4.603e-10
4.085e-11
4.397e-10
3.848e-11
4.205e-10
3.61e-11
4.025e-10
3.372e-11
3.857e-10
3.139e-11
3.701e-10
2.912e-11
3.557e-10
2.693e-11
3.424e-10
2.483e-11
3.301e-10
2.284e-11
3.188e-10
2.095e-11
3.085e-10
1.917e-11
2.991e-10
1.75e-11
2.905e-10
1.594e-11
2.826e-10
1.45e-11
2.755e-10
1.316e-11
2.691e-10
1.192e-11
2.632e-10
1.078e-11
2.579e-10
9.738e-12
2.532e-10
8.78e-12
2.489e-10
7.904e-12
2.45e-10
7.106e-12
2.415e-10
6.379e-12
2.384e-10
5.718e-12
2.356e-10
5.119e-12
2.331e-10
4.578e-12
2.308e-10
4.088e-12
2.288e-10
3.648e-12
2.271e-10
3.253e-12
2.255e-10
2.9e-12
2.24e-10
2.586e-12
2.228e-10
2.31e-12
2.216e-10
2.068e-12
2.206e-10
1.861e-12
2.197e-10
1.688e-12
2.188e-10
1.549e-12
2.18e-10
1.444e-12
2.173e-10
1.377e-12
2.165e-10
1.349e-12
2.158e-10
1.366e-12
2.151e-10
1.43e-12
2.143e-10
1.541e-12
2.136e-10
1.684e-12
1.801e-12
9.752e-10
1.589e-10
9.93e-10
3.038e-10
9.729e-10
3.376e-10
9.27e-10
3.188e-10
8.693e-10
2.809e-10
8.089e-10
2.397e-10
7.51e-10
2.016e-10
6.98e-10
1.687e-10
6.508e-10
1.413e-10
6.094e-10
1.185e-10
5.733e-10
9.979e-11
5.421e-10
8.425e-11
5.151e-10
7.128e-11
4.92e-10
6.036e-11
4.721e-10
5.107e-11
4.552e-10
4.31e-11
4.409e-10
3.618e-11
4.289e-10
3.011e-11
4.191e-10
2.472e-11
4.111e-10
1.988e-11
4.049e-10
1.549e-11
4.003e-10
1.145e-11
3.972e-10
7.676e-12
3.956e-10
4.116e-12
3.954e-10
7.084e-13
3.965e-10
-2.594e-12
3.99e-10
-5.834e-12
4.028e-10
-9.05e-12
4.079e-10
-1.227e-11
4.143e-10
-1.554e-11
4.221e-10
-1.886e-11
4.313e-10
-2.227e-11
4.42e-10
-2.579e-11
4.541e-10
-2.942e-11
4.678e-10
-3.318e-11
4.831e-10
-3.708e-11
5e-10
-4.111e-11
5.186e-10
-4.526e-11
5.389e-10
-4.953e-11
5.609e-10
-5.389e-11
5.848e-10
-5.832e-11
6.104e-10
-6.276e-11
6.378e-10
-6.719e-11
6.669e-10
-7.152e-11
6.976e-10
-7.57e-11
7.3e-10
-7.963e-11
7.637e-10
-8.324e-11
7.986e-10
-8.64e-11
8.346e-10
-8.902e-11
8.713e-10
-9.097e-11
9.085e-10
-9.213e-11
9.457e-10
-9.239e-11
9.825e-10
-9.162e-11
1.019e-09
-8.974e-11
1.053e-09
-8.665e-11
1.086e-09
-8.229e-11
1.117e-09
-7.662e-11
1.145e-09
-6.965e-11
1.17e-09
-6.142e-11
1.19e-09
-5.202e-11
1.207e-09
-4.158e-11
1.219e-09
-3.029e-11
1.227e-09
-1.84e-11
1.229e-09
-6.146e-12
1.227e-09
6.169e-12
1.22e-09
1.826e-11
1.208e-09
2.987e-11
1.192e-09
4.076e-11
1.171e-09
5.075e-11
1.148e-09
5.97e-11
1.121e-09
6.752e-11
1.091e-09
7.415e-11
1.059e-09
7.958e-11
1.025e-09
8.383e-11
9.905e-10
8.694e-11
9.547e-10
8.897e-11
9.184e-10
8.998e-11
8.821e-10
9.006e-11
8.46e-10
8.931e-11
8.104e-10
8.783e-11
7.756e-10
8.572e-11
7.419e-10
8.308e-11
7.094e-10
8.001e-11
6.781e-10
7.66e-11
6.484e-10
7.294e-11
6.201e-10
6.91e-11
5.934e-10
6.517e-11
5.683e-10
6.12e-11
5.448e-10
5.724e-11
5.229e-10
5.334e-11
5.025e-10
4.954e-11
4.835e-10
4.587e-11
4.66e-10
4.234e-11
4.499e-10
3.898e-11
4.35e-10
3.58e-11
4.214e-10
3.279e-11
4.089e-10
2.998e-11
3.975e-10
2.734e-11
3.871e-10
2.489e-11
3.777e-10
2.262e-11
3.691e-10
2.052e-11
3.613e-10
1.858e-11
3.542e-10
1.68e-11
3.478e-10
1.516e-11
3.421e-10
1.367e-11
3.369e-10
1.23e-11
3.322e-10
1.106e-11
3.28e-10
9.925e-12
3.242e-10
8.897e-12
3.208e-10
7.966e-12
3.178e-10
7.124e-12
3.151e-10
6.366e-12
3.126e-10
5.684e-12
3.104e-10
5.074e-12
3.085e-10
4.531e-12
3.068e-10
4.051e-12
3.052e-10
3.631e-12
3.038e-10
3.268e-12
3.025e-10
2.961e-12
3.014e-10
2.71e-12
3.003e-10
2.515e-12
2.993e-10
2.377e-12
2.983e-10
2.299e-12
2.974e-10
2.281e-12
2.965e-10
2.324e-12
2.956e-10
2.421e-12
2.948e-10
2.546e-12
2.643e-12
9.668e-10
1.296e-10
9.945e-10
2.761e-10
9.98e-10
3.341e-10
9.783e-10
3.385e-10
9.43e-10
3.163e-10
8.993e-10
2.833e-10
8.527e-10
2.481e-10
8.068e-10
2.147e-10
7.634e-10
1.846e-10
7.236e-10
1.584e-10
6.876e-10
1.357e-10
6.556e-10
1.163e-10
6.274e-10
9.952e-11
6.027e-10
8.509e-11
5.812e-10
7.257e-11
5.626e-10
6.164e-11
5.468e-10
5.201e-11
5.334e-10
4.346e-11
5.224e-10
3.579e-11
5.134e-10
2.885e-11
5.064e-10
2.249e-11
5.013e-10
1.66e-11
4.979e-10
1.107e-11
4.962e-10
5.831e-12
4.961e-10
7.982e-13
4.976e-10
-4.094e-12
5.006e-10
-8.905e-12
5.053e-10
-1.369e-11
5.115e-10
-1.848e-11
5.193e-10
-2.334e-11
5.287e-10
-2.829e-11
5.398e-10
-3.336e-11
5.526e-10
-3.858e-11
5.671e-10
-4.398e-11
5.835e-10
-4.956e-11
6.018e-10
-5.533e-11
6.219e-10
-6.129e-11
6.441e-10
-6.742e-11
6.683e-10
-7.372e-11
6.945e-10
-8.014e-11
7.229e-10
-8.665e-11
7.533e-10
-9.318e-11
7.858e-10
-9.966e-11
8.202e-10
-1.06e-10
8.566e-10
-1.121e-10
8.949e-10
-1.178e-10
9.347e-10
-1.231e-10
9.759e-10
-1.277e-10
1.018e-09
-1.314e-10
1.062e-09
-1.342e-10
1.105e-09
-1.359e-10
1.149e-09
-1.362e-10
1.192e-09
-1.35e-10
1.235e-09
-1.321e-10
1.276e-09
-1.275e-10
1.315e-09
-1.211e-10
1.351e-09
-1.127e-10
1.384e-09
-1.025e-10
1.412e-09
-9.038e-11
1.437e-09
-7.656e-11
1.457e-09
-6.123e-11
1.471e-09
-4.466e-11
1.48e-09
-2.718e-11
1.483e-09
-9.191e-12
1.48e-09
8.9e-12
1.472e-09
2.667e-11
1.458e-09
4.373e-11
1.439e-09
5.974e-11
1.415e-09
7.443e-11
1.387e-09
8.761e-11
1.356e-09
9.914e-11
1.321e-09
1.089e-10
1.284e-09
1.17e-10
1.244e-09
1.233e-10
1.203e-09
1.28e-10
1.161e-09
1.311e-10
1.118e-09
1.327e-10
1.075e-09
1.329e-10
1.033e-09
1.319e-10
9.908e-10
1.298e-10
9.497e-10
1.268e-10
9.098e-10
1.23e-10
8.712e-10
1.186e-10
8.342e-10
1.136e-10
7.988e-10
1.083e-10
7.652e-10
1.027e-10
7.335e-10
9.694e-11
7.036e-10
9.112e-11
6.755e-10
8.531e-11
6.492e-10
7.958e-11
6.248e-10
7.399e-11
6.021e-10
6.857e-11
5.811e-10
6.336e-11
5.617e-10
5.839e-11
5.438e-10
5.368e-11
5.274e-10
4.922e-11
5.123e-10
4.504e-11
4.985e-10
4.113e-11
4.859e-10
3.748e-11
4.744e-10
3.409e-11
4.64e-10
3.096e-11
4.545e-10
2.806e-11
4.459e-10
2.54e-11
4.381e-10
2.295e-11
4.311e-10
2.071e-11
4.247e-10
1.866e-11
4.19e-10
1.679e-11
4.138e-10
1.509e-11
4.092e-10
1.354e-11
4.05e-10
1.214e-11
4.013e-10
1.087e-11
3.979e-10
9.722e-12
3.949e-10
8.691e-12
3.922e-10
7.767e-12
3.898e-10
6.943e-12
3.877e-10
6.212e-12
3.857e-10
5.57e-12
3.84e-10
5.012e-12
3.824e-10
4.537e-12
3.81e-10
4.141e-12
3.797e-10
3.825e-12
3.784e-10
3.588e-12
3.773e-10
3.43e-12
3.762e-10
3.35e-12
3.752e-10
3.343e-12
3.742e-10
3.399e-12
3.733e-10
3.489e-12
3.561e-12
9.592e-10
1.079e-10
9.876e-10
2.477e-10
1.003e-09
3.188e-10
1.001e-09
3.409e-10
9.831e-10
3.337e-10
9.553e-10
3.112e-10
9.215e-10
2.819e-10
8.852e-10
2.51e-10
8.487e-10
2.211e-10
8.136e-10
1.935e-10
7.807e-10
1.686e-10
7.505e-10
1.465e-10
7.231e-10
1.268e-10
6.988e-10
1.095e-10
6.772e-10
9.412e-11
6.584e-10
8.046e-11
6.421e-10
6.826e-11
6.283e-10
5.727e-11
6.168e-10
4.731e-11
6.075e-10
3.819e-11
6.002e-10
2.978e-11
5.948e-10
2.192e-11
5.914e-10
1.452e-11
5.898e-10
7.452e-12
5.899e-10
6.392e-13
5.919e-10
-6.006e-12
5.955e-10
-1.256e-11
6.009e-10
-1.908e-11
6.08e-10
-2.563e-11
6.17e-10
-3.227e-11
6.277e-10
-3.903e-11
6.403e-10
-4.597e-11
6.548e-10
-5.31e-11
6.713e-10
-6.047e-11
6.899e-10
-6.808e-11
7.105e-10
-7.595e-11
7.333e-10
-8.406e-11
7.582e-10
-9.241e-11
7.855e-10
-1.01e-10
8.15e-10
-1.097e-10
8.469e-10
-1.185e-10
8.81e-10
-1.273e-10
9.175e-10
-1.361e-10
9.561e-10
-1.447e-10
9.969e-10
-1.529e-10
1.04e-09
-1.606e-10
1.084e-09
-1.677e-10
1.13e-09
-1.738e-10
1.178e-09
-1.789e-10
1.226e-09
-1.826e-10
1.275e-09
-1.847e-10
1.324e-09
-1.851e-10
1.373e-09
-1.834e-10
1.42e-09
-1.795e-10
1.466e-09
-1.733e-10
1.509e-09
-1.645e-10
1.549e-09
-1.531e-10
1.586e-09
-1.392e-10
1.619e-09
-1.228e-10
1.646e-09
-1.041e-10
1.668e-09
-8.328e-11
1.684e-09
-6.08e-11
1.694e-09
-3.708e-11
1.698e-09
-1.265e-11
1.695e-09
1.191e-11
1.685e-09
3.603e-11
1.67e-09
5.918e-11
1.649e-09
8.091e-11
1.622e-09
1.009e-10
1.591e-09
1.187e-10
1.556e-09
1.344e-10
1.517e-09
1.477e-10
1.475e-09
1.587e-10
1.431e-09
1.674e-10
1.385e-09
1.738e-10
1.338e-09
1.781e-10
1.291e-09
1.803e-10
1.243e-09
1.808e-10
1.195e-09
1.795e-10
1.148e-09
1.768e-10
1.102e-09
1.728e-10
1.057e-09
1.678e-10
1.014e-09
1.618e-10
9.725e-10
1.552e-10
9.328e-10
1.48e-10
8.95e-10
1.405e-10
8.592e-10
1.327e-10
8.255e-10
1.249e-10
7.938e-10
1.17e-10
7.641e-10
1.092e-10
7.365e-10
1.016e-10
7.108e-10
9.428e-11
6.869e-10
8.72e-11
6.649e-10
8.043e-11
6.446e-10
7.4e-11
6.259e-10
6.792e-11
6.087e-10
6.221e-11
5.93e-10
5.686e-11
5.786e-10
5.186e-11
5.655e-10
4.722e-11
5.535e-10
4.292e-11
5.426e-10
3.894e-11
5.328e-10
3.528e-11
5.238e-10
3.191e-11
5.157e-10
2.882e-11
5.084e-10
2.599e-11
5.017e-10
2.341e-11
4.958e-10
2.106e-11
4.904e-10
1.892e-11
4.856e-10
1.697e-11
4.812e-10
1.521e-11
4.773e-10
1.362e-11
4.738e-10
1.219e-11
4.707e-10
1.09e-11
4.679e-10
9.755e-12
4.653e-10
8.733e-12
4.631e-10
7.832e-12
4.61e-10
7.046e-12
4.592e-10
6.369e-12
4.575e-10
5.799e-12
4.56e-10
5.333e-12
4.547e-10
4.969e-12
4.534e-10
4.704e-12
4.522e-10
4.535e-12
4.511e-10
4.455e-12
4.5e-10
4.45e-12
4.49e-10
4.491e-12
4.535e-12
9.536e-10
9.178e-11
9.796e-10
2.217e-10
9.998e-10
2.985e-10
1.008e-09
3.328e-10
1.003e-09
3.382e-10
9.888e-10
3.259e-10
9.668e-10
3.039e-10
9.405e-10
2.773e-10
9.121e-10
2.496e-10
8.832e-10
2.224e-10
8.55e-10
1.968e-10
8.283e-10
1.732e-10
8.035e-10
1.516e-10
7.809e-10
1.321e-10
7.605e-10
1.144e-10
7.425e-10
9.846e-11
7.268e-10
8.396e-11
7.134e-10
7.072e-11
7.021e-10
5.858e-11
6.929e-10
4.736e-11
6.858e-10
3.691e-11
6.807e-10
2.708e-11
6.774e-10
1.775e-11
6.761e-10
8.802e-12
6.766e-10
1.319e-13
6.789e-10
-8.356e-12
6.831e-10
-1.675e-11
6.892e-10
-2.512e-11
6.971e-10
-3.354e-11
7.069e-10
-4.209e-11
7.187e-10
-5.08e-11
7.324e-10
-5.973e-11
7.483e-10
-6.893e-11
7.662e-10
-7.841e-11
7.863e-10
-8.821e-11
8.087e-10
-9.832e-11
8.334e-10
-1.087e-10
8.604e-10
-1.195e-10
8.899e-10
-1.304e-10
9.219e-10
-1.416e-10
9.563e-10
-1.529e-10
9.932e-10
-1.642e-10
1.033e-09
-1.754e-10
1.074e-09
-1.864e-10
1.118e-09
-1.969e-10
1.164e-09
-2.068e-10
1.212e-09
-2.157e-10
1.262e-09
-2.236e-10
1.313e-09
-2.3e-10
1.365e-09
-2.347e-10
1.418e-09
-2.374e-10
1.471e-09
-2.378e-10
1.523e-09
-2.357e-10
1.574e-09
-2.307e-10
1.624e-09
-2.226e-10
1.67e-09
-2.114e-10
1.714e-09
-1.968e-10
1.754e-09
-1.79e-10
1.789e-09
-1.579e-10
1.819e-09
-1.339e-10
1.843e-09
-1.072e-10
1.86e-09
-7.833e-11
1.871e-09
-4.784e-11
1.875e-09
-1.642e-11
1.872e-09
1.516e-11
1.861e-09
4.617e-11
1.845e-09
7.591e-11
1.822e-09
1.038e-10
1.793e-09
1.294e-10
1.76e-09
1.523e-10
1.722e-09
1.724e-10
1.68e-09
1.896e-10
1.635e-09
2.037e-10
1.587e-09
2.149e-10
1.538e-09
2.232e-10
1.488e-09
2.287e-10
1.436e-09
2.317e-10
1.385e-09
2.324e-10
1.333e-09
2.309e-10
1.282e-09
2.275e-10
1.233e-09
2.225e-10
1.184e-09
2.161e-10
1.138e-09
2.086e-10
1.093e-09
2.001e-10
1.05e-09
1.91e-10
1.009e-09
1.814e-10
9.702e-10
1.715e-10
9.336e-10
1.614e-10
8.992e-10
1.514e-10
8.671e-10
1.414e-10
8.37e-10
1.317e-10
8.091e-10
1.222e-10
7.831e-10
1.131e-10
7.591e-10
1.044e-10
7.369e-10
9.617e-11
7.165e-10
8.834e-11
6.977e-10
8.097e-11
6.805e-10
7.407e-11
6.648e-10
6.762e-11
6.504e-10
6.161e-11
6.372e-10
5.605e-11
6.253e-10
5.09e-11
6.144e-10
4.615e-11
6.045e-10
4.178e-11
5.956e-10
3.777e-11
5.875e-10
3.409e-11
5.802e-10
3.074e-11
5.736e-10
2.767e-11
5.676e-10
2.488e-11
5.622e-10
2.234e-11
5.574e-10
2.005e-11
5.531e-10
1.797e-11
5.492e-10
1.609e-11
5.457e-10
1.44e-11
5.425e-10
1.289e-11
5.397e-10
1.155e-11
5.372e-10
1.036e-11
5.349e-10
9.312e-12
5.329e-10
8.408e-12
5.31e-10
7.638e-12
5.294e-10
6.997e-12
5.279e-10
6.481e-12
5.265e-10
6.087e-12
5.252e-10
5.807e-12
5.24e-10
5.634e-12
5.229e-10
5.551e-12
5.219e-10
5.535e-12
5.547e-12
9.498e-10
7.947e-11
9.726e-10
1.989e-10
9.942e-10
2.769e-10
1.008e-09
3.188e-10
1.012e-09
3.338e-10
1.008e-09
3.305e-10
9.959e-10
3.158e-10
9.787e-10
2.945e-10
9.583e-10
2.7e-10
9.362e-10
2.446e-10
9.135e-10
2.194e-10
8.913e-10
1.954e-10
8.7e-10
1.729e-10
8.501e-10
1.52e-10
8.32e-10
1.326e-10
8.156e-10
1.148e-10
8.012e-10
9.836e-11
7.888e-10
8.317e-11
7.783e-10
6.907e-11
7.698e-10
5.59e-11
7.632e-10
4.351e-11
7.585e-10
3.177e-11
7.557e-10
2.056e-11
7.547e-10
9.735e-12
7.557e-10
-8e-13
7.585e-10
-1.115e-11
7.631e-10
-2.142e-11
7.697e-10
-3.169e-11
7.782e-10
-4.205e-11
7.887e-10
-5.256e-11
8.012e-10
-6.329e-11
8.158e-10
-7.43e-11
8.325e-10
-8.563e-11
8.514e-10
-9.732e-11
8.725e-10
-1.094e-10
8.961e-10
-1.218e-10
9.22e-10
-1.347e-10
9.504e-10
-1.479e-10
9.813e-10
-1.614e-10
1.015e-09
-1.751e-10
1.051e-09
-1.89e-10
1.09e-09
-2.029e-10
1.131e-09
-2.166e-10
1.174e-09
-2.301e-10
1.22e-09
-2.43e-10
1.269e-09
-2.551e-10
1.319e-09
-2.661e-10
1.371e-09
-2.757e-10
1.425e-09
-2.835e-10
1.479e-09
-2.893e-10
1.535e-09
-2.926e-10
1.59e-09
-2.931e-10
1.645e-09
-2.905e-10
1.698e-09
-2.843e-10
1.75e-09
-2.745e-10
1.8e-09
-2.607e-10
1.846e-09
-2.428e-10
1.887e-09
-2.209e-10
1.925e-09
-1.95e-10
1.956e-09
-1.654e-10
1.981e-09
-1.325e-10
2e-09
-9.689e-11
2.011e-09
-5.922e-11
2.015e-09
-2.04e-11
2.012e-09
1.863e-11
2.001e-09
5.691e-11
1.983e-09
9.36e-11
1.959e-09
1.28e-10
1.929e-09
1.594e-10
1.894e-09
1.877e-10
1.854e-09
2.124e-10
1.81e-09
2.334e-10
1.763e-09
2.508e-10
1.713e-09
2.646e-10
1.662e-09
2.749e-10
1.608e-09
2.818e-10
1.555e-09
2.855e-10
1.501e-09
2.864e-10
1.447e-09
2.847e-10
1.394e-09
2.806e-10
1.342e-09
2.746e-10
1.291e-09
2.668e-10
1.242e-09
2.576e-10
1.195e-09
2.473e-10
1.15e-09
2.361e-10
1.107e-09
2.243e-10
1.066e-09
2.122e-10
1.028e-09
1.998e-10
9.916e-10
1.875e-10
9.577e-10
1.753e-10
9.261e-10
1.633e-10
8.966e-10
1.517e-10
8.693e-10
1.405e-10
8.439e-10
1.298e-10
8.205e-10
1.196e-10
7.99e-10
1.099e-10
7.791e-10
1.008e-10
7.609e-10
9.229e-11
7.442e-10
8.431e-11
7.289e-10
7.689e-11
7.15e-10
6.999e-11
7.023e-10
6.361e-11
6.907e-10
5.772e-11
6.802e-10
5.23e-11
6.706e-10
4.731e-11
6.62e-10
4.274e-11
6.541e-10
3.856e-11
6.471e-10
3.475e-11
6.407e-10
3.127e-11
6.349e-10
2.81e-11
6.297e-10
2.523e-11
6.251e-10
2.263e-11
6.209e-10
2.028e-11
6.171e-10
1.817e-11
6.137e-10
1.627e-11
6.107e-10
1.458e-11
6.08e-10
1.308e-11
6.055e-10
1.175e-11
6.033e-10
1.06e-11
6.014e-10
9.607e-12
5.996e-10
8.772e-12
5.98e-10
8.085e-12
5.965e-10
7.542e-12
5.952e-10
7.135e-12
5.94e-10
6.853e-12
5.929e-10
6.681e-12
5.918e-10
6.6e-12
6.578e-12
9.472e-10
6.976e-11
9.67e-10
1.792e-10
9.882e-10
2.557e-10
1.005e-09
3.019e-10
1.015e-09
3.238e-10
1.018e-09
3.279e-10
1.014e-09
3.197e-10
1.005e-09
3.037e-10
9.916e-10
2.831e-10
9.76e-10
2.601e-10
9.59e-10
2.364e-10
9.416e-10
2.129e-10
9.244e-10
1.901e-10
9.079e-10
1.685e-10
8.925e-10
1.48e-10
8.784e-10
1.289e-10
8.658e-10
1.109e-10
8.548e-10
9.413e-11
8.456e-10
7.833e-11
8.381e-10
6.342e-11
8.323e-10
4.928e-11
8.283e-10
3.577e-11
8.261e-10
2.276e-11
8.257e-10
1.015e-11
8.271e-10
-2.201e-12
8.303e-10
-1.439e-11
8.354e-10
-2.651e-11
8.424e-10
-3.867e-11
8.513e-10
-5.095e-11
8.622e-10
-6.344e-11
8.751e-10
-7.62e-11
8.901e-10
-8.931e-11
9.072e-10
-1.028e-10
9.266e-10
-1.167e-10
9.483e-10
-1.311e-10
9.724e-10
-1.459e-10
9.989e-10
-1.612e-10
1.028e-09
-1.769e-10
1.06e-09
-1.93e-10
1.094e-09
-2.093e-10
1.131e-09
-2.258e-10
1.17e-09
-2.423e-10
1.212e-09
-2.587e-10
1.257e-09
-2.747e-10
1.304e-09
-2.9e-10
1.353e-09
-3.044e-10
1.404e-09
-3.175e-10
1.458e-09
-3.289e-10
1.512e-09
-3.383e-10
1.568e-09
-3.452e-10
1.625e-09
-3.491e-10
1.681e-09
-3.498e-10
1.738e-09
-3.467e-10
1.793e-09
-3.394e-10
1.846e-09
-3.277e-10
1.897e-09
-3.114e-10
1.944e-09
-2.902e-10
1.987e-09
-2.641e-10
2.025e-09
-2.333e-10
2.058e-09
-1.98e-10
2.084e-09
-1.588e-10
2.103e-09
-1.161e-10
2.115e-09
-7.1e-11
2.119e-09
-2.447e-11
2.116e-09
2.23e-11
2.104e-09
6.813e-11
2.086e-09
1.12e-10
2.061e-09
1.529e-10
2.03e-09
1.904e-10
1.994e-09
2.24e-10
1.953e-09
2.534e-10
1.908e-09
2.784e-10
1.86e-09
2.991e-10
1.809e-09
3.155e-10
1.756e-09
3.277e-10
1.702e-09
3.36e-10
1.647e-09
3.406e-10
1.591e-09
3.417e-10
1.536e-09
3.397e-10
1.482e-09
3.349e-10
1.429e-09
3.278e-10
1.377e-09
3.186e-10
1.327e-09
3.077e-10
1.279e-09
2.955e-10
1.232e-09
2.822e-10
1.189e-09
2.682e-10
1.147e-09
2.538e-10
1.108e-09
2.392e-10
1.071e-09
2.245e-10
1.036e-09
2.1e-10
1.003e-09
1.957e-10
9.733e-10
1.819e-10
9.452e-10
1.686e-10
9.192e-10
1.558e-10
8.952e-10
1.436e-10
8.73e-10
1.321e-10
8.526e-10
1.212e-10
8.338e-10
1.11e-10
8.166e-10
1.015e-10
8.009e-10
9.264e-11
7.865e-10
8.439e-11
7.733e-10
7.675e-11
7.614e-10
6.969e-11
7.505e-10
6.318e-11
7.406e-10
5.72e-11
7.316e-10
5.171e-11
7.235e-10
4.669e-11
7.162e-10
4.21e-11
7.095e-10
3.791e-11
7.035e-10
3.41e-11
6.981e-10
3.064e-11
6.932e-10
2.75e-11
6.889e-10
2.466e-11
6.849e-10
2.21e-11
6.814e-10
1.98e-11
6.782e-10
1.775e-11
6.754e-10
1.592e-11
6.728e-10
1.43e-11
6.706e-10
1.288e-11
6.685e-10
1.166e-11
6.667e-10
1.061e-11
6.65e-10
9.741e-12
6.635e-10
9.036e-12
6.622e-10
8.487e-12
6.609e-10
8.086e-12
6.598e-10
7.818e-12
6.587e-10
7.666e-12
7.608e-12
9.454e-10
6.188e-11
9.626e-10
1.619e-10
9.828e-10
2.355e-10
1.001e-09
2.837e-10
1.015e-09
3.103e-10
1.022e-09
3.201e-10
1.025e-09
3.176e-10
1.022e-09
3.065e-10
1.015e-09
2.898e-10
1.005e-09
2.697e-10
9.94e-10
2.479e-10
9.814e-10
2.255e-10
9.684e-10
2.031e-10
9.555e-10
1.813e-10
9.431e-10
1.604e-10
9.316e-10
1.404e-10
9.212e-10
1.213e-10
9.121e-10
1.033e-10
9.044e-10
8.607e-11
8.981e-10
6.969e-11
8.934e-10
5.4e-11
8.902e-10
3.89e-11
8.888e-10
2.426e-11
8.889e-10
9.969e-12
8.908e-10
-4.083e-12
8.944e-10
-1.801e-11
8.998e-10
-3.192e-11
9.071e-10
-4.59e-11
9.162e-10
-6.006e-11
9.272e-10
-7.448e-11
9.402e-10
-8.923e-11
9.553e-10
-1.044e-10
9.725e-10
-1.2e-10
9.919e-10
-1.361e-10
1.014e-09
-1.528e-10
1.038e-09
-1.699e-10
1.064e-09
-1.876e-10
1.093e-09
-2.058e-10
1.125e-09
-2.244e-10
1.159e-09
-2.434e-10
1.195e-09
-2.625e-10
1.235e-09
-2.817e-10
1.277e-09
-3.006e-10
1.321e-09
-3.191e-10
1.368e-09
-3.369e-10
1.417e-09
-3.536e-10
1.468e-09
-3.688e-10
1.522e-09
-3.821e-10
1.576e-09
-3.93e-10
1.632e-09
-4.01e-10
1.689e-09
-4.057e-10
1.746e-09
-4.065e-10
1.802e-09
-4.03e-10
1.857e-09
-3.947e-10
1.911e-09
-3.813e-10
1.962e-09
-3.624e-10
2.009e-09
-3.379e-10
2.053e-09
-3.077e-10
2.092e-09
-2.72e-10
2.125e-09
-2.31e-10
2.151e-09
-1.853e-10
2.171e-09
-1.356e-10
2.183e-09
-8.29e-11
2.187e-09
-2.849e-11
2.183e-09
2.617e-11
2.171e-09
7.966e-11
2.152e-09
1.307e-10
2.127e-09
1.783e-10
2.096e-09
2.217e-10
2.059e-09
2.605e-10
2.018e-09
2.945e-10
1.973e-09
3.234e-10
1.925e-09
3.474e-10
1.874e-09
3.664e-10
1.821e-09
3.806e-10
1.767e-09
3.902e-10
1.712e-09
3.956e-10
1.657e-09
3.969e-10
1.602e-09
3.947e-10
1.547e-09
3.892e-10
1.494e-09
3.81e-10
1.442e-09
3.704e-10
1.392e-09
3.578e-10
1.344e-09
3.436e-10
1.298e-09
3.283e-10
1.254e-09
3.121e-10
1.213e-09
2.954e-10
1.173e-09
2.785e-10
1.136e-09
2.615e-10
1.102e-09
2.446e-10
1.069e-09
2.281e-10
1.039e-09
2.121e-10
1.011e-09
1.966e-10
9.849e-10
1.818e-10
9.608e-10
1.677e-10
9.386e-10
1.543e-10
9.181e-10
1.417e-10
8.993e-10
1.299e-10
8.82e-10
1.188e-10
8.662e-10
1.085e-10
8.517e-10
9.886e-11
8.385e-10
8.996e-11
8.264e-10
8.174e-11
8.155e-10
7.416e-11
8.055e-10
6.718e-11
7.964e-10
6.077e-11
7.882e-10
5.491e-11
7.808e-10
4.954e-11
7.74e-10
4.464e-11
7.679e-10
4.018e-11
7.625e-10
3.612e-11
7.575e-10
3.244e-11
7.531e-10
2.911e-11
7.491e-10
2.61e-11
7.455e-10
2.34e-11
7.423e-10
2.097e-11
7.394e-10
1.881e-11
7.368e-10
1.689e-11
7.345e-10
1.52e-11
7.324e-10
1.373e-11
7.305e-10
1.247e-11
7.288e-10
1.141e-11
7.274e-10
1.053e-11
7.26e-10
9.835e-12
7.248e-10
9.308e-12
7.237e-10
8.938e-12
7.226e-10
8.714e-12
8.619e-12
9.441e-10
5.531e-11
9.592e-10
1.468e-10
9.78e-10
2.167e-10
9.966e-10
2.651e-10
1.012e-09
2.947e-10
1.024e-09
3.087e-10
1.03e-09
3.108e-10
1.033e-09
3.041e-10
1.031e-09
2.911e-10
1.027e-09
2.74e-10
1.02e-09
2.544e-10
1.012e-09
2.335e-10
1.004e-09
2.12e-10
9.943e-10
1.906e-10
9.851e-10
1.695e-10
9.764e-10
1.491e-10
9.684e-10
1.294e-10
9.612e-10
1.104e-10
9.552e-10
9.213e-11
9.503e-10
7.454e-11
9.468e-10
5.756e-11
9.446e-10
4.107e-11
9.439e-10
2.498e-11
9.447e-10
9.19e-12
9.47e-10
-6.421e-12
9.509e-10
-2.196e-11
9.565e-10
-3.753e-11
9.639e-10
-5.323e-11
9.73e-10
-6.916e-11
9.839e-10
-8.541e-11
9.967e-10
-1.021e-10
1.012e-09
-1.192e-10
1.028e-09
-1.369e-10
1.047e-09
-1.551e-10
1.069e-09
-1.739e-10
1.092e-09
-1.934e-10
1.118e-09
-2.134e-10
1.146e-09
-2.34e-10
1.177e-09
-2.551e-10
1.21e-09
-2.766e-10
1.245e-09
-2.982e-10
1.284e-09
-3.199e-10
1.325e-09
-3.415e-10
1.368e-09
-3.625e-10
1.414e-09
-3.826e-10
1.462e-09
-4.016e-10
1.512e-09
-4.189e-10
1.564e-09
-4.34e-10
1.617e-09
-4.465e-10
1.672e-09
-4.557e-10
1.727e-09
-4.611e-10
1.783e-09
-4.621e-10
1.838e-09
-4.582e-10
1.892e-09
-4.489e-10
1.945e-09
-4.338e-10
1.995e-09
-4.125e-10
2.042e-09
-3.848e-10
2.085e-09
-3.507e-10
2.123e-09
-3.102e-10
2.155e-09
-2.636e-10
2.182e-09
-2.116e-10
2.201e-09
-1.549e-10
2.213e-09
-9.461e-11
2.217e-09
-3.232e-11
2.212e-09
3.025e-11
2.201e-09
9.133e-11
2.182e-09
1.494e-10
2.157e-09
2.034e-10
2.126e-09
2.526e-10
2.09e-09
2.964e-10
2.05e-09
3.348e-10
2.006e-09
3.674e-10
1.959e-09
3.945e-10
1.909e-09
4.16e-10
1.858e-09
4.321e-10
1.805e-09
4.431e-10
1.751e-09
4.492e-10
1.697e-09
4.509e-10
1.643e-09
4.484e-10
1.59e-09
4.423e-10
1.538e-09
4.33e-10
1.488e-09
4.21e-10
1.439e-09
4.067e-10
1.392e-09
3.907e-10
1.347e-09
3.733e-10
1.304e-09
3.55e-10
1.263e-09
3.361e-10
1.225e-09
3.168e-10
1.189e-09
2.975e-10
1.155e-09
2.785e-10
1.123e-09
2.598e-10
1.094e-09
2.416e-10
1.066e-09
2.24e-10
1.041e-09
2.072e-10
1.017e-09
1.912e-10
9.957e-10
1.761e-10
9.757e-10
1.617e-10
9.572e-10
1.483e-10
9.403e-10
1.357e-10
9.248e-10
1.24e-10
9.106e-10
1.131e-10
8.976e-10
1.029e-10
8.858e-10
9.358e-11
8.75e-10
8.495e-11
8.652e-10
7.7e-11
8.563e-10
6.97e-11
8.482e-10
6.3e-11
8.408e-10
5.688e-11
8.342e-10
5.129e-11
8.282e-10
4.619e-11
8.228e-10
4.155e-11
8.179e-10
3.734e-11
8.135e-10
3.352e-11
8.095e-10
3.007e-11
8.059e-10
2.696e-11
8.027e-10
2.417e-11
7.999e-10
2.167e-11
7.973e-10
1.945e-11
7.95e-10
1.75e-11
7.93e-10
1.578e-11
7.911e-10
1.43e-11
7.895e-10
1.304e-11
7.88e-10
1.199e-11
7.867e-10
1.115e-11
7.855e-10
1.049e-11
7.844e-10
1.002e-11
7.834e-10
9.721e-12
9.59e-12
9.431e-10
4.97e-11
9.565e-10
1.334e-10
9.74e-10
1.992e-10
9.923e-10
2.469e-10
1.009e-09
2.78e-10
1.023e-09
2.95e-10
1.033e-09
3.007e-10
1.039e-09
2.976e-10
1.042e-09
2.881e-10
1.042e-09
2.739e-10
1.04e-09
2.566e-10
1.036e-09
2.374e-10
1.031e-09
2.171e-10
1.026e-09
1.964e-10
1.02e-09
1.756e-10
1.014e-09
1.551e-10
1.008e-09
1.35e-10
1.003e-09
1.154e-10
9.986e-10
9.642e-11
9.952e-10
7.792e-11
9.929e-10
5.989e-11
9.917e-10
4.225e-11
9.917e-10
2.493e-11
9.931e-10
7.831e-12
9.958e-10
-9.157e-12
1e-09
-2.613e-11
1.006e-09
-4.321e-11
1.013e-09
-6.048e-11
1.022e-09
-7.804e-11
1.032e-09
-9.599e-11
1.045e-09
-1.144e-10
1.059e-09
-1.334e-10
1.075e-09
-1.529e-10
1.093e-09
-1.732e-10
1.113e-09
-1.941e-10
1.136e-09
-2.157e-10
1.16e-09
-2.379e-10
1.187e-09
-2.608e-10
1.216e-09
-2.842e-10
1.247e-09
-3.081e-10
1.281e-09
-3.322e-10
1.318e-09
-3.563e-10
1.357e-09
-3.803e-10
1.398e-09
-4.037e-10
1.441e-09
-4.262e-10
1.487e-09
-4.473e-10
1.535e-09
-4.666e-10
1.584e-09
-4.836e-10
1.635e-09
-4.975e-10
1.688e-09
-5.078e-10
1.74e-09
-5.139e-10
1.794e-09
-5.151e-10
1.846e-09
-5.109e-10
1.898e-09
-5.006e-10
1.948e-09
-4.839e-10