/*--------------------------------*- C++ -*----------------------------------*\
  =========                 |
  \\      /  F ield         | OpenFOAM: The Open Source CFD Toolbox
   \\    /   O peration     | Website:  https://openfoam.org
    \\  /    A nd           | Version:  7
     \\/     M anipulation  |
\*---------------------------------------------------------------------------*/
FoamFile
{
    version     2.0;
    format      ascii;
    class       volVectorField;
    location    "599.999473410984592";
    object      U;
}
// * * * * * * * * * * * * * * * * * * * * * * * * * * * * * * * * * * * * * //

dimensions      [0 1 -1 0 0 0 0];

internalField   nonuniform List<vector> 
4096
(
(0.001039 0.0001611 0)
(0.0007463 0.0001314 0)
(0.0005302 8.474e-05 0)
(0.0003918 5.358e-05 0)
(0.0003036 3.465e-05 0)
(0.0002457 2.326e-05 0)
(0.0002061 1.631e-05 0)
(0.0001779 1.192e-05 0)
(0.000157 9.024e-06 0)
(0.0001409 7.031e-06 0)
(0.0001283 5.598e-06 0)
(0.0001181 4.531e-06 0)
(0.0001099 3.71e-06 0)
(0.0001031 3.061e-06 0)
(9.754e-05 2.538e-06 0)
(9.289e-05 2.107e-06 0)
(8.904e-05 1.745e-06 0)
(8.586e-05 1.437e-06 0)
(8.325e-05 1.17e-06 0)
(8.115e-05 9.345e-07 0)
(7.949e-05 7.243e-07 0)
(7.823e-05 5.336e-07 0)
(7.734e-05 3.578e-07 0)
(7.679e-05 1.931e-07 0)
(7.656e-05 3.646e-08 0)
(7.664e-05 -1.148e-07 0)
(7.702e-05 -2.628e-07 0)
(7.769e-05 -4.098e-07 0)
(7.865e-05 -5.574e-07 0)
(7.992e-05 -7.071e-07 0)
(8.149e-05 -8.603e-07 0)
(8.337e-05 -1.018e-06 0)
(8.557e-05 -1.182e-06 0)
(8.81e-05 -1.352e-06 0)
(9.098e-05 -1.529e-06 0)
(9.423e-05 -1.714e-06 0)
(9.785e-05 -1.907e-06 0)
(0.0001019 -2.107e-06 0)
(0.0001063 -2.315e-06 0)
(0.0001111 -2.528e-06 0)
(0.0001164 -2.746e-06 0)
(0.0001221 -2.968e-06 0)
(0.0001283 -3.19e-06 0)
(0.0001349 -3.41e-06 0)
(0.0001419 -3.625e-06 0)
(0.0001494 -3.83e-06 0)
(0.0001572 -4.02e-06 0)
(0.0001654 -4.19e-06 0)
(0.0001739 -4.335e-06 0)
(0.0001827 -4.448e-06 0)
(0.0001917 -4.523e-06 0)
(0.0002008 -4.552e-06 0)
(0.0002099 -4.531e-06 0)
(0.0002188 -4.453e-06 0)
(0.0002276 -4.313e-06 0)
(0.000236 -4.107e-06 0)
(0.000244 -3.833e-06 0)
(0.0002513 -3.49e-06 0)
(0.0002579 -3.081e-06 0)
(0.0002636 -2.61e-06 0)
(0.0002682 -2.084e-06 0)
(0.0002718 -1.512e-06 0)
(0.0002743 -9.082e-07 0)
(0.0002755 -2.855e-07 0)
(0.0002754 3.401e-07 0)
(0.0002741 9.529e-07 0)
(0.0002716 1.539e-06 0)
(0.000268 2.085e-06 0)
(0.0002633 2.582e-06 0)
(0.0002577 3.024e-06 0)
(0.0002513 3.405e-06 0)
(0.0002442 3.723e-06 0)
(0.0002365 3.979e-06 0)
(0.0002283 4.173e-06 0)
(0.0002198 4.309e-06 0)
(0.0002111 4.39e-06 0)
(0.0002023 4.421e-06 0)
(0.0001935 4.405e-06 0)
(0.0001847 4.349e-06 0)
(0.0001761 4.258e-06 0)
(0.0001677 4.136e-06 0)
(0.0001596 3.991e-06 0)
(0.0001518 3.825e-06 0)
(0.0001443 3.645e-06 0)
(0.0001372 3.455e-06 0)
(0.0001305 3.258e-06 0)
(0.0001242 3.059e-06 0)
(0.0001183 2.859e-06 0)
(0.0001128 2.662e-06 0)
(0.0001076 2.469e-06 0)
(0.0001029 2.283e-06 0)
(9.849e-05 2.104e-06 0)
(9.445e-05 1.934e-06 0)
(9.074e-05 1.772e-06 0)
(8.735e-05 1.62e-06 0)
(8.425e-05 1.478e-06 0)
(8.143e-05 1.345e-06 0)
(7.886e-05 1.222e-06 0)
(7.653e-05 1.107e-06 0)
(7.442e-05 1.002e-06 0)
(7.252e-05 9.046e-07 0)
(7.08e-05 8.155e-07 0)
(6.925e-05 7.34e-07 0)
(6.785e-05 6.596e-07 0)
(6.66e-05 5.918e-07 0)
(6.548e-05 5.301e-07 0)
(6.448e-05 4.742e-07 0)
(6.358e-05 4.236e-07 0)
(6.278e-05 3.778e-07 0)
(6.206e-05 3.365e-07 0)
(6.143e-05 2.993e-07 0)
(6.086e-05 2.659e-07 0)
(6.036e-05 2.361e-07 0)
(5.992e-05 2.095e-07 0)
(5.952e-05 1.86e-07 0)
(5.917e-05 1.653e-07 0)
(5.886e-05 1.474e-07 0)
(5.858e-05 1.322e-07 0)
(5.832e-05 1.197e-07 0)
(5.809e-05 1.1e-07 0)
(5.788e-05 1.034e-07 0)
(5.768e-05 1.003e-07 0)
(5.748e-05 1.015e-07 0)
(5.727e-05 1.089e-07 0)
(5.703e-05 1.254e-07 0)
(5.675e-05 1.565e-07 0)
(5.638e-05 2.079e-07 0)
(5.591e-05 2.701e-07 0)
(0.001209 0.0003128 0)
(0.001154 0.0003282 0)
(0.00101 0.000248 0)
(0.0008613 0.000177 0)
(0.0007345 0.0001262 0)
(0.0006328 9.137e-05 0)
(0.0005528 6.779e-05 0)
(0.0004899 5.162e-05 0)
(0.0004399 4.024e-05 0)
(0.0003998 3.2e-05 0)
(0.0003672 2.585e-05 0)
(0.0003404 2.115e-05 0)
(0.0003183 1.745e-05 0)
(0.0002999 1.449e-05 0)
(0.0002845 1.207e-05 0)
(0.0002717 1.006e-05 0)
(0.000261 8.36e-06 0)
(0.0002521 6.901e-06 0)
(0.0002447 5.63e-06 0)
(0.0002388 4.507e-06 0)
(0.0002341 3.5e-06 0)
(0.0002306 2.583e-06 0)
(0.000228 1.736e-06 0)
(0.0002264 9.417e-07 0)
(0.0002258 1.855e-07 0)
(0.000226 -5.448e-07 0)
(0.000227 -1.26e-06 0)
(0.0002289 -1.969e-06 0)
(0.0002316 -2.68e-06 0)
(0.0002352 -3.4e-06 0)
(0.0002396 -4.136e-06 0)
(0.0002448 -4.893e-06 0)
(0.000251 -5.676e-06 0)
(0.0002581 -6.488e-06 0)
(0.0002662 -7.333e-06 0)
(0.0002752 -8.211e-06 0)
(0.0002853 -9.123e-06 0)
(0.0002965 -1.007e-05 0)
(0.0003088 -1.104e-05 0)
(0.0003222 -1.205e-05 0)
(0.0003367 -1.307e-05 0)
(0.0003525 -1.41e-05 0)
(0.0003694 -1.514e-05 0)
(0.0003875 -1.616e-05 0)
(0.0004067 -1.715e-05 0)
(0.000427 -1.809e-05 0)
(0.0004484 -1.895e-05 0)
(0.0004706 -1.973e-05 0)
(0.0004937 -2.037e-05 0)
(0.0005174 -2.087e-05 0)
(0.0005415 -2.119e-05 0)
(0.0005658 -2.13e-05 0)
(0.0005901 -2.117e-05 0)
(0.0006141 -2.077e-05 0)
(0.0006374 -2.009e-05 0)
(0.0006598 -1.911e-05 0)
(0.0006808 -1.782e-05 0)
(0.0007002 -1.621e-05 0)
(0.0007176 -1.43e-05 0)
(0.0007326 -1.211e-05 0)
(0.000745 -9.673e-06 0)
(0.0007545 -7.029e-06 0)
(0.000761 -4.236e-06 0)
(0.0007642 -1.36e-06 0)
(0.0007641 1.529e-06 0)
(0.0007608 4.364e-06 0)
(0.0007543 7.078e-06 0)
(0.0007449 9.616e-06 0)
(0.0007327 1.193e-05 0)
(0.000718 1.4e-05 0)
(0.000701 1.579e-05 0)
(0.0006822 1.729e-05 0)
(0.0006618 1.851e-05 0)
(0.0006402 1.945e-05 0)
(0.0006176 2.012e-05 0)
(0.0005943 2.053e-05 0)
(0.0005707 2.07e-05 0)
(0.000547 2.067e-05 0)
(0.0005234 2.044e-05 0)
(0.0005001 2.004e-05 0)
(0.0004774 1.95e-05 0)
(0.0004553 1.885e-05 0)
(0.000434 1.81e-05 0)
(0.0004135 1.727e-05 0)
(0.0003941 1.64e-05 0)
(0.0003756 1.549e-05 0)
(0.0003582 1.457e-05 0)
(0.0003418 1.364e-05 0)
(0.0003265 1.272e-05 0)
(0.0003122 1.182e-05 0)
(0.0002989 1.094e-05 0)
(0.0002867 1.01e-05 0)
(0.0002753 9.3e-06 0)
(0.0002649 8.537e-06 0)
(0.0002553 7.817e-06 0)
(0.0002466 7.14e-06 0)
(0.0002386 6.508e-06 0)
(0.0002313 5.919e-06 0)
(0.0002247 5.373e-06 0)
(0.0002186 4.868e-06 0)
(0.0002132 4.403e-06 0)
(0.0002082 3.976e-06 0)
(0.0002038 3.584e-06 0)
(0.0001998 3.226e-06 0)
(0.0001961 2.899e-06 0)
(0.0001929 2.601e-06 0)
(0.00019 2.33e-06 0)
(0.0001873 2.085e-06 0)
(0.000185 1.863e-06 0)
(0.0001829 1.662e-06 0)
(0.000181 1.482e-06 0)
(0.0001793 1.319e-06 0)
(0.0001779 1.173e-06 0)
(0.0001765 1.044e-06 0)
(0.0001754 9.286e-07 0)
(0.0001743 8.274e-07 0)
(0.0001734 7.396e-07 0)
(0.0001725 6.646e-07 0)
(0.0001717 6.026e-07 0)
(0.0001711 5.537e-07 0)
(0.0001704 5.19e-07 0)
(0.0001698 4.999e-07 0)
(0.0001692 4.991e-07 0)
(0.0001686 5.211e-07 0)
(0.000168 5.731e-07 0)
(0.0001673 6.65e-07 0)
(0.0001666 8.019e-07 0)
(0.0001658 9.449e-07 0)
(0.001226 0.0002775 0)
(0.001243 0.0004027 0)
(0.001194 0.0003664 0)
(0.001102 0.0002981 0)
(0.0009999 0.0002343 0)
(0.000902 0.0001828 0)
(0.0008149 0.0001434 0)
(0.0007401 0.0001138 0)
(0.0006767 9.141e-05 0)
(0.0006233 7.431e-05 0)
(0.0005784 6.104e-05 0)
(0.0005406 5.055e-05 0)
(0.0005086 4.212e-05 0)
(0.0004816 3.523e-05 0)
(0.0004588 2.952e-05 0)
(0.0004396 2.472e-05 0)
(0.0004234 2.062e-05 0)
(0.0004098 1.707e-05 0)
(0.0003986 1.396e-05 0)
(0.0003895 1.12e-05 0)
(0.0003823 8.711e-06 0)
(0.0003768 6.437e-06 0)
(0.0003729 4.329e-06 0)
(0.0003705 2.347e-06 0)
(0.0003695 4.577e-07 0)
(0.0003698 -1.369e-06 0)
(0.0003715 -3.158e-06 0)
(0.0003745 -4.931e-06 0)
(0.0003788 -6.71e-06 0)
(0.0003843 -8.509e-06 0)
(0.0003913 -1.035e-05 0)
(0.0003995 -1.223e-05 0)
(0.0004092 -1.418e-05 0)
(0.0004203 -1.62e-05 0)
(0.0004329 -1.829e-05 0)
(0.0004471 -2.046e-05 0)
(0.0004628 -2.271e-05 0)
(0.0004802 -2.504e-05 0)
(0.0004993 -2.743e-05 0)
(0.0005201 -2.989e-05 0)
(0.0005427 -3.239e-05 0)
(0.0005671 -3.491e-05 0)
(0.0005933 -3.742e-05 0)
(0.0006212 -3.989e-05 0)
(0.0006508 -4.228e-05 0)
(0.0006821 -4.454e-05 0)
(0.0007149 -4.662e-05 0)
(0.000749 -4.846e-05 0)
(0.0007843 -4.999e-05 0)
(0.0008205 -5.115e-05 0)
(0.0008573 -5.186e-05 0)
(0.0008944 -5.207e-05 0)
(0.0009314 -5.169e-05 0)
(0.0009679 -5.068e-05 0)
(0.001003 -4.897e-05 0)
(0.001037 -4.654e-05 0)
(0.001069 -4.336e-05 0)
(0.001099 -3.943e-05 0)
(0.001125 -3.478e-05 0)
(0.001148 -2.945e-05 0)
(0.001166 -2.352e-05 0)
(0.001181 -1.711e-05 0)
(0.001191 -1.035e-05 0)
(0.001196 -3.386e-06 0)
(0.001196 3.613e-06 0)
(0.001191 1.048e-05 0)
(0.001181 1.707e-05 0)
(0.001167 2.324e-05 0)
(0.001148 2.889e-05 0)
(0.001126 3.393e-05 0)
(0.001101 3.833e-05 0)
(0.001072 4.204e-05 0)
(0.001041 4.506e-05 0)
(0.001009 4.74e-05 0)
(0.0009743 4.909e-05 0)
(0.0009389 5.016e-05 0)
(0.0009029 5.066e-05 0)
(0.0008667 5.064e-05 0)
(0.0008306 5.014e-05 0)
(0.000795 4.924e-05 0)
(0.00076 4.798e-05 0)
(0.0007261 4.643e-05 0)
(0.0006933 4.465e-05 0)
(0.0006617 4.268e-05 0)
(0.0006316 4.057e-05 0)
(0.000603 3.838e-05 0)
(0.000576 3.614e-05 0)
(0.0005506 3.388e-05 0)
(0.0005267 3.164e-05 0)
(0.0005044 2.944e-05 0)
(0.0004837 2.73e-05 0)
(0.0004645 2.524e-05 0)
(0.0004467 2.326e-05 0)
(0.0004304 2.138e-05 0)
(0.0004153 1.96e-05 0)
(0.0004015 1.793e-05 0)
(0.0003889 1.636e-05 0)
(0.0003773 1.49e-05 0)
(0.0003668 1.354e-05 0)
(0.0003572 1.229e-05 0)
(0.0003485 1.113e-05 0)
(0.0003407 1.006e-05 0)
(0.0003335 9.082e-06 0)
(0.0003271 8.185e-06 0)
(0.0003213 7.366e-06 0)
(0.0003161 6.618e-06 0)
(0.0003114 5.939e-06 0)
(0.0003071 5.321e-06 0)
(0.0003034 4.762e-06 0)
(0.0003 4.255e-06 0)
(0.0002969 3.799e-06 0)
(0.0002942 3.388e-06 0)
(0.0002918 3.019e-06 0)
(0.0002896 2.69e-06 0)
(0.0002877 2.398e-06 0)
(0.000286 2.14e-06 0)
(0.0002844 1.916e-06 0)
(0.000283 1.724e-06 0)
(0.0002818 1.563e-06 0)
(0.0002806 1.435e-06 0)
(0.0002796 1.34e-06 0)
(0.0002786 1.281e-06 0)
(0.0002776 1.261e-06 0)
(0.0002767 1.286e-06 0)
(0.0002758 1.363e-06 0)
(0.0002748 1.495e-06 0)
(0.0002739 1.672e-06 0)
(0.0002729 1.828e-06 0)
(0.001224 0.0002275 0)
(0.00126 0.0004003 0)
(0.001258 0.0004192 0)
(0.001216 0.0003787 0)
(0.00115 0.0003226 0)
(0.001074 0.0002681 0)
(0.0009983 0.000221 0)
(0.0009274 0.0001821 0)
(0.0008633 0.0001506 0)
(0.0008065 0.0001252 0)
(0.0007569 0.0001046 0)
(0.0007138 8.785e-05 0)
(0.0006766 7.399e-05 0)
(0.0006445 6.243e-05 0)
(0.000617 5.268e-05 0)
(0.0005935 4.435e-05 0)
(0.0005735 3.716e-05 0)
(0.0005567 3.088e-05 0)
(0.0005427 2.532e-05 0)
(0.0005313 2.035e-05 0)
(0.0005222 1.585e-05 0)
(0.0005153 1.171e-05 0)
(0.0005104 7.863e-06 0)
(0.0005074 4.232e-06 0)
(0.0005062 7.62e-07 0)
(0.0005068 -2.599e-06 0)
(0.0005091 -5.895e-06 0)
(0.0005131 -9.165e-06 0)
(0.0005188 -1.244e-05 0)
(0.0005262 -1.576e-05 0)
(0.0005353 -1.914e-05 0)
(0.0005462 -2.261e-05 0)
(0.0005589 -2.619e-05 0)
(0.0005735 -2.989e-05 0)
(0.00059 -3.372e-05 0)
(0.0006086 -3.769e-05 0)
(0.0006292 -4.18e-05 0)
(0.0006519 -4.604e-05 0)
(0.0006767 -5.04e-05 0)
(0.0007039 -5.486e-05 0)
(0.0007332 -5.939e-05 0)
(0.0007649 -6.394e-05 0)
(0.0007988 -6.847e-05 0)
(0.000835 -7.292e-05 0)
(0.0008733 -7.72e-05 0)
(0.0009137 -8.125e-05 0)
(0.0009559 -8.496e-05 0)
(0.0009999 -8.822e-05 0)
(0.001045 -9.092e-05 0)
(0.001092 -9.294e-05 0)
(0.001139 -9.416e-05 0)
(0.001187 -9.445e-05 0)
(0.001234 -9.369e-05 0)
(0.001281 -9.179e-05 0)
(0.001326 -8.865e-05 0)
(0.001369 -8.42e-05 0)
(0.00141 -7.841e-05 0)
(0.001448 -7.128e-05 0)
(0.001481 -6.286e-05 0)
(0.00151 -5.323e-05 0)
(0.001534 -4.254e-05 0)
(0.001553 -3.099e-05 0)
(0.001566 -1.879e-05 0)
(0.001572 -6.244e-06 0)
(0.001572 6.372e-06 0)
(0.001566 1.876e-05 0)
(0.001554 3.065e-05 0)
(0.001536 4.18e-05 0)
(0.001512 5.202e-05 0)
(0.001484 6.117e-05 0)
(0.001452 6.915e-05 0)
(0.001415 7.592e-05 0)
(0.001376 8.146e-05 0)
(0.001334 8.578e-05 0)
(0.00129 8.893e-05 0)
(0.001245 9.096e-05 0)
(0.001199 9.196e-05 0)
(0.001152 9.202e-05 0)
(0.001106 9.122e-05 0)
(0.00106 8.967e-05 0)
(0.001015 8.748e-05 0)
(0.0009712 8.475e-05 0)
(0.0009288 8.158e-05 0)
(0.000888 7.807e-05 0)
(0.000849 7.431e-05 0)
(0.0008118 7.037e-05 0)
(0.0007767 6.634e-05 0)
(0.0007435 6.227e-05 0)
(0.0007124 5.822e-05 0)
(0.0006833 5.423e-05 0)
(0.0006562 5.035e-05 0)
(0.000631 4.659e-05 0)
(0.0006077 4.299e-05 0)
(0.0005862 3.956e-05 0)
(0.0005663 3.632e-05 0)
(0.0005481 3.325e-05 0)
(0.0005314 3.038e-05 0)
(0.0005161 2.77e-05 0)
(0.0005022 2.521e-05 0)
(0.0004895 2.29e-05 0)
(0.0004779 2.076e-05 0)
(0.0004674 1.879e-05 0)
(0.0004579 1.698e-05 0)
(0.0004493 1.532e-05 0)
(0.0004415 1.381e-05 0)
(0.0004345 1.242e-05 0)
(0.0004282 1.116e-05 0)
(0.0004225 1.001e-05 0)
(0.0004174 8.971e-06 0)
(0.0004128 8.028e-06 0)
(0.0004087 7.176e-06 0)
(0.000405 6.409e-06 0)
(0.0004017 5.72e-06 0)
(0.0003988 5.104e-06 0)
(0.0003961 4.555e-06 0)
(0.0003938 4.071e-06 0)
(0.0003917 3.647e-06 0)
(0.0003898 3.283e-06 0)
(0.000388 2.975e-06 0)
(0.0003865 2.726e-06 0)
(0.000385 2.534e-06 0)
(0.0003837 2.403e-06 0)
(0.0003825 2.335e-06 0)
(0.0003813 2.334e-06 0)
(0.0003801 2.402e-06 0)
(0.000379 2.535e-06 0)
(0.0003779 2.708e-06 0)
(0.0003768 2.844e-06 0)
(0.001219 0.0001847 0)
(0.001255 0.0003712 0)
(0.001275 0.0004299 0)
(0.001265 0.0004206 0)
(0.00123 0.0003822 0)
(0.001179 0.0003347 0)
(0.001121 0.0002878 0)
(0.001062 0.0002454 0)
(0.001005 0.0002086 0)
(0.0009517 0.0001772 0)
(0.0009032 0.0001507 0)
(0.0008597 0.0001283 0)
(0.0008211 0.0001093 0)
(0.0007872 9.309e-05 0)
(0.0007577 7.913e-05 0)
(0.000732 6.703e-05 0)
(0.00071 5.644e-05 0)
(0.0006914 4.708e-05 0)
(0.0006757 3.873e-05 0)
(0.0006629 3.119e-05 0)
(0.0006527 2.431e-05 0)
(0.0006449 1.795e-05 0)
(0.0006394 1.2e-05 0)
(0.0006362 6.366e-06 0)
(0.000635 9.642e-07 0)
(0.0006359 -4.281e-06 0)
(0.0006388 -9.433e-06 0)
(0.0006438 -1.455e-05 0)
(0.0006507 -1.968e-05 0)
(0.0006597 -2.488e-05 0)
(0.0006707 -3.018e-05 0)
(0.0006838 -3.561e-05 0)
(0.0006991 -4.12e-05 0)
(0.0007166 -4.698e-05 0)
(0.0007364 -5.295e-05 0)
(0.0007586 -5.914e-05 0)
(0.0007832 -6.553e-05 0)
(0.0008103 -7.212e-05 0)
(0.0008399 -7.888e-05 0)
(0.0008722 -8.578e-05 0)
(0.0009072 -9.278e-05 0)
(0.0009447 -9.98e-05 0)
(0.000985 -0.0001068 0)
(0.001028 -0.0001136 0)
(0.001073 -0.0001202 0)
(0.001121 -0.0001264 0)
(0.001171 -0.000132 0)
(0.001223 -0.000137 0)
(0.001276 -0.0001411 0)
(0.001331 -0.0001441 0)
(0.001387 -0.0001459 0)
(0.001443 -0.0001463 0)
(0.001499 -0.000145 0)
(0.001553 -0.000142 0)
(0.001607 -0.0001371 0)
(0.001658 -0.0001302 0)
(0.001706 -0.0001212 0)
(0.00175 -0.0001102 0)
(0.001789 -9.715e-05 0)
(0.001824 -8.229e-05 0)
(0.001852 -6.58e-05 0)
(0.001874 -4.797e-05 0)
(0.001889 -2.917e-05 0)
(0.001896 -9.815e-06 0)
(0.001896 9.644e-06 0)
(0.001889 2.876e-05 0)
(0.001875 4.71e-05 0)
(0.001854 6.432e-05 0)
(0.001827 8.012e-05 0)
(0.001794 9.428e-05 0)
(0.001756 0.0001067 0)
(0.001713 0.0001172 0)
(0.001667 0.0001258 0)
(0.001618 0.0001326 0)
(0.001566 0.0001376 0)
(0.001513 0.0001408 0)
(0.001459 0.0001425 0)
(0.001404 0.0001427 0)
(0.001349 0.0001416 0)
(0.001295 0.0001393 0)
(0.001242 0.000136 0)
(0.00119 0.0001319 0)
(0.00114 0.0001271 0)
(0.001091 0.0001217 0)
(0.001045 0.000116 0)
(0.001001 0.0001099 0)
(0.0009592 0.0001037 0)
(0.0009197 9.748e-05 0)
(0.0008826 9.123e-05 0)
(0.0008478 8.507e-05 0)
(0.0008154 7.906e-05 0)
(0.0007852 7.324e-05 0)
(0.0007572 6.765e-05 0)
(0.0007314 6.232e-05 0)
(0.0007075 5.726e-05 0)
(0.0006855 5.249e-05 0)
(0.0006654 4.801e-05 0)
(0.0006469 4.382e-05 0)
(0.00063 3.992e-05 0)
(0.0006146 3.63e-05 0)
(0.0006006 3.294e-05 0)
(0.0005879 2.985e-05 0)
(0.0005763 2.701e-05 0)
(0.0005658 2.439e-05 0)
(0.0005563 2.2e-05 0)
(0.0005477 1.982e-05 0)
(0.00054 1.782e-05 0)
(0.000533 1.601e-05 0)
(0.0005267 1.436e-05 0)
(0.0005211 1.287e-05 0)
(0.000516 1.152e-05 0)
(0.0005115 1.03e-05 0)
(0.0005074 9.2e-06 0)
(0.0005038 8.218e-06 0)
(0.0005005 7.343e-06 0)
(0.0004976 6.568e-06 0)
(0.000495 5.888e-06 0)
(0.0004926 5.299e-06 0)
(0.0004905 4.799e-06 0)
(0.0004885 4.385e-06 0)
(0.0004868 4.057e-06 0)
(0.0004852 3.818e-06 0)
(0.0004837 3.666e-06 0)
(0.0004823 3.604e-06 0)
(0.0004809 3.627e-06 0)
(0.0004797 3.724e-06 0)
(0.0004784 3.863e-06 0)
(0.0004772 3.971e-06 0)
(0.001214 0.000152 0)
(0.001246 0.0003353 0)
(0.001274 0.0004178 0)
(0.001282 0.0004348 0)
(0.00127 0.000416 0)
(0.001241 0.0003805 0)
(0.001201 0.0003392 0)
(0.001156 0.0002981 0)
(0.00111 0.0002597 0)
(0.001064 0.0002252 0)
(0.00102 0.0001948 0)
(0.0009799 0.0001681 0)
(0.0009431 0.0001449 0)
(0.00091 0.0001245 0)
(0.0008806 0.0001067 0)
(0.0008548 9.095e-05 0)
(0.0008323 7.697e-05 0)
(0.0008131 6.447e-05 0)
(0.0007969 5.318e-05 0)
(0.0007835 4.291e-05 0)
(0.0007729 3.345e-05 0)
(0.0007648 2.465e-05 0)
(0.0007592 1.638e-05 0)
(0.000756 8.502e-06 0)
(0.000755 9.199e-07 0)
(0.0007564 -6.464e-06 0)
(0.0007599 -1.373e-05 0)
(0.0007657 -2.097e-05 0)
(0.0007737 -2.823e-05 0)
(0.000784 -3.559e-05 0)
(0.0007966 -4.308e-05 0)
(0.0008115 -5.077e-05 0)
(0.0008289 -5.868e-05 0)
(0.0008488 -6.685e-05 0)
(0.0008712 -7.529e-05 0)
(0.0008962 -8.401e-05 0)
(0.000924 -9.302e-05 0)
(0.0009546 -0.0001023 0)
(0.000988 -0.0001118 0)
(0.001024 -0.0001215 0)
(0.001064 -0.0001313 0)
(0.001106 -0.0001411 0)
(0.001151 -0.0001509 0)
(0.001199 -0.0001604 0)
(0.00125 -0.0001696 0)
(0.001303 -0.0001782 0)
(0.001359 -0.0001861 0)
(0.001417 -0.0001929 0)
(0.001477 -0.0001986 0)
(0.001539 -0.0002028 0)
(0.001601 -0.0002052 0)
(0.001663 -0.0002056 0)
(0.001726 -0.0002038 0)
(0.001787 -0.0001995 0)
(0.001847 -0.0001925 0)
(0.001904 -0.0001828 0)
(0.001957 -0.0001702 0)
(0.002007 -0.0001547 0)
(0.002051 -0.0001364 0)
(0.002089 -0.0001156 0)
(0.002121 -9.249e-05 0)
(0.002146 -6.749e-05 0)
(0.002162 -4.113e-05 0)
(0.002171 -1.398e-05 0)
(0.002171 1.332e-05 0)
(0.002163 4.013e-05 0)
(0.002147 6.586e-05 0)
(0.002124 9.002e-05 0)
(0.002093 0.0001122 0)
(0.002057 0.0001321 0)
(0.002014 0.0001495 0)
(0.001967 0.0001643 0)
(0.001915 0.0001765 0)
(0.00186 0.0001861 0)
(0.001803 0.0001932 0)
(0.001743 0.0001979 0)
(0.001683 0.0002003 0)
(0.001621 0.0002007 0)
(0.00156 0.0001993 0)
(0.0015 0.0001962 0)
(0.00144 0.0001918 0)
(0.001382 0.0001861 0)
(0.001326 0.0001795 0)
(0.001271 0.000172 0)
(0.001219 0.000164 0)
(0.00117 0.0001556 0)
(0.001123 0.000147 0)
(0.001078 0.0001382 0)
(0.001036 0.0001295 0)
(0.0009971 0.0001208 0)
(0.0009604 0.0001124 0)
(0.0009262 0.0001042 0)
(0.0008945 9.636e-05 0)
(0.0008652 8.885e-05 0)
(0.0008381 8.171e-05 0)
(0.0008131 7.497e-05 0)
(0.0007901 6.864e-05 0)
(0.0007691 6.271e-05 0)
(0.0007498 5.718e-05 0)
(0.0007322 5.204e-05 0)
(0.0007162 4.728e-05 0)
(0.0007015 4.288e-05 0)
(0.0006883 3.883e-05 0)
(0.0006762 3.511e-05 0)
(0.0006653 3.17e-05 0)
(0.0006554 2.858e-05 0)
(0.0006465 2.573e-05 0)
(0.0006384 2.313e-05 0)
(0.0006311 2.077e-05 0)
(0.0006246 1.863e-05 0)
(0.0006187 1.669e-05 0)
(0.0006134 1.494e-05 0)
(0.0006087 1.336e-05 0)
(0.0006045 1.195e-05 0)
(0.0006007 1.069e-05 0)
(0.0005972 9.565e-06 0)
(0.0005942 8.577e-06 0)
(0.0005914 7.717e-06 0)
(0.000589 6.98e-06 0)
(0.0005867 6.362e-06 0)
(0.0005847 5.861e-06 0)
(0.0005828 5.476e-06 0)
(0.0005811 5.206e-06 0)
(0.0005796 5.046e-06 0)
(0.0005781 4.991e-06 0)
(0.0005767 5.023e-06 0)
(0.0005754 5.107e-06 0)
(0.0005741 5.181e-06 0)
(0.00121 0.0001278 0)
(0.001237 0.0003004 0)
(0.001267 0.000395 0)
(0.001285 0.0004311 0)
(0.001287 0.00043 0)
(0.001275 0.0004077 0)
(0.001252 0.0003749 0)
(0.001221 0.0003382 0)
(0.001186 0.0003013 0)
(0.001149 0.0002662 0)
(0.001112 0.0002339 0)
(0.001077 0.0002046 0)
(0.001044 0.0001782 0)
(0.001014 0.0001546 0)
(0.0009865 0.0001335 0)
(0.000962 0.0001145 0)
(0.0009404 9.741e-05 0)
(0.0009218 8.192e-05 0)
(0.0009059 6.777e-05 0)
(0.0008928 5.476e-05 0)
(0.0008824 4.268e-05 0)
(0.0008745 3.136e-05 0)
(0.0008692 2.065e-05 0)
(0.0008662 1.04e-05 0)
(0.0008657 4.935e-07 0)
(0.0008675 -9.191e-06 0)
(0.0008717 -1.875e-05 0)
(0.0008783 -2.829e-05 0)
(0.0008872 -3.787e-05 0)
(0.0008985 -4.758e-05 0)
(0.0009124 -5.749e-05 0)
(0.0009287 -6.765e-05 0)
(0.0009476 -7.81e-05 0)
(0.0009692 -8.888e-05 0)
(0.0009936 -0.0001 0)
(0.001021 -0.0001115 0)
(0.001051 -0.0001234 0)
(0.001084 -0.0001356 0)
(0.00112 -0.0001481 0)
(0.00116 -0.0001608 0)
(0.001202 -0.0001737 0)
(0.001248 -0.0001866 0)
(0.001296 -0.0001994 0)
(0.001348 -0.0002119 0)
(0.001403 -0.0002239 0)
(0.001461 -0.0002351 0)
(0.001521 -0.0002454 0)
(0.001584 -0.0002543 0)
(0.001648 -0.0002617 0)
(0.001714 -0.0002671 0)
(0.001781 -0.0002702 0)
(0.001849 -0.0002707 0)
(0.001916 -0.0002682 0)
(0.001982 -0.0002625 0)
(0.002047 -0.0002534 0)
(0.002108 -0.0002406 0)
(0.002166 -0.000224 0)
(0.00222 -0.0002037 0)
(0.002267 -0.0001797 0)
(0.002309 -0.0001523 0)
(0.002343 -0.0001219 0)
(0.00237 -8.904e-05 0)
(0.002388 -5.434e-05 0)
(0.002397 -1.861e-05 0)
(0.002398 1.733e-05 0)
(0.002389 5.261e-05 0)
(0.002372 8.646e-05 0)
(0.002347 0.0001182 0)
(0.002314 0.0001474 0)
(0.002274 0.0001735 0)
(0.002228 0.0001964 0)
(0.002177 0.0002159 0)
(0.002122 0.000232 0)
(0.002062 0.0002446 0)
(0.002 0.0002541 0)
(0.001936 0.0002604 0)
(0.001871 0.0002637 0)
(0.001805 0.0002644 0)
(0.001739 0.0002627 0)
(0.001674 0.0002588 0)
(0.00161 0.000253 0)
(0.001547 0.0002457 0)
(0.001486 0.0002371 0)
(0.001428 0.0002274 0)
(0.001371 0.000217 0)
(0.001318 0.000206 0)
(0.001267 0.0001947 0)
(0.001218 0.0001832 0)
(0.001173 0.0001717 0)
(0.00113 0.0001604 0)
(0.001091 0.0001493 0)
(0.001053 0.0001386 0)
(0.001019 0.0001282 0)
(0.000987 0.0001183 0)
(0.0009575 0.0001089 0)
(0.0009302 0.0001 0)
(0.0009051 9.164e-05 0)
(0.0008821 8.379e-05 0)
(0.000861 7.647e-05 0)
(0.0008417 6.965e-05 0)
(0.0008241 6.334e-05 0)
(0.000808 5.75e-05 0)
(0.0007934 5.211e-05 0)
(0.0007801 4.716e-05 0)
(0.0007681 4.262e-05 0)
(0.0007572 3.846e-05 0)
(0.0007473 3.465e-05 0)
(0.0007384 3.119e-05 0)
(0.0007303 2.803e-05 0)
(0.0007231 2.516e-05 0)
(0.0007166 2.257e-05 0)
(0.0007107 2.022e-05 0)
(0.0007054 1.81e-05 0)
(0.0007007 1.62e-05 0)
(0.0006964 1.449e-05 0)
(0.0006926 1.298e-05 0)
(0.0006892 1.164e-05 0)
(0.0006861 1.047e-05 0)
(0.0006834 9.457e-06 0)
(0.0006809 8.6e-06 0)
(0.0006787 7.891e-06 0)
(0.0006766 7.328e-06 0)
(0.0006748 6.906e-06 0)
(0.0006731 6.619e-06 0)
(0.0006715 6.457e-06 0)
(0.0006701 6.4e-06 0)
(0.0006687 6.417e-06 0)
(0.0006674 6.452e-06 0)
(0.001208 0.0001096 0)
(0.00123 0.0002692 0)
(0.001259 0.0003683 0)
(0.001281 0.000417 0)
(0.001293 0.0004301 0)
(0.001293 0.0004201 0)
(0.001282 0.0003966 0)
(0.001264 0.000366 0)
(0.00124 0.0003325 0)
(0.001212 0.0002989 0)
(0.001184 0.0002664 0)
(0.001155 0.0002359 0)
(0.001127 0.0002077 0)
(0.001101 0.0001818 0)
(0.001077 0.0001581 0)
(0.001054 0.0001365 0)
(0.001035 0.0001167 0)
(0.001018 9.849e-05 0)
(0.001003 8.17e-05 0)
(0.0009908 6.609e-05 0)
(0.0009811 5.147e-05 0)
(0.0009738 3.767e-05 0)
(0.000969 2.452e-05 0)
(0.0009667 1.186e-05 0)
(0.0009667 -4.276e-07 0)
(0.000969 -1.249e-05 0)
(0.0009738 -2.443e-05 0)
(0.000981 -3.636e-05 0)
(0.0009907 -4.838e-05 0)
(0.001003 -6.057e-05 0)
(0.001018 -7.302e-05 0)
(0.001035 -8.578e-05 0)
(0.001055 -9.892e-05 0)
(0.001078 -0.0001125 0)
(0.001103 -0.0001265 0)
(0.001132 -0.0001409 0)
(0.001164 -0.0001558 0)
(0.001198 -0.0001711 0)
(0.001236 -0.0001868 0)
(0.001278 -0.0002027 0)
(0.001322 -0.0002188 0)
(0.00137 -0.000235 0)
(0.001421 -0.0002509 0)
(0.001475 -0.0002665 0)
(0.001533 -0.0002815 0)
(0.001593 -0.0002956 0)
(0.001656 -0.0003083 0)
(0.001722 -0.0003195 0)
(0.001789 -0.0003286 0)
(0.001859 -0.0003354 0)
(0.001929 -0.0003392 0)
(0.002 -0.0003398 0)
(0.00207 -0.0003367 0)
(0.00214 -0.0003296 0)
(0.002207 -0.0003181 0)
(0.002272 -0.0003021 0)
(0.002333 -0.0002814 0)
(0.002389 -0.0002559 0)
(0.00244 -0.0002259 0)
(0.002484 -0.0001916 0)
(0.00252 -0.0001534 0)
(0.002548 -0.0001121 0)
(0.002567 -6.852e-05 0)
(0.002577 -2.357e-05 0)
(0.002577 2.162e-05 0)
(0.002568 6.597e-05 0)
(0.00255 0.0001085 0)
(0.002523 0.0001483 0)
(0.002489 0.0001848 0)
(0.002447 0.0002176 0)
(0.002399 0.0002463 0)
(0.002345 0.0002707 0)
(0.002287 0.0002909 0)
(0.002225 0.0003069 0)
(0.00216 0.0003187 0)
(0.002093 0.0003267 0)
(0.002024 0.000331 0)
(0.001955 0.000332 0)
(0.001886 0.00033 0)
(0.001818 0.0003252 0)
(0.001751 0.0003181 0)
(0.001685 0.000309 0)
(0.001621 0.0002983 0)
(0.00156 0.0002863 0)
(0.001501 0.0002733 0)
(0.001444 0.0002597 0)
(0.001391 0.0002455 0)
(0.00134 0.0002312 0)
(0.001292 0.0002169 0)
(0.001248 0.0002027 0)
(0.001206 0.0001888 0)
(0.001167 0.0001753 0)
(0.00113 0.0001623 0)
(0.001096 0.0001499 0)
(0.001065 0.0001381 0)
(0.001036 0.0001269 0)
(0.00101 0.0001163 0)
(0.0009856 0.0001065 0)
(0.0009632 9.724e-05 0)
(0.0009428 8.864e-05 0)
(0.0009241 8.067e-05 0)
(0.000907 7.329e-05 0)
(0.0008915 6.648e-05 0)
(0.0008773 6.021e-05 0)
(0.0008645 5.445e-05 0)
(0.0008529 4.918e-05 0)
(0.0008423 4.435e-05 0)
(0.0008328 3.995e-05 0)
(0.0008242 3.593e-05 0)
(0.0008164 3.229e-05 0)
(0.0008094 2.898e-05 0)
(0.0008031 2.598e-05 0)
(0.0007974 2.328e-05 0)
(0.0007923 2.085e-05 0)
(0.0007877 1.867e-05 0)
(0.0007836 1.672e-05 0)
(0.00078 1.5e-05 0)
(0.0007767 1.348e-05 0)
(0.0007737 1.216e-05 0)
(0.000771 1.104e-05 0)
(0.0007686 1.009e-05 0)
(0.0007665 9.323e-06 0)
(0.0007645 8.723e-06 0)
(0.0007627 8.283e-06 0)
(0.0007611 7.991e-06 0)
(0.0007596 7.829e-06 0)
(0.0007582 7.766e-06 0)
(0.0007568 7.76e-06 0)
(0.001206 9.551e-05 0)
(0.001225 0.000242 0)
(0.001251 0.0003409 0)
(0.001276 0.0003972 0)
(0.001293 0.0004209 0)
(0.001301 0.0004214 0)
(0.0013 0.0004067 0)
(0.001292 0.0003828 0)
(0.001278 0.000354 0)
(0.001259 0.000323 0)
(0.001238 0.0002917 0)
(0.001216 0.0002613 0)
(0.001194 0.0002323 0)
(0.001173 0.0002051 0)
(0.001152 0.0001796 0)
(0.001133 0.000156 0)
(0.001116 0.000134 0)
(0.001101 0.0001135 0)
(0.001088 9.433e-05 0)
(0.001078 7.636e-05 0)
(0.001069 5.938e-05 0)
(0.001063 4.323e-05 0)
(0.001059 2.772e-05 0)
(0.001057 1.272e-05 0)
(0.001058 -1.921e-06 0)
(0.001061 -1.635e-05 0)
(0.001066 -3.068e-05 0)
(0.001074 -4.503e-05 0)
(0.001084 -5.952e-05 0)
(0.001097 -7.424e-05 0)
(0.001112 -8.928e-05 0)
(0.00113 -0.0001047 0)
(0.00115 -0.0001206 0)
(0.001174 -0.000137 0)
(0.0012 -0.0001539 0)
(0.001229 -0.0001714 0)
(0.001262 -0.0001894 0)
(0.001297 -0.0002078 0)
(0.001336 -0.0002268 0)
(0.001378 -0.000246 0)
(0.001424 -0.0002655 0)
(0.001472 -0.0002849 0)
(0.001524 -0.0003042 0)
(0.00158 -0.000323 0)
(0.001639 -0.0003411 0)
(0.0017 -0.000358 0)
(0.001765 -0.0003734 0)
(0.001832 -0.0003869 0)
(0.001901 -0.0003979 0)
(0.001972 -0.0004061 0)
(0.002043 -0.0004107 0)
(0.002116 -0.0004115 0)
(0.002188 -0.0004078 0)
(0.002259 -0.0003992 0)
(0.002329 -0.0003854 0)
(0.002395 -0.0003661 0)
(0.002458 -0.0003411 0)
(0.002516 -0.0003104 0)
(0.002568 -0.0002741 0)
(0.002613 -0.0002326 0)
(0.002651 -0.0001864 0)
(0.00268 -0.0001363 0)
(0.0027 -8.334e-05 0)
(0.00271 -2.872e-05 0)
(0.00271 2.619e-05 0)
(0.002701 8.003e-05 0)
(0.002682 0.0001316 0)
(0.002654 0.0001798 0)
(0.002618 0.0002239 0)
(0.002575 0.0002635 0)
(0.002526 0.0002981 0)
(0.002471 0.0003276 0)
(0.002411 0.0003519 0)
(0.002348 0.0003712 0)
(0.002281 0.0003856 0)
(0.002213 0.0003954 0)
(0.002143 0.0004007 0)
(0.002072 0.000402 0)
(0.002002 0.0003996 0)
(0.001932 0.000394 0)
(0.001863 0.0003855 0)
(0.001796 0.0003746 0)
(0.00173 0.0003618 0)
(0.001667 0.0003474 0)
(0.001607 0.0003317 0)
(0.001549 0.0003152 0)
(0.001495 0.0002982 0)
(0.001443 0.000281 0)
(0.001394 0.0002637 0)
(0.001348 0.0002465 0)
(0.001305 0.0002298 0)
(0.001265 0.0002135 0)
(0.001228 0.0001978 0)
(0.001193 0.0001828 0)
(0.001161 0.0001684 0)
(0.001132 0.0001549 0)
(0.001104 0.0001421 0)
(0.001079 0.0001301 0)
(0.001056 0.0001189 0)
(0.001035 0.0001085 0)
(0.001016 9.88e-05 0)
(0.0009983 8.983e-05 0)
(0.0009822 8.154e-05 0)
(0.0009676 7.391e-05 0)
(0.0009543 6.689e-05 0)
(0.0009422 6.045e-05 0)
(0.0009313 5.456e-05 0)
(0.0009214 4.918e-05 0)
(0.0009124 4.428e-05 0)
(0.0009043 3.981e-05 0)
(0.000897 3.576e-05 0)
(0.0008905 3.208e-05 0)
(0.0008845 2.877e-05 0)
(0.0008792 2.577e-05 0)
(0.0008744 2.309e-05 0)
(0.0008702 2.069e-05 0)
(0.0008663 1.856e-05 0)
(0.0008629 1.667e-05 0)
(0.0008598 1.503e-05 0)
(0.000857 1.361e-05 0)
(0.0008545 1.241e-05 0)
(0.0008523 1.141e-05 0)
(0.0008503 1.061e-05 0)
(0.0008484 9.998e-06 0)
(0.0008468 9.561e-06 0)
(0.0008453 9.28e-06 0)
(0.0008439 9.13e-06 0)
(0.0008425 9.079e-06 0)
(0.001205 8.425e-05 0)
(0.001221 0.0002183 0)
(0.001245 0.0003144 0)
(0.00127 0.0003747 0)
(0.00129 0.0004058 0)
(0.001304 0.0004147 0)
(0.00131 0.0004079 0)
(0.00131 0.0003905 0)
(0.001304 0.0003666 0)
(0.001293 0.0003391 0)
(0.00128 0.00031 0)
(0.001264 0.0002805 0)
(0.001248 0.0002517 0)
(0.001231 0.0002239 0)
(0.001215 0.0001974 0)
(0.0012 0.0001723 0)
(0.001186 0.0001487 0)
(0.001173 0.0001263 0)
(0.001163 0.0001052 0)
(0.001154 8.519e-05 0)
(0.001147 6.61e-05 0)
(0.001142 4.778e-05 0)
(0.001139 3.009e-05 0)
(0.001138 1.287e-05 0)
(0.001139 -4.022e-06 0)
(0.001143 -2.073e-05 0)
(0.001148 -3.739e-05 0)
(0.001156 -5.413e-05 0)
(0.001167 -7.105e-05 0)
(0.00118 -8.827e-05 0)
(0.001195 -0.0001059 0)
(0.001213 -0.000124 0)
(0.001234 -0.0001426 0)
(0.001257 -0.0001618 0)
(0.001284 -0.0001817 0)
(0.001313 -0.0002021 0)
(0.001345 -0.0002233 0)
(0.001381 -0.0002449 0)
(0.001419 -0.0002671 0)
(0.001461 -0.0002897 0)
(0.001507 -0.0003125 0)
(0.001555 -0.0003353 0)
(0.001607 -0.000358 0)
(0.001662 -0.00038 0)
(0.001721 -0.0004012 0)
(0.001782 -0.0004211 0)
(0.001847 -0.0004392 0)
(0.001914 -0.000455 0)
(0.001983 -0.000468 0)
(0.002054 -0.0004776 0)
(0.002125 -0.0004831 0)
(0.002198 -0.000484 0)
(0.00227 -0.0004798 0)
(0.002342 -0.0004698 0)
(0.002411 -0.0004538 0)
(0.002478 -0.0004312 0)
(0.002541 -0.000402 0)
(0.0026 -0.000366 0)
(0.002653 -0.0003234 0)
(0.002698 -0.0002746 0)
(0.002737 -0.0002202 0)
(0.002766 -0.0001611 0)
(0.002786 -9.85e-05 0)
(0.002796 -3.39e-05 0)
(0.002796 3.102e-05 0)
(0.002787 9.459e-05 0)
(0.002767 0.0001553 0)
(0.002739 0.000212 0)
(0.002703 0.0002638 0)
(0.002659 0.0003101 0)
(0.00261 0.0003506 0)
(0.002554 0.0003852 0)
(0.002495 0.0004137 0)
(0.002431 0.0004364 0)
(0.002365 0.0004533 0)
(0.002296 0.0004648 0)
(0.002226 0.0004711 0)
(0.002156 0.0004727 0)
(0.002085 0.00047 0)
(0.002015 0.0004635 0)
(0.001947 0.0004536 0)
(0.001879 0.0004409 0)
(0.001814 0.0004259 0)
(0.001751 0.000409 0)
(0.001691 0.0003907 0)
(0.001633 0.0003714 0)
(0.001579 0.0003515 0)