/*--------------------------------*- C++ -*----------------------------------*\
  =========                 |
  \\      /  F ield         | OpenFOAM: The Open Source CFD Toolbox
   \\    /   O peration     | Website:  https://openfoam.org
    \\  /    A nd           | Version:  7
     \\/     M anipulation  |
\*---------------------------------------------------------------------------*/
FoamFile
{
    version     2.0;
    format      ascii;
    class       volScalarField;
    location    "599.999473410984592";
    object      Y.K;
}
// * * * * * * * * * * * * * * * * * * * * * * * * * * * * * * * * * * * * * //

dimensions      [0 0 0 0 0 0 0];

internalField   nonuniform List<scalar> 
4096
(
5.365e-68
-3.159e-69
6.983e-67
-4.249e-67
-5.795e-68
1.319e-67
-6.863e-68
-4.674e-68
4.477e-69
5.227e-67
-5.628e-66
9.295e-65
-1.301e-63
1.866e-62
-2.416e-61
3.016e-60
-3.546e-59
4.05e-58
-4.416e-57
4.711e-56
-4.772e-55
4.723e-54
-4.569e-53
4.205e-52
-3.667e-51
2.947e-50
-2.287e-49
1.74e-48
-1.258e-47
8.532e-47
-5.165e-46
2.674e-45
-7.427e-45
-5.308e-44
1.303e-42
-1.676e-41
1.639e-40
-1.446e-39
1.147e-38
-8.38e-38
5.605e-37
-3.519e-36
2.097e-35
-1.153e-34
5.954e-34
-2.896e-33
1.335e-32
-5.789e-32
2.384e-31
-8.578e-31
3.509e-30
-6.808e-30
3.099e-29
1.265e-28
7.516e-28
8.858e-27
3.778e-26
4.347e-25
1.73e-24
1.676e-23
5.879e-23
2.003e-22
1.436e-21
6.832e-21
8.901e-20
1.224e-18
3.765e-18
8.607e-18
1.749e-17
3.334e-17
6.081e-17
1.072e-16
1.835e-16
3.058e-16
4.973e-16
7.901e-16
1.228e-15
1.87e-15
2.792e-15
4.091e-15
5.888e-15
8.334e-15
1.161e-14
1.593e-14
2.156e-14
2.879e-14
3.796e-14
4.947e-14
6.378e-14
8.138e-14
1.029e-13
1.288e-13
1.601e-13
1.973e-13
2.415e-13
2.936e-13
3.547e-13
4.26e-13
5.088e-13
6.047e-13
7.153e-13
8.423e-13
9.878e-13
1.154e-12
1.343e-12
1.558e-12
1.801e-12
2.076e-12
2.387e-12
2.736e-12
3.128e-12
3.568e-12
4.06e-12
4.61e-12
5.224e-12
5.907e-12
6.667e-12
7.51e-12
8.445e-12
9.48e-12
1.062e-11
1.188e-11
1.327e-11
1.478e-11
1.641e-11
1.811e-11
1.977e-11
2.106e-11
1.261e-66
-7.181e-66
8.318e-66
-1.198e-66
-6.137e-66
5.537e-66
-1.369e-67
-2.963e-66
-6.568e-67
3.08e-65
-3.284e-64
5.046e-63
-7.407e-62
1.02e-60
-1.325e-59
1.632e-58
-1.919e-57
2.167e-56
-2.361e-55
2.489e-54
-2.541e-53
2.509e-52
-2.392e-51
2.184e-50
-1.911e-49
1.535e-48
-1.196e-47
9.04e-47
-6.547e-46
4.457e-45
-2.734e-44
1.442e-43
-4.561e-43
-2.08e-42
5.981e-41
-7.962e-40
7.827e-39
-6.931e-38
5.495e-37
-3.995e-36
2.699e-35
-1.697e-34
9.931e-34
-5.418e-33
2.781e-32
-1.343e-31
6.156e-31
-2.644e-30
1.101e-29
-3.89e-29
1.627e-28
-2.567e-28
1.489e-27
7.553e-27
4.587e-26
4.185e-25
2.325e-24
2.081e-23
9.241e-23
7.585e-22
2.698e-21
8.835e-21
5.461e-20
2.072e-19
1.286e-18
3.807e-18
8.693e-18
1.778e-17
3.408e-17
6.237e-17
1.1e-16
1.879e-16
3.119e-16
5.041e-16
7.953e-16
1.226e-15
1.851e-15
2.739e-15
3.977e-15
5.674e-15
7.964e-15
1.101e-14
1.5e-14
2.016e-14
2.676e-14
3.51e-14
4.554e-14
5.849e-14
7.44e-14
9.38e-14
1.173e-13
1.455e-13
1.791e-13
2.191e-13
2.662e-13
3.216e-13
3.863e-13
4.616e-13
5.489e-13
6.497e-13
7.657e-13
8.988e-13
1.051e-12
1.225e-12
1.422e-12
1.646e-12
1.9e-12
2.186e-12
2.509e-12
2.872e-12
3.279e-12
3.736e-12
4.247e-12
4.818e-12
5.454e-12
6.162e-12
6.95e-12
7.824e-12
8.792e-12
9.864e-12
1.105e-11
1.235e-11
1.379e-11
1.536e-11
1.708e-11
1.891e-11
2.081e-11
2.259e-11
-2.909e-65
2.027e-64
-5.116e-64
6.93e-64
-4.905e-64
8.22e-65
1.665e-64
-1.423e-64
-9.443e-65
1.779e-63
-1.745e-62
2.665e-61
-3.892e-60
5.323e-59
-6.855e-58
8.367e-57
-9.748e-56
1.091e-54
-1.179e-53
1.233e-52
-1.249e-51
1.226e-50
-1.162e-49
1.057e-48
-9.204e-48
7.402e-47
-5.788e-46
4.397e-45
-3.207e-44
2.206e-43
-1.386e-42
7.557e-42
-2.935e-41
-2.83e-41
2.255e-39
-3.307e-38
3.316e-37
-2.982e-36
2.377e-35
-1.729e-34
1.17e-33
-7.358e-33
4.298e-32
-2.333e-31
1.191e-30
-5.72e-30
2.607e-29
-1.11e-28
4.631e-28
-1.575e-27
7.089e-27
-6.269e-27
7.527e-26
4.531e-25
2.887e-24
2.288e-23
1.362e-22
1.036e-21
4.932e-21
3.298e-20
1.154e-19
3.536e-19
1.712e-18
5.005e-18
1.158e-17
2.425e-17
4.77e-17
8.934e-17
1.606e-16
2.78e-16
4.654e-16
7.547e-16
1.189e-15
1.822e-15
2.722e-15
3.972e-15
5.673e-15
7.941e-15
1.091e-14
1.475e-14
1.962e-14
2.574e-14
3.335e-14
4.27e-14
5.411e-14
6.793e-14
8.454e-14
1.044e-13
1.28e-13
1.56e-13
1.89e-13
2.277e-13
2.729e-13
3.257e-13
3.87e-13
4.58e-13
5.399e-13
6.343e-13
7.427e-13
8.668e-13
1.009e-12
1.17e-12
1.354e-12
1.563e-12
1.799e-12
2.066e-12
2.367e-12
2.706e-12
3.087e-12
3.515e-12
3.993e-12
4.528e-12
5.126e-12
5.792e-12
6.533e-12
7.357e-12
8.27e-12
9.283e-12
1.04e-11
1.164e-11
1.301e-11
1.451e-11
1.616e-11
1.798e-11
1.996e-11
2.211e-11
2.445e-11
2.703e-11
4.768e-64
-3.792e-63
1.342e-62
-2.925e-62
4.171e-62
-3.931e-62
2.247e-62
-4.52e-63
-6.281e-63
9.86e-62
-8.751e-61
1.32e-59
-1.907e-58
2.576e-57
-3.27e-56
3.933e-55
-4.516e-54
4.986e-53
-5.319e-52
5.5e-51
-5.52e-50
5.371e-49
-5.056e-48
4.576e-47
-3.971e-46
3.204e-45
-2.522e-44
1.932e-43
-1.425e-42
9.98e-42
-6.483e-41
3.686e-40
-1.808e-39
3.081e-39
5.69e-38
-1.097e-36
1.161e-35
-1.083e-34
8.775e-34
-6.425e-33
4.381e-32
-2.772e-31
1.621e-30
-8.762e-30
4.458e-29
-2.128e-28
9.664e-28
-4.067e-27
1.711e-26
-5.342e-26
2.771e-25
1.31e-25
3.768e-24
2.649e-23
1.76e-22
1.269e-21
7.543e-21
4.834e-20
2.223e-19
1.132e-18
3.665e-18
9.424e-18
2.191e-17
4.76e-17
9.78e-17
1.911e-16
3.565e-16
6.368e-16
1.092e-15
1.803e-15
2.873e-15
4.426e-15
6.612e-15
9.598e-15
1.357e-14
1.872e-14
2.525e-14
3.338e-14
4.332e-14
5.529e-14
6.954e-14
8.631e-14
1.059e-13
1.286e-13
1.548e-13
1.848e-13
2.193e-13
2.587e-13
3.037e-13
3.55e-13
4.135e-13
4.801e-13
5.559e-13
6.421e-13
7.402e-13
8.516e-13
9.78e-13
1.121e-12
1.284e-12
1.468e-12
1.675e-12
1.91e-12
2.174e-12
2.472e-12
2.807e-12
3.184e-12
3.605e-12
4.078e-12
4.606e-12
5.197e-12
5.855e-12
6.588e-12
7.403e-12
8.309e-12
9.313e-12
1.043e-11
1.166e-11
1.302e-11
1.451e-11
1.617e-11
1.798e-11
1.998e-11
2.216e-11
2.455e-11
2.716e-11
3.001e-11
3.314e-11
3.701e-11
-6.747e-63
5.829e-62
-2.553e-61
7.447e-61
-1.526e-60
2.271e-60
-2.46e-60
1.868e-60
-9.031e-61
5.154e-60
-4.158e-59
6.12e-58
-8.675e-57
1.146e-55
-1.421e-54
1.669e-53
-1.875e-52
2.028e-51
-2.124e-50
2.161e-49
-2.138e-48
2.057e-47
-1.919e-46
1.728e-45
-1.495e-44
1.213e-43
-9.64e-43
7.475e-42
-5.607e-41
4.022e-40
-2.714e-39
1.667e-38
-9.037e-38
3.436e-37
9.113e-38
-2.421e-35
3.061e-34
-3.11e-33
2.626e-32
-1.952e-31
1.359e-30
-8.748e-30
5.153e-29
-2.775e-28
1.41e-27
-6.7e-27
3.043e-26
-1.254e-25
5.372e-25
-1.314e-24
9.328e-24
1.715e-23
1.811e-22
1.428e-21
9.864e-21
6.745e-20
3.473e-19
1.812e-18
6.3e-18
1.761e-17
4.446e-17
1.045e-16
2.312e-16
4.832e-16
9.573e-16
1.802e-15
3.229e-15
5.525e-15
9.053e-15
1.424e-14
2.156e-14
3.15e-14
4.454e-14
6.112e-14
8.158e-14
1.062e-13
1.351e-13
1.684e-13
2.062e-13
2.484e-13
2.951e-13
3.463e-13
4.022e-13
4.631e-13
5.294e-13
6.016e-13
6.805e-13
7.669e-13
8.618e-13
9.664e-13
1.082e-12
1.21e-12
1.353e-12
1.511e-12
1.689e-12
1.887e-12
2.108e-12
2.356e-12
2.634e-12
2.945e-12
3.293e-12
3.683e-12
4.119e-12
4.607e-12
5.151e-12
5.759e-12
6.437e-12
7.192e-12
8.032e-12
8.966e-12
1e-11
1.115e-11
1.243e-11
1.383e-11
1.539e-11
1.711e-11
1.9e-11
2.108e-11
2.337e-11
2.588e-11
2.863e-11
3.164e-11
3.493e-11
3.851e-11
4.241e-11
4.664e-11
5.129e-11
5.746e-11
8.761e-62
-7.986e-61
4.058e-60
-1.457e-59
3.85e-59
-7.73e-59
1.193e-58
-1.387e-58
1.131e-58
2.14e-58
-1.843e-57
2.637e-56
-3.617e-55
4.609e-54
-5.511e-53
6.252e-52
-6.796e-51
7.137e-50
-7.281e-49
7.242e-48
-7.032e-47
6.662e-46
-6.147e-45
5.499e-44
-4.751e-43
3.888e-42
-3.13e-41
2.466e-40
-1.889e-39
1.395e-38
-9.816e-38
6.484e-37
-3.885e-36
2.089e-35
-7.541e-35
-3.461e-35
3.564e-33
-5.998e-32
5.804e-31
-4.472e-30
3.286e-29
-2.215e-28
1.331e-27
-7.13e-27
3.626e-26
-1.725e-25
7.952e-25
-3.13e-24
1.389e-23
-6.202e-24
2.622e-22
1.472e-21
9.667e-21
7.94e-20
4.693e-19
2.639e-18
1.008e-17
3.129e-17
8.776e-17
2.286e-16
5.569e-16
1.274e-15
2.741e-15
5.56e-15
1.065e-14
1.93e-14
3.318e-14
5.429e-14
8.478e-14
1.267e-13
1.819e-13
2.516e-13
3.361e-13
4.351e-13
5.474e-13
6.712e-13
8.042e-13
9.441e-13
1.089e-12
1.236e-12
1.386e-12
1.537e-12
1.689e-12
1.843e-12
2.001e-12
2.164e-12
2.334e-12
2.513e-12
2.704e-12
2.909e-12
3.132e-12
3.376e-12
3.644e-12
3.941e-12
4.269e-12
4.634e-12
5.04e-12
5.492e-12
5.996e-12
6.558e-12
7.185e-12
7.883e-12
8.661e-12
9.527e-12
1.049e-11
1.156e-11
1.275e-11
1.407e-11
1.553e-11
1.715e-11
1.894e-11
2.092e-11
2.311e-11
2.552e-11
2.817e-11
3.108e-11
3.428e-11
3.779e-11
4.163e-11
4.583e-11
5.041e-11
5.541e-11
6.085e-11
6.675e-11
7.315e-11
8.008e-11
8.76e-11
9.81e-11
-1.074e-60
1.014e-59
-5.741e-59
2.413e-58
-7.761e-58
1.961e-57
-3.94e-57
6.247e-57
-7.536e-57
1.525e-56
-7.483e-56
1.036e-54
-1.35e-53
1.629e-52
-1.845e-51
1.989e-50
-2.064e-49
2.081e-48
-2.05e-47
1.979e-46
-1.875e-45
1.742e-44
-1.586e-43
1.409e-42
-1.216e-41
1.008e-40
-8.249e-40
6.627e-39
-5.201e-38
3.964e-37
-2.913e-36
2.047e-35
-1.357e-34
8.348e-34
-4.589e-33
2.074e-32
-5.271e-32
-1.907e-31
4.667e-30
-5.475e-29
5.252e-28
-4.063e-27
2.584e-26
-1.411e-25
7.205e-25
-3.513e-24
1.741e-23
-6.092e-23
2.852e-22
5.877e-22
9.608e-21
7.019e-20
4.982e-19
3.162e-18
1.356e-17
4.773e-17
1.52e-16
4.485e-16
1.232e-15
3.155e-15
7.549e-15
1.689e-14
3.539e-14
6.957e-14
1.285e-13
2.237e-13
3.682e-13
5.745e-13
8.53e-13
1.209e-12
1.642e-12
2.145e-12
2.703e-12
3.296e-12
3.903e-12
4.502e-12
5.074e-12
5.603e-12
6.082e-12
6.511e-12
6.885e-12
7.214e-12
7.505e-12
7.768e-12
8.013e-12
8.249e-12
8.486e-12
8.734e-12
9.003e-12
9.298e-12
9.634e-12
1.001e-11
1.045e-11
1.094e-11
1.149e-11
1.213e-11
1.284e-11
1.365e-11
1.456e-11
1.559e-11
1.674e-11
1.802e-11
1.946e-11
2.106e-11
2.284e-11
2.482e-11
2.701e-11
2.944e-11
3.213e-11
3.511e-11
3.839e-11
4.2e-11
4.598e-11
5.035e-11
5.515e-11
6.041e-11
6.617e-11
7.246e-11
7.934e-11
8.682e-11
9.497e-11
1.038e-10
1.134e-10
1.238e-10
1.35e-10
1.471e-10
1.601e-10
1.789e-10
1.256e-59
-1.215e-58
7.46e-58
-3.551e-57
1.339e-56
-4.088e-56
1.02e-55
-2.057e-55
3.17e-55
1.011e-55
-2.653e-54
3.621e-53
-4.322e-52
4.803e-51
-5.025e-50
5.044e-49
-4.917e-48
4.697e-47
-4.42e-46
4.108e-45
-3.775e-44
3.428e-43
-3.072e-42
2.709e-41
-2.34e-40
1.975e-39
-1.649e-38
1.357e-37
-1.095e-36
8.639e-36
-6.629e-35
4.923e-34
-3.517e-33
2.405e-32
-1.55e-31
9.239e-31
-4.965e-30
2.586e-29
-9.253e-29
1.194e-28
1.762e-27
-2.21e-26
1.68e-25
-1.201e-24
8.571e-24
-4.9e-23
3.211e-22
-7.607e-22
4.779e-21
4.314e-20
3.889e-19
2.871e-18
1.41e-17
5.736e-17
2.116e-16
7.214e-16
2.28e-15
6.683e-15
1.819e-14
4.596e-14
1.079e-13
2.358e-13
4.801e-13
9.12e-13
1.621e-12
2.703e-12
4.245e-12
6.3e-12
8.873e-12
1.19e-11
1.527e-11
1.879e-11
2.231e-11
2.56e-11
2.849e-11
3.089e-11
3.27e-11
3.397e-11
3.473e-11
3.508e-11
3.499e-11
3.469e-11
3.421e-11
3.362e-11
3.298e-11
3.235e-11
3.179e-11
3.131e-11
3.096e-11
3.07e-11
3.07e-11
3.08e-11
3.106e-11
3.151e-11
3.216e-11
3.301e-11
3.408e-11
3.537e-11
3.689e-11
3.866e-11
4.071e-11
4.304e-11
4.568e-11
4.866e-11
5.2e-11
5.573e-11
5.988e-11
6.449e-11
6.96e-11
7.524e-11
8.146e-11
8.831e-11
9.583e-11
1.041e-10
1.131e-10
1.23e-10
1.338e-10
1.456e-10
1.585e-10
1.724e-10
1.875e-10
2.039e-10
2.216e-10
2.407e-10
2.613e-10
2.834e-10
3.069e-10
3.418e-10
-1.405e-58
1.38e-57
-9.024e-57
4.753e-56
-2.048e-55
7.346e-55
-2.215e-54
5.6e-54
-1.175e-53
2.519e-53
-9.1e-53
1.013e-51
-1.085e-50
1.07e-49
-9.968e-49
9.065e-48
-8.131e-47
7.256e-46
-6.453e-45
5.728e-44
-5.074e-43
4.484e-42
-3.946e-41
3.451e-40
-2.993e-39
2.591e-38
-2.222e-37
1.888e-36
-1.58e-35
1.298e-34
-1.044e-33
8.197e-33
-6.254e-32
4.633e-31
-3.274e-30
2.19e-29
-1.396e-28
8.258e-28
-4.619e-27
2.411e-26
-1.136e-25
5.387e-25
-2.027e-24
3.701e-24
1.036e-23
-1.447e-22
2.733e-21
1.963e-21
1.85e-19
1.809e-18
1.051e-17
5.043e-17
2.193e-16
8.789e-16
3.254e-15
1.113e-14
3.517e-14
1.026e-13
2.763e-13
6.874e-13
1.581e-12
3.364e-12
6.634e-12
1.214e-11
2.07e-11
3.296e-11
4.926e-11
6.936e-11
9.242e-11
1.17e-10
1.416e-10
1.639e-10
1.833e-10
1.973e-10
2.061e-10
2.101e-10
2.087e-10
2.044e-10
1.972e-10
1.881e-10
1.777e-10
1.668e-10
1.561e-10
1.458e-10
1.363e-10
1.276e-10
1.2e-10
1.133e-10
1.077e-10
1.029e-10
9.914e-11
9.619e-11
9.402e-11
9.262e-11
9.184e-11
9.2e-11
9.266e-11
9.393e-11
9.59e-11
9.852e-11
1.018e-10
1.058e-10
1.104e-10
1.159e-10
1.221e-10
1.291e-10
1.37e-10
1.458e-10
1.557e-10
1.666e-10
1.786e-10
1.919e-10
2.065e-10
2.225e-10
2.4e-10
2.592e-10
2.801e-10
3.028e-10
3.275e-10
3.542e-10
3.832e-10
4.144e-10
4.482e-10
4.845e-10
5.234e-10
5.653e-10
6.093e-10
6.757e-10
1.493e-57
-1.481e-56
1.017e-55
-5.828e-55
2.814e-54
-1.162e-53
4.14e-53
-1.261e-52
3.117e-52
-3.173e-52
-1.798e-51
2.149e-50
-1.808e-49
1.426e-48
-1.109e-47
8.862e-47
-7.134e-46
5.886e-45
-4.899e-44
4.107e-43
-3.466e-42
2.95e-41
-2.519e-40
2.166e-39
-1.873e-38
1.618e-37
-1.392e-36
1.198e-35
-1.023e-34
8.58e-34
-7.054e-33
5.671e-32
-4.45e-31
3.396e-30
-2.485e-29
1.786e-28
-1.224e-27
8.191e-27
-5.258e-26
3.231e-25
-1.898e-24
1.058e-23
-5.659e-23
2.842e-22
-1.299e-21
7.738e-21
3.465e-20
5.105e-19
4.858e-18
3.018e-17
1.584e-16
7.571e-16
3.333e-15
1.352e-14
5.046e-14
1.732e-13
5.46e-13
1.581e-12
4.206e-12
1.028e-11
2.308e-11
4.771e-11
9.085e-11
1.597e-10
2.601e-10
3.943e-10
5.589e-10
7.445e-10
9.364e-10
1.117e-09
1.274e-09
1.383e-09
1.461e-09
1.46e-09
1.435e-09
1.378e-09
1.296e-09
1.197e-09
1.09e-09
9.825e-10
8.793e-10
7.836e-10
6.972e-10
6.208e-10
5.541e-10
4.969e-10
4.481e-10
4.069e-10
3.724e-10
3.438e-10
3.202e-10
3.011e-10
2.858e-10
2.738e-10
2.648e-10
2.584e-10
2.544e-10
2.524e-10
2.529e-10
2.549e-10
2.588e-10
2.645e-10
2.72e-10
2.812e-10
2.923e-10
3.053e-10
3.201e-10
3.37e-10
3.561e-10
3.773e-10
4.009e-10
4.27e-10
4.557e-10
4.873e-10
5.219e-10
5.596e-10
6.007e-10
6.454e-10
6.939e-10
7.464e-10
8.031e-10
8.642e-10
9.3e-10
1.001e-09
1.076e-09
1.157e-09
1.242e-09
1.371e-09
-1.488e-56
1.483e-55
-1.06e-54
6.512e-54
-3.472e-53
1.628e-52
-6.786e-52
2.536e-51
-8.51e-51
2.539e-50
-6.543e-50
1.363e-49
-2.655e-49
1.366e-48
-1.285e-47
1.48e-46
-1.469e-45
1.282e-44
-1.027e-43
7.647e-43
-5.287e-42
3.318e-41
-1.807e-40
6.891e-40
6.569e-40
-4.858e-38
6.381e-37
-6.091e-36
5.125e-35
-4.04e-34
2.905e-33
-2.099e-32
8.004e-32
-7.143e-32
-3.955e-30
6.077e-29
-6.733e-28
6.163e-27
-5.067e-26
3.849e-25
-2.735e-24
1.779e-23
-1.125e-22
7.059e-22
-2.244e-21
1.293e-19
1.634e-18
1.214e-17
7.613e-17
4.361e-16
2.304e-15
1.121e-14
5.01e-14
2.054e-13
7.716e-13
2.651e-12
8.324e-12
2.388e-11
6.256e-11
1.497e-10
3.274e-10
6.549e-10
1.2e-09
2.018e-09
3.129e-09
4.498e-09
6.028e-09
7.577e-09
8.972e-09
1.008e-08
1.082e-08
1.096e-08
1.076e-08
1.026e-08
9.505e-09
8.595e-09
7.618e-09
6.646e-09
5.728e-09
4.896e-09
4.163e-09
3.532e-09
2.998e-09
2.553e-09
2.184e-09
1.88e-09
1.632e-09
1.429e-09
1.264e-09
1.13e-09
1.021e-09
9.326e-10
8.616e-10
8.049e-10
7.601e-10
7.253e-10
6.993e-10
6.806e-10
6.688e-10
6.619e-10
6.628e-10
6.671e-10
6.762e-10
6.899e-10
7.081e-10
7.309e-10
7.581e-10
7.899e-10
8.264e-10
8.677e-10
9.14e-10
9.655e-10
1.023e-09
1.085e-09
1.154e-09
1.23e-09
1.312e-09
1.401e-09
1.498e-09
1.602e-09
1.715e-09
1.837e-09
1.967e-09
2.107e-09
2.256e-09
2.415e-09
2.581e-09
2.836e-09
1.362e-55
-1.357e-54
1e-53
-6.517e-53
3.776e-52
-1.969e-51
9.332e-51
-4.056e-50
1.623e-49
-5.956e-49
1.956e-48
-5.318e-48
2.674e-48
6.585e-47
-7.247e-46
6.315e-45
-5.012e-44
3.842e-43
-2.886e-42
2.13e-41
-1.545e-40
1.103e-39
-7.754e-39
5.321e-38
-3.548e-37
2.255e-36
-1.308e-35
6.245e-35
-1.389e-34
-1.636e-33
3.332e-32
-4.053e-31
4.101e-30
-3.728e-29
3.14e-28
-2.484e-27
1.86e-26
-1.323e-25
8.986e-25
-5.781e-24
3.552e-23
-2.091e-22
1.227e-21
-4.549e-21
2.049e-19
2.823e-18
2.301e-17
1.603e-16
1.022e-15
6.002e-15
3.242e-14
1.606e-13
7.282e-13
3.013e-12
1.136e-11
3.897e-11
1.215e-10
3.443e-10
8.857e-10
2.069e-09
4.388e-09
8.461e-09
1.485e-08
2.379e-08
3.497e-08
4.749e-08
6e-08
7.104e-08
7.899e-08
8.373e-08
8.291e-08
7.968e-08
7.392e-08
6.64e-08
5.802e-08
4.955e-08
4.155e-08
3.435e-08
2.812e-08
2.288e-08
1.855e-08
1.504e-08
1.223e-08
9.998e-09
8.228e-09
6.83e-09
5.726e-09
4.853e-09
4.162e-09
3.614e-09
3.178e-09
2.83e-09
2.552e-09
2.331e-09
2.155e-09
2.016e-09
1.907e-09
1.824e-09
1.763e-09
1.72e-09
1.694e-09
1.681e-09
1.685e-09
1.698e-09
1.724e-09
1.76e-09
1.807e-09
1.865e-09
1.934e-09
2.013e-09
2.104e-09
2.205e-09
2.319e-09
2.445e-09
2.583e-09
2.735e-09
2.9e-09
3.08e-09
3.275e-09
3.486e-09
3.713e-09
3.957e-09
4.218e-09
4.498e-09
4.797e-09
5.115e-09
5.443e-09
5.955e-09
-1.117e-54
1.11e-53
-8.371e-53
5.726e-52
-3.564e-51
2.039e-50
-1.083e-49
5.393e-49
-2.541e-48
1.14e-47
-4.904e-47
2.035e-46
-8.254e-46
3.389e-45
-1.513e-44
7.975e-44
-5.012e-43
3.533e-42
-2.546e-41
1.798e-40
-1.237e-39
8.476e-39
-6.094e-38
4.827e-37
-4.214e-36
3.796e-35
-3.41e-34
2.999e-33
-2.565e-32
2.126e-31
-1.707e-30
1.328e-29
-1e-28
7.295e-28
-5.148e-27
3.514e-26
-2.317e-25
1.477e-24
-9.035e-24
5.409e-23
-3.064e-22
1.753e-21
-6.963e-21
2.68e-19
4.052e-18
3.633e-17
2.809e-16
1.995e-15
1.306e-14
7.859e-14
4.333e-13
2.181e-12
9.994e-12
4.16e-11
1.569e-10
5.359e-10
1.654e-09
4.61e-09
1.16e-08
2.632e-08
5.389e-08
9.967e-08
1.668e-07
2.533e-07
3.514e-07
4.493e-07
5.345e-07
5.947e-07
6.203e-07
6.085e-07
5.747e-07
5.214e-07
4.563e-07
3.871e-07
3.201e-07
2.592e-07
2.066e-07
1.626e-07
1.27e-07
9.881e-08
7.68e-08
5.981e-08
4.681e-08
3.689e-08
2.934e-08
2.358e-08
1.917e-08
1.579e-08
1.319e-08
1.116e-08
9.584e-09
8.347e-09
7.372e-09
6.601e-09
5.991e-09
5.508e-09
5.127e-09
4.829e-09
4.6e-09
4.428e-09
4.304e-09
4.224e-09
4.171e-09
4.172e-09
4.192e-09
4.239e-09
4.313e-09
4.413e-09
4.538e-09
4.688e-09
4.863e-09
5.063e-09
5.289e-09
5.541e-09
5.819e-09
6.125e-09
6.46e-09
6.825e-09
7.22e-09
7.648e-09
8.108e-09
8.603e-09
9.133e-09
9.698e-09
1.03e-08
1.094e-08
1.16e-08
1.263e-08
7.878e-54
-7.779e-53
5.968e-52
-4.243e-51
2.8e-50
-1.728e-49
1.008e-48
-5.6e-48
2.994e-47
-1.551e-46
7.815e-46
-3.82e-45
1.791e-44
-7.844e-44
3.016e-43
-8.597e-43
1.074e-43
2.571e-41
-2.601e-40
1.731e-39
-7.527e-39
-3.604e-39
5.422e-37
-8.443e-36
8.789e-35
-7.929e-34
6.643e-33
-5.296e-32
4.066e-31
-3.026e-30
2.19e-29
-1.545e-28
1.062e-27
-7.114e-27
4.645e-26
-2.952e-25
1.825e-24
-1.095e-23
6.429e-23
-3.504e-22
1.992e-21
-8.159e-21
2.859e-19
4.743e-18
4.675e-17
4.013e-16
3.174e-15
2.318e-14
1.557e-13
9.571e-13
5.367e-12
2.735e-11
1.262e-10
5.263e-10
1.978e-09
6.691e-09
2.033e-08
5.544e-08
1.356e-07
2.972e-07
5.839e-07
1.03e-06
1.635e-06
2.343e-06
3.057e-06
3.674e-06
4.12e-06
4.269e-06
4.162e-06
3.886e-06
3.47e-06
2.977e-06
2.469e-06
1.99e-06
1.566e-06
1.21e-06
9.218e-07
6.953e-07
5.213e-07
3.901e-07
2.922e-07
2.197e-07
1.664e-07
1.271e-07
9.818e-08
7.676e-08
6.083e-08
4.891e-08
3.991e-08
3.307e-08
2.783e-08
2.379e-08
2.064e-08
1.818e-08
1.624e-08
1.471e-08
1.351e-08
1.256e-08
1.182e-08
1.124e-08
1.081e-08
1.05e-08
1.029e-08
1.016e-08
1.013e-08
1.016e-08
1.026e-08
1.042e-08
1.064e-08
1.091e-08
1.125e-08
1.164e-08
1.208e-08
1.259e-08
1.315e-08
1.376e-08
1.444e-08
1.519e-08
1.599e-08
1.686e-08
1.78e-08
1.881e-08
1.989e-08
2.104e-08
2.226e-08
2.356e-08
2.489e-08
2.698e-08
-4.562e-53
4.467e-52
-3.465e-51
2.536e-50
-1.75e-49
1.145e-48
-7.16e-48
4.325e-47
-2.557e-46
1.502e-45
-8.909e-45
5.412e-44
-3.39e-43
2.195e-42
-1.455e-41
9.607e-41
-6.391e-40
4.319e-39
-2.899e-38
1.93e-37
-1.274e-36
8.335e-36
-5.492e-35
3.567e-34
-2.324e-33
1.519e-32
-9.932e-32
6.486e-31
-4.222e-30
2.733e-29
-1.756e-28
1.117e-27
-7.015e-27
4.342e-26
-2.643e-25
1.578e-24
-9.22e-24
5.282e-23
-2.879e-22
1.768e-21
-7.447e-21
2.451e-19
4.464e-18
4.832e-17
4.597e-16
4.045e-15
3.292e-14
2.466e-13
1.693e-12
1.059e-11
6.013e-11
3.086e-10
1.427e-09
5.924e-09
2.204e-08
7.328e-08
2.175e-07
5.756e-07
1.357e-06
2.847e-06
5.325e-06
8.9e-06
1.334e-05
1.799e-05
2.203e-05
2.502e-05
2.61e-05
2.54e-05
2.36e-05
2.09e-05
1.773e-05
1.449e-05
1.148e-05
8.859e-06
6.692e-06
4.971e-06
3.648e-06
2.655e-06
1.925e-06
1.395e-06
1.013e-06
7.406e-07
5.458e-07
4.065e-07
3.065e-07
2.344e-07
1.819e-07
1.434e-07
1.148e-07
9.353e-08
7.745e-08
6.519e-08
5.576e-08
4.845e-08
4.275e-08
3.827e-08
3.474e-08
3.196e-08
2.977e-08
2.806e-08
2.674e-08
2.574e-08
2.502e-08
2.453e-08
2.423e-08
2.415e-08
2.423e-08
2.445e-08
2.481e-08
2.53e-08
2.593e-08
2.668e-08
2.755e-08
2.855e-08
2.968e-08
3.093e-08
3.231e-08
3.382e-08
3.546e-08
3.724e-08
3.916e-08
4.121e-08
4.341e-08
4.576e-08
4.825e-08
5.091e-08
5.359e-08
5.785e-08
2.055e-52
-2.009e-51
1.572e-50
-1.176e-49
8.385e-49
-5.692e-48
3.67e-47
-2.239e-46
1.285e-45
-6.841e-45
3.294e-44
-1.34e-43
3.599e-43
1.211e-42
-2.481e-41
2.459e-40
-2.05e-39
1.522e-38
-1.044e-37
6.709e-37
-4.038e-36
2.2e-35
-1.246e-34
4.644e-34
-7.224e-34
-7.875e-33
1.258e-31
-1.255e-30
1.063e-29
-8.244e-29
6.027e-28
-4.217e-27
2.845e-26
-1.86e-25
1.181e-24
-7.297e-24
4.391e-23
-2.555e-22
1.519e-21
-5.535e-21
1.644e-19
3.333e-18
3.964e-17
4.17e-16
4.069e-15
3.682e-14
3.073e-13
2.352e-12
1.642e-11
1.04e-10
5.942e-10
3.051e-09
1.402e-08
5.745e-08
2.094e-07
6.773e-07
1.941e-06
4.923e-06
1.104e-05
2.191e-05
3.863e-05
6.081e-05
8.585e-05
0.0001087
0.000126
0.0001343
0.0001312
0.0001223
0.0001085
9.192e-05
7.487e-05
5.894e-05
4.509e-05
3.367e-05
2.465e-05
1.778e-05
1.268e-05
8.988e-06
6.35e-06
4.49e-06
3.187e-06
2.279e-06
1.645e-06
1.201e-06
8.895e-07
6.684e-07
5.104e-07
3.964e-07
3.131e-07
2.517e-07
2.058e-07
1.713e-07
1.449e-07
1.246e-07
1.089e-07
9.662e-08
8.696e-08
7.934e-08
7.333e-08
6.86e-08
6.49e-08
6.206e-08
5.992e-08
5.838e-08
5.738e-08
5.671e-08
5.668e-08
5.689e-08
5.742e-08
5.827e-08
5.941e-08
6.084e-08
6.255e-08
6.454e-08
6.679e-08
6.931e-08
7.211e-08
7.518e-08
7.853e-08
8.216e-08
8.608e-08
9.029e-08
9.479e-08
9.958e-08
1.047e-07
1.101e-07
1.155e-07
1.242e-07
-8.067e-52
7.077e-51
-5.334e-50
4.141e-49
-3.256e-48
2.56e-47
-1.99e-46
1.518e-45
-1.133e-44
8.256e-44
-5.884e-43
4.108e-42
-2.817e-41
1.901e-40
-1.266e-39
8.337e-39
-5.437e-38
3.516e-37
-2.257e-36
1.439e-35
-9.125e-35
5.751e-34
-3.604e-33
2.245e-32
-1.389e-31
8.533e-31
-5.202e-30
3.146e-29
-1.886e-28
1.121e-27
-6.592e-27
3.836e-26
-2.207e-25
1.254e-24
-7.03e-24
3.887e-23
-2.107e-22
1.156e-21
-5.238e-21
6.247e-20
1.893e-18
2.555e-17
2.972e-16
3.204e-15
3.211e-14
2.976e-13
2.535e-12
1.972e-11
1.392e-10
8.859e-10
5.057e-09
2.574e-08
1.164e-07
4.651e-07
1.639e-06
5.076e-06
1.381e-05
3.3e-05
6.919e-05
0.000128
0.0002107
0.0003109
0.0004124
0.0004926
0.0005471
0.0005403
0.0005105
0.0004585
0.000393
0.0003233
0.0002566
0.0001974
0.0001478
0.0001082
7.776e-05
5.506e-05
3.858e-05
2.686e-05
1.865e-05
1.297e-05
9.065e-06
6.384e-06
4.543e-06
3.274e-06
2.393e-06
1.777e-06
1.342e-06
1.032e-06
8.072e-07
6.43e-07
5.215e-07
4.305e-07
3.615e-07
3.088e-07
2.68e-07
2.363e-07
2.113e-07
1.917e-07
1.762e-07
1.639e-07
1.543e-07
1.468e-07
1.41e-07
1.368e-07
1.338e-07
1.319e-07
1.307e-07
1.309e-07
1.316e-07
1.33e-07
1.35e-07
1.377e-07
1.41e-07
1.45e-07
1.495e-07
1.546e-07
1.602e-07
1.665e-07
1.733e-07
1.807e-07
1.887e-07
1.973e-07
2.065e-07
2.163e-07
2.267e-07
2.377e-07
2.488e-07
2.665e-07
-4.366e-51
4.233e-50
-3.35e-49
2.574e-48
-1.913e-47
1.375e-46
-9.596e-46
6.52e-45
-4.329e-44
2.821e-43
-1.811e-42
1.15e-41
-7.24e-41
4.538e-40
-2.836e-39
1.771e-38
-1.107e-37
6.925e-37
-4.344e-36
2.735e-35
-1.728e-34
1.097e-33
-7.003e-33
4.479e-32
-2.847e-31
1.799e-30
-1.129e-29
7.046e-29
-4.365e-28
2.685e-27
-1.638e-26
9.914e-26
-5.945e-25
3.531e-24
-2.074e-23
1.207e-22
-6.85e-22
4.182e-21
-1.759e-20
5.587e-19
1.247e-17
1.657e-16
1.967e-15
2.174e-14
2.228e-13
2.105e-12
1.82e-11
1.43e-10
1.014e-09
6.435e-09
3.634e-08
1.814e-07
7.963e-07
3.058e-06
1.024e-05
2.979e-05
7.541e-05
0.0001664
0.0003205
0.0005455
0.0008314
0.001145
0.001421
0.001633
0.001679
0.001622
0.001491
0.001309
0.001104
0.0008985
0.0007074
0.0005409
0.0004029
0.0002933
0.0002095
0.0001473
0.0001025
7.079e-05
4.877e-05
3.363e-05
2.331e-05
1.628e-05
1.149e-05
8.221e-06
5.968e-06
4.403e-06
3.305e-06
2.526e-06
1.966e-06
1.558e-06
1.258e-06
1.034e-06
8.649e-07
7.358e-07
6.362e-07
5.588e-07
4.981e-07
4.502e-07
4.124e-07
3.824e-07
3.587e-07
3.401e-07
3.257e-07
3.148e-07
3.069e-07
3.015e-07
2.982e-07
2.97e-07
2.978e-07
3e-07
3.037e-07
3.088e-07
3.152e-07
3.23e-07
3.32e-07
3.423e-07
3.537e-07
3.664e-07
3.803e-07
3.954e-07
4.118e-07
4.293e-07
4.481e-07
4.681e-07
4.893e-07
5.118e-07
5.343e-07
5.704e-07
8.859e-51
-8.571e-50
6.783e-49
-5.224e-48
3.895e-47
-2.815e-46
1.973e-45
-1.344e-44
8.915e-44
-5.78e-43
3.673e-42
-2.298e-41
1.42e-40
-8.709e-40
5.323e-39
-3.255e-38
2e-37
-1.238e-36
7.736e-36
-4.89e-35
3.127e-34
-2.021e-33
1.321e-32
-8.633e-32
5.585e-31
-3.583e-30
2.28e-29
-1.44e-28
9.022e-28
-5.611e-27
3.465e-26
-2.124e-25
1.292e-24
-7.805e-24
4.682e-23
-2.772e-22
1.711e-21
-6.371e-21
2.115e-19
5.09e-18
7.295e-17
9.44e-16
1.143e-14
1.289e-13
1.345e-12
1.289e-11
1.125e-10
8.874e-10
6.27e-09
3.935e-08
2.176e-07
1.052e-06
4.421e-06
1.604e-05
5.006e-05
0.000134
0.0003093
0.0006187
0.001083
0.001681
0.002364
0.00301
0.003516
0.003834
0.00378
0.003575
0.00324
0.002837
0.002409
0.00198
0.001576
0.001218
0.0009162
0.0006727
0.0004837
0.0003418
0.0002385
0.000165
0.0001137
7.836e-05
5.424e-05
3.783e-05
2.667e-05
1.904e-05
1.38e-05
1.017e-05
7.624e-06
5.82e-06
4.525e-06
3.583e-06
2.89e-06
2.373e-06
1.983e-06
1.686e-06
1.456e-06
1.278e-06
1.138e-06
1.027e-06
9.395e-07
8.699e-07
8.147e-07
7.712e-07
7.372e-07
7.112e-07
6.919e-07
6.782e-07
6.698e-07
6.646e-07
6.655e-07
6.689e-07
6.755e-07
6.851e-07
6.977e-07
7.13e-07
7.311e-07
7.517e-07
7.75e-07
8.007e-07
8.29e-07
8.599e-07
8.932e-07
9.29e-07
9.673e-07
1.008e-06
1.051e-06
1.097e-06
1.143e-06
1.216e-06
-2.191e-50
2.014e-49
-1.549e-48
1.19e-47
-9.065e-47
6.818e-46
-5.053e-45
3.683e-44
-2.637e-43
1.854e-42
-1.28e-41
8.686e-41
-5.799e-40
3.814e-39
-2.474e-38
1.586e-37
-1.006e-36
6.317e-36
-3.935e-35
2.434e-34
-1.496e-33
9.145e-33
-5.562e-32
3.363e-31
-2.02e-30
1.207e-29
-7.179e-29
4.251e-28
-2.507e-27
1.473e-26
-8.629e-26
5.04e-25
-2.936e-24
1.707e-23
-9.879e-23
5.892e-22
-2.585e-21
4.857e-20
1.595e-18
2.527e-17
3.556e-16
4.69e-15
5.788e-14
6.638e-13
7.021e-12
6.791e-11
5.952e-10
4.682e-09
3.274e-08
2.014e-07
1.079e-06
4.994e-06
1.979e-05
6.668e-05
0.0001904
0.0004605
0.0009528
0.001707
0.00273
0.003848
0.005032
0.005916
0.006554
0.006963
0.006689
0.006108
0.005499
0.004926
0.004285
0.00359
0.002917
0.002303
0.001769
0.001323
0.000967
0.000693
0.0004892
0.0003417
0.0002374
0.0001647
0.0001146
8.035e-05
5.689e-05
4.078e-05
2.967e-05
2.194e-05
1.65e-05
1.263e-05
9.852e-06
7.824e-06
6.327e-06
5.209e-06
4.363e-06
3.715e-06
3.215e-06
2.825e-06
2.518e-06
2.275e-06
2.083e-06
1.929e-06
1.807e-06
1.71e-06
1.634e-06
1.576e-06
1.532e-06
1.5e-06
1.48e-06
1.466e-06
1.466e-06
1.472e-06
1.484e-06
1.502e-06
1.527e-06
1.558e-06
1.594e-06
1.636e-06
1.683e-06
1.735e-06
1.793e-06
1.856e-06
1.924e-06
1.997e-06
2.075e-06
2.157e-06
2.245e-06
2.338e-06
2.431e-06
2.58e-06
-4.212e-50
4.124e-49
-3.316e-48
2.606e-47
-1.992e-46
1.48e-45
-1.07e-44
7.531e-44
-5.173e-43
3.474e-42
-2.287e-41
1.48e-40
-9.444e-40
5.96e-39
-3.73e-38
2.323e-37
-1.442e-36
8.953e-36
-5.565e-35
3.469e-34
-2.171e-33
1.364e-32
-8.619e-32
5.448e-31
-3.424e-30
2.139e-29
-1.33e-28
8.228e-28
-5.072e-27
3.118e-26
-1.912e-25
1.171e-24
-7.163e-24
4.384e-23
-2.668e-22
1.723e-21
-5.851e-21
2.542e-19
6.726e-18
1.06e-16
1.515e-15
2.033e-14
2.548e-13
2.96e-12
3.161e-11
3.072e-10
2.69e-09
2.099e-08
1.443e-07
8.631e-07
4.439e-06
1.942e-05
7.156e-05
0.0002206
0.0005677
0.001226
0.002249
0.003613
0.005473
0.006924
0.008846
0.0104
0.01017
0.01001
0.01007
0.01028
0.01026
0.008418
0.006808
0.005643
0.004697
0.0038
0.002988
0.002285
0.001705
0.001245
0.0008942
0.0006346
0.000447
0.0003141
0.0002212
0.0001566
0.000112
8.1e-05
5.943e-05
4.429e-05
3.357e-05
2.589e-05
2.033e-05
1.625e-05
1.322e-05
1.094e-05
9.212e-06
7.882e-06
6.85e-06
6.041e-06
5.403e-06
4.897e-06
4.493e-06
4.171e-06
3.913e-06
3.709e-06
3.548e-06
3.423e-06
3.329e-06
3.26e-06
3.217e-06
3.184e-06
3.184e-06
3.194e-06
3.217e-06
3.254e-06
3.304e-06
3.366e-06
3.439e-06
3.524e-06
3.62e-06
3.727e-06
3.845e-06
3.973e-06
4.111e-06
4.259e-06
4.418e-06
4.586e-06
4.763e-06
4.952e-06
5.139e-06
5.439e-06
8.888e-50
-8.142e-49
6.248e-48
-4.798e-47
3.654e-46
-2.751e-45
2.043e-44
-1.494e-43
1.074e-42
-7.592e-42
5.272e-41
-3.597e-40
2.413e-39
-1.592e-38
1.035e-37
-6.633e-37
4.195e-36
-2.621e-35
1.62e-34
-9.916e-34
6.016e-33
-3.622e-32
2.166e-31
-1.285e-30
7.583e-30
-4.461e-29
2.617e-28
-1.533e-27
8.973e-27
-5.253e-26
3.079e-25
-1.809e-24
1.066e-23
-6.292e-23
3.836e-22
-1.714e-21
4.23e-20
1.473e-18
2.531e-17
3.897e-16
5.648e-15
7.686e-14
9.751e-13
1.144e-11
1.228e-10
1.195e-09
1.042e-08
8.026e-08
5.393e-07
3.115e-06
1.525e-05
6.24e-05
0.0002113
0.0005884
0.001352
0.002609
0.004231
0.006248
0.009712
0.01017
0.01017
0.01138
0.01011
0.01
0.01003
0.01036
0.01674
0.0102
0.01022
0.009793
0.007211
0.005749
0.004574
0.00356
0.002707
0.002017
0.001477
0.001068
0.0007664
0.0005478
0.0003919
0.0002818
0.0002043
0.0001498
0.0001114
8.402e-05
6.442e-05
5.024e-05
3.985e-05
3.217e-05
2.641e-05
2.205e-05
1.871e-05
1.612e-05
1.41e-05
1.251e-05
1.125e-05
1.024e-05
9.44e-06
8.795e-06
8.279e-06
7.869e-06
7.545e-06
7.293e-06
7.103e-06
6.965e-06
6.878e-06
6.813e-06
6.814e-06
6.835e-06
6.883e-06
6.96e-06
7.062e-06
7.19e-06
7.342e-06
7.516e-06
7.713e-06
7.931e-06
8.171e-06
8.431e-06
8.712e-06
9.012e-06
9.333e-06
9.672e-06
1.003e-05
1.041e-05
1.078e-05
1.138e-05
2.114e-49
-1.992e-48
1.563e-47
-1.219e-46
9.372e-46
-7.089e-45
5.266e-44
-3.838e-43
2.744e-42
-1.924e-41
1.324e-40
-8.947e-40
5.945e-39
-3.888e-38
2.506e-37
-1.594e-36
1.002e-35
-6.234e-35
3.844e-34
-2.351e-33
1.429e-32
-8.637e-32
5.198e-31
-3.12e-30
1.866e-29
-1.113e-28
6.635e-28
-3.954e-27
2.359e-26
-1.411e-25
8.468e-25
-5.109e-24
3.104e-23
-1.895e-22
1.208e-21
-5.548e-21
1.345e-19
4.642e-18
8.048e-17
1.255e-15
1.843e-14
2.537e-13
3.248e-12
3.835e-11
4.132e-10
4.014e-09
3.471e-08
2.631e-07
1.722e-06
9.551e-06
4.417e-05
0.0001677
0.0005174
0.001291
0.002639
0.004663
0.006738
0.01013
0.01088
0.01009
0.01028
0.009976
0.00997
0.00997
0.00997
0.00997
0.009983
0.01013
0.01016
0.01091
0.01031
0.008302
0.006483
0.005128
0.003966
0.003007
0.002243
0.001654
0.00121
0.0008815
0.0006429
0.000471
0.0003477
0.0002595
0.0001961
0.0001503
0.000117
9.258e-05
7.445e-05
6.086e-05
5.057e-05
4.269e-05
3.66e-05
3.184e-05
2.81e-05
2.513e-05
2.276e-05
2.086e-05
1.934e-05
1.811e-05
1.713e-05
1.634e-05
1.573e-05
1.525e-05
1.489e-05
1.463e-05
1.447e-05
1.436e-05
1.437e-05
1.443e-05