/*--------------------------------*- C++ -*----------------------------------*\
  =========                 |
  \\      /  F ield         | OpenFOAM: The Open Source CFD Toolbox
   \\    /   O peration     | Website:  https://openfoam.org
    \\  /    A nd           | Version:  7
     \\/     M anipulation  |
\*---------------------------------------------------------------------------*/
FoamFile
{
    version     2.0;
    format      ascii;
    class       volScalarField;
    location    "1679.99947342491805";
    object      p;
}
// * * * * * * * * * * * * * * * * * * * * * * * * * * * * * * * * * * * * * //

dimensions      [0 2 -2 0 0 0 0];

internalField   nonuniform List<scalar> 
4096
(
0.0005883
0.0004174
0.0003331
0.0002909
0.0002676
0.0002537
0.0002447
0.0002386
0.0002343
0.000231
0.0002285
0.0002264
0.0002248
0.0002234
0.0002222
0.0002212
0.0002203
0.0002195
0.0002188
0.0002182
0.0002176
0.000217
0.0002165
0.0002159
0.0002154
0.0002149
0.0002145
0.000214
0.0002135
0.000213
0.0002125
0.000212
0.0002115
0.000211
0.0002104
0.0002098
0.0002092
0.0002085
0.0002078
0.000207
0.000206
0.000205
0.0002039
0.0002026
0.0002012
0.0001996
0.0001977
0.0001957
0.0001934
0.0001908
0.0001879
0.0001846
0.000181
0.0001771
0.0001728
0.0001681
0.000163
0.0001576
0.0001518
0.0001458
0.0001394
0.0001329
0.0001262
0.0001194
0.0001126
0.0001058
9.908e-05
9.253e-05
8.618e-05
8.008e-05
7.424e-05
6.872e-05
6.351e-05
5.865e-05
5.412e-05
4.994e-05
4.609e-05
4.257e-05
3.937e-05
3.647e-05
3.385e-05
3.15e-05
2.939e-05
2.75e-05
2.581e-05
2.43e-05
2.295e-05
2.174e-05
2.066e-05
1.968e-05
1.88e-05
1.8e-05
1.726e-05
1.658e-05
1.595e-05
1.535e-05
1.479e-05
1.426e-05
1.374e-05
1.324e-05
1.276e-05
1.228e-05
1.181e-05
1.135e-05
1.089e-05
1.043e-05
9.968e-06
9.509e-06
9.049e-06
8.588e-06
8.124e-06
7.659e-06
7.191e-06
6.72e-06
6.247e-06
5.771e-06
5.291e-06
4.808e-06
4.322e-06
3.834e-06
3.342e-06
2.848e-06
2.354e-06
1.86e-06
1.37e-06
8.899e-07
4.343e-07
8.05e-08
0.0004438
0.00038
0.0003302
0.0002982
0.0002772
0.000263
0.0002529
0.0002456
0.0002401
0.0002359
0.0002326
0.0002299
0.0002277
0.0002259
0.0002243
0.000223
0.0002219
0.0002208
0.0002199
0.0002191
0.0002183
0.0002176
0.0002169
0.0002162
0.0002156
0.000215
0.0002144
0.0002138
0.0002132
0.0002127
0.0002121
0.0002115
0.0002108
0.0002102
0.0002095
0.0002088
0.000208
0.0002072
0.0002064
0.0002054
0.0002044
0.0002032
0.0002019
0.0002005
0.000199
0.0001972
0.0001953
0.0001932
0.0001908
0.0001881
0.0001852
0.0001819
0.0001784
0.0001745
0.0001702
0.0001657
0.0001608
0.0001555
0.00015
0.0001442
0.0001382
0.0001319
0.0001256
0.0001191
0.0001126
0.0001062
9.981e-05
9.357e-05
8.751e-05
8.167e-05
7.607e-05
7.075e-05
6.572e-05
6.099e-05
5.657e-05
5.247e-05
4.867e-05
4.517e-05
4.196e-05
3.904e-05
3.637e-05
3.395e-05
3.176e-05
2.979e-05
2.8e-05
2.639e-05
2.493e-05
2.361e-05
2.241e-05
2.133e-05
2.033e-05
1.942e-05
1.858e-05
1.78e-05
1.707e-05
1.639e-05
1.574e-05
1.513e-05
1.453e-05
1.397e-05
1.341e-05
1.288e-05
1.235e-05
1.183e-05
1.133e-05
1.082e-05
1.032e-05
9.828e-06
9.335e-06
8.844e-06
8.354e-06
7.864e-06
7.374e-06
6.884e-06
6.393e-06
5.901e-06
5.408e-06
4.914e-06
4.418e-06
3.922e-06
3.424e-06
2.926e-06
2.428e-06
1.932e-06
1.44e-06
9.575e-07
4.904e-07
1.038e-07
0.0003603
0.0003387
0.0003132
0.0002924
0.0002769
0.0002652
0.0002562
0.0002492
0.0002436
0.0002391
0.0002355
0.0002325
0.00023
0.0002279
0.0002261
0.0002245
0.0002232
0.000222
0.0002209
0.0002199
0.0002189
0.0002181
0.0002173
0.0002165
0.0002158
0.0002151
0.0002144
0.0002137
0.000213
0.0002123
0.0002116
0.0002109
0.0002102
0.0002094
0.0002086
0.0002078
0.0002069
0.000206
0.000205
0.0002039
0.0002028
0.0002015
0.0002001
0.0001986
0.0001969
0.0001951
0.0001931
0.0001909
0.0001884
0.0001857
0.0001828
0.0001795
0.000176
0.0001722
0.000168
0.0001636
0.0001588
0.0001538
0.0001484
0.0001429
0.0001371
0.0001311
0.000125
0.0001189
0.0001127
0.0001065
0.0001004
9.445e-05
8.865e-05
8.304e-05
7.766e-05
7.253e-05
6.766e-05
6.306e-05
5.875e-05
5.472e-05
5.098e-05
4.751e-05
4.431e-05
4.137e-05
3.867e-05
3.621e-05
3.396e-05
3.191e-05
3.004e-05
2.834e-05
2.679e-05
2.538e-05
2.408e-05
2.289e-05
2.18e-05
2.079e-05
1.986e-05
1.899e-05
1.817e-05
1.74e-05
1.667e-05
1.598e-05
1.532e-05
1.468e-05
1.406e-05
1.347e-05
1.289e-05
1.232e-05
1.177e-05
1.122e-05
1.068e-05
1.015e-05
9.626e-06
9.105e-06
8.588e-06
8.074e-06
7.562e-06
7.052e-06
6.544e-06
6.036e-06
5.53e-06
5.024e-06
4.518e-06
4.012e-06
3.507e-06
3.002e-06
2.498e-06
1.997e-06
1.498e-06
1.005e-06
5.199e-07
1.074e-07
0.0003156
0.0003085
0.0002952
0.000282
0.0002711
0.0002623
0.0002552
0.0002493
0.0002444
0.0002403
0.0002368
0.0002339
0.0002314
0.0002292
0.0002273
0.0002256
0.0002241
0.0002228
0.0002216
0.0002205
0.0002194
0.0002185
0.0002176
0.0002167
0.0002159
0.0002151
0.0002143
0.0002135
0.0002127
0.000212
0.0002112
0.0002104
0.0002095
0.0002087
0.0002078
0.0002069
0.0002059
0.0002049
0.0002038
0.0002026
0.0002014
0.0002
0.0001986
0.000197
0.0001952
0.0001933
0.0001912
0.000189
0.0001865
0.0001838
0.0001808
0.0001776
0.0001741
0.0001703
0.0001663
0.0001619
0.0001573
0.0001524
0.0001472
0.0001418
0.0001362
0.0001304
0.0001246
0.0001186
0.0001127
0.0001067
0.0001009
9.51e-05
8.95e-05
8.409e-05
7.888e-05
7.391e-05
6.917e-05
6.47e-05
6.048e-05
5.653e-05
5.284e-05
4.94e-05
4.622e-05
4.328e-05
4.057e-05
3.808e-05
3.579e-05
3.37e-05
3.177e-05
3.001e-05
2.838e-05
2.69e-05
2.552e-05
2.426e-05
2.309e-05
2.2e-05
2.099e-05
2.004e-05
1.915e-05
1.83e-05
1.751e-05
1.675e-05
1.602e-05
1.533e-05
1.466e-05
1.401e-05
1.338e-05
1.277e-05
1.217e-05
1.159e-05
1.102e-05
1.045e-05
9.897e-06
9.349e-06
8.807e-06
8.271e-06
7.739e-06
7.211e-06
6.687e-06
6.165e-06
5.645e-06
5.127e-06
4.611e-06
4.096e-06
3.583e-06
3.07e-06
2.559e-06
2.049e-06
1.541e-06
1.036e-06
5.333e-07
1.044e-07
0.0002887
0.0002877
0.0002807
0.0002721
0.0002643
0.0002578
0.0002523
0.0002476
0.0002435
0.00024
0.0002369
0.0002342
0.0002318
0.0002297
0.0002278
0.0002262
0.0002247
0.0002233
0.000222
0.0002208
0.0002198
0.0002187
0.0002178
0.0002168
0.0002159
0.000215
0.0002142
0.0002133
0.0002125
0.0002116
0.0002108
0.0002099
0.000209
0.0002081
0.0002071
0.0002061
0.0002051
0.000204
0.0002028
0.0002016
0.0002002
0.0001988
0.0001973
0.0001956
0.0001938
0.0001918
0.0001897
0.0001874
0.0001849
0.0001822
0.0001792
0.000176
0.0001726
0.0001689
0.0001649
0.0001606
0.0001561
0.0001513
0.0001462
0.000141
0.0001355
0.0001299
0.0001242
0.0001184
0.0001126
0.0001069
0.0001012
9.557e-05
9.013e-05
8.486e-05
7.98e-05
7.495e-05
7.033e-05
6.596e-05
6.182e-05
5.794e-05
5.43e-05
5.091e-05
4.775e-05
4.482e-05
4.211e-05
3.96e-05
3.729e-05
3.516e-05
3.32e-05
3.139e-05
2.972e-05
2.818e-05
2.675e-05
2.542e-05
2.419e-05
2.304e-05
2.196e-05
2.095e-05
1.999e-05
1.909e-05
1.824e-05
1.742e-05
1.665e-05
1.59e-05
1.518e-05
1.449e-05
1.382e-05
1.317e-05
1.254e-05
1.192e-05
1.131e-05
1.072e-05
1.014e-05
9.57e-06
9.006e-06
8.45e-06
7.9e-06
7.356e-06
6.817e-06
6.281e-06
5.75e-06
5.222e-06
4.696e-06
4.172e-06
3.651e-06
3.13e-06
2.611e-06
2.093e-06
1.575e-06
1.058e-06
5.415e-07
1.009e-07
0.0002713
0.0002728
0.0002695
0.0002638
0.0002581
0.0002531
0.0002487
0.000245
0.0002417
0.0002387
0.0002361
0.0002338
0.0002316
0.0002297
0.0002279
0.0002263
0.0002248
0.0002235
0.0002222
0.000221
0.0002199
0.0002188
0.0002178
0.0002169
0.0002159
0.000215
0.0002141
0.0002132
0.0002123
0.0002114
0.0002104
0.0002095
0.0002085
0.0002076
0.0002065
0.0002055
0.0002044
0.0002032
0.000202
0.0002007
0.0001993
0.0001978
0.0001962
0.0001945
0.0001927
0.0001907
0.0001885
0.0001862
0.0001837
0.000181
0.000178
0.0001749
0.0001715
0.0001678
0.0001639
0.0001597
0.0001552
0.0001505
0.0001456
0.0001404
0.000135
0.0001295
0.0001239
0.0001183
0.0001126
0.0001069
0.0001013
9.587e-05
9.055e-05
8.541e-05
8.045e-05
7.571e-05
7.118e-05
6.689e-05
6.283e-05
5.9e-05
5.541e-05
5.205e-05
4.892e-05
4.601e-05
4.331e-05
4.08e-05
3.848e-05
3.633e-05
3.435e-05
3.251e-05
3.08e-05
2.922e-05
2.775e-05
2.638e-05
2.51e-05
2.39e-05
2.277e-05
2.171e-05
2.071e-05
1.976e-05
1.886e-05
1.8e-05
1.718e-05
1.639e-05
1.563e-05
1.49e-05
1.42e-05
1.352e-05
1.285e-05
1.221e-05
1.157e-05
1.096e-05
1.035e-05
9.762e-06
9.179e-06
8.606e-06
8.041e-06
7.482e-06
6.93e-06
6.384e-06
5.842e-06
5.304e-06
4.77e-06
4.238e-06
3.709e-06
3.181e-06
2.655e-06
2.129e-06
1.603e-06
1.077e-06
5.48e-07
9.839e-08
0.0002594
0.0002619
0.0002606
0.0002569
0.0002527
0.0002488
0.0002453
0.0002422
0.0002395
0.000237
0.0002348
0.0002328
0.0002309
0.0002292
0.0002276
0.0002261
0.0002247
0.0002234
0.0002222
0.000221
0.0002199
0.0002188
0.0002178
0.0002168
0.0002158
0.0002149
0.0002139
0.000213
0.0002121
0.0002111
0.0002101
0.0002092
0.0002082
0.0002071
0.0002061
0.0002049
0.0002038
0.0002026
0.0002013
0.0002
0.0001985
0.000197
0.0001954
0.0001936
0.0001918
0.0001898
0.0001876
0.0001853
0.0001828
0.0001801
0.0001772
0.000174
0.0001706
0.000167
0.0001631
0.000159
0.0001546
0.00015
0.0001451
0.00014
0.0001347
0.0001292
0.0001237
0.0001181
0.0001125
0.0001069
0.0001014
9.603e-05
9.08e-05
8.574e-05
8.087e-05
7.621e-05
7.175e-05
6.752e-05
6.352e-05
5.975e-05
5.62e-05
5.288e-05
4.977e-05
4.688e-05
4.419e-05
4.169e-05
3.937e-05
3.722e-05
3.522e-05
3.337e-05
3.164e-05
3.004e-05
2.854e-05
2.713e-05
2.582e-05
2.459e-05
2.342e-05
2.233e-05
2.129e-05
2.03e-05
1.936e-05
1.847e-05
1.761e-05
1.679e-05
1.6e-05
1.524e-05
1.451e-05
1.38e-05
1.311e-05
1.244e-05
1.179e-05
1.115e-05
1.053e-05
9.921e-06
9.323e-06
8.735e-06
8.157e-06
7.587e-06
7.024e-06
6.468e-06
5.918e-06
5.372e-06
4.831e-06
4.292e-06
3.757e-06
3.223e-06
2.69e-06
2.158e-06
1.626e-06
1.092e-06
5.543e-07
9.733e-08
0.0002508
0.0002535
0.0002534
0.0002512
0.0002481
0.000245
0.0002421
0.0002396
0.0002373
0.0002352
0.0002333
0.0002316
0.00023
0.0002285
0.000227
0.0002257
0.0002244
0.0002231
0.000222
0.0002209
0.0002198
0.0002187
0.0002177
0.0002167
0.0002157
0.0002148
0.0002138
0.0002128
0.0002119
0.0002109
0.0002099
0.0002089
0.0002079
0.0002068
0.0002057
0.0002045
0.0002034
0.0002021
0.0002008
0.0001994
0.000198
0.0001964
0.0001948
0.000193
0.0001912
0.0001892
0.000187
0.0001847
0.0001822
0.0001795
0.0001766
0.0001735
0.0001701
0.0001665
0.0001627
0.0001586
0.0001542
0.0001496
0.0001448
0.0001397
0.0001344
0.000129
0.0001235
0.0001179
0.0001124
0.0001068
0.0001014
9.606e-05
9.089e-05
8.589e-05
8.108e-05
7.647e-05
7.207e-05
6.789e-05
6.393e-05
6.02e-05
5.668e-05
5.339e-05
5.032e-05
4.745e-05
4.477e-05
4.229e-05
3.998e-05
3.783e-05
3.584e-05
3.398e-05
3.225e-05
3.063e-05
2.911e-05
2.769e-05
2.636e-05
2.51e-05
2.391e-05
2.279e-05
2.173e-05
2.072e-05
1.975e-05
1.883e-05
1.795e-05
1.71e-05
1.629e-05
1.551e-05
1.475e-05
1.402e-05
1.331e-05
1.262e-05
1.195e-05
1.13e-05
1.067e-05
1.004e-05
9.433e-06
8.835e-06
8.247e-06
7.668e-06
7.097e-06
6.533e-06
5.976e-06
5.425e-06
4.877e-06
4.334e-06
3.794e-06
3.256e-06
2.719e-06
2.182e-06
1.645e-06
1.105e-06
5.61e-07
9.798e-08
0.0002443
0.000247
0.0002476
0.0002463
0.0002441
0.0002417
0.0002393
0.0002372
0.0002352
0.0002334
0.0002318
0.0002303
0.0002289
0.0002276
0.0002263
0.0002251
0.0002239
0.0002227
0.0002216
0.0002206
0.0002195
0.0002185
0.0002175
0.0002165
0.0002156
0.0002146
0.0002136
0.0002127
0.0002117
0.0002107
0.0002097
0.0002087
0.0002076
0.0002066
0.0002054
0.0002043
0.0002031
0.0002018
0.0002005
0.0001991
0.0001976
0.0001961
0.0001944
0.0001927
0.0001908
0.0001888
0.0001867
0.0001843
0.0001819
0.0001792
0.0001763
0.0001732
0.0001699
0.0001663
0.0001625
0.0001584
0.0001541
0.0001495
0.0001447
0.0001396
0.0001343
0.0001289
0.0001234
0.0001178
0.0001122
0.0001067
0.0001013
9.596e-05
9.082e-05
8.586e-05
8.109e-05
7.652e-05
7.215e-05
6.8e-05
6.408e-05
6.037e-05
5.688e-05
5.362e-05
5.057e-05
4.772e-05
4.507e-05
4.261e-05
4.032e-05
3.819e-05
3.62e-05
3.435e-05
3.262e-05
3.1e-05
2.948e-05
2.806e-05
2.671e-05
2.544e-05
2.424e-05
2.311e-05
2.203e-05
2.1e-05
2.002e-05
1.908e-05
1.818e-05
1.732e-05
1.649e-05
1.569e-05
1.492e-05
1.417e-05
1.345e-05
1.275e-05
1.207e-05
1.141e-05
1.076e-05
1.013e-05
9.509e-06
8.903e-06
8.307e-06
7.722e-06
7.146e-06
6.577e-06
6.016e-06
5.46e-06
4.91e-06
4.363e-06
3.82e-06
3.279e-06
2.74e-06
2.2e-06
1.66e-06
1.117e-06
5.684e-07
1.005e-07
0.0002392
0.0002418
0.0002427
0.0002422
0.0002407
0.0002388
0.0002369
0.000235
0.0002333
0.0002318
0.0002304
0.000229
0.0002278
0.0002266
0.0002255
0.0002244
0.0002233
0.0002223
0.0002212
0.0002202
0.0002192
0.0002183
0.0002173
0.0002164
0.0002154
0.0002145
0.0002135
0.0002125
0.0002116
0.0002106
0.0002096
0.0002086
0.0002075
0.0002064
0.0002053
0.0002041
0.0002029
0.0002016
0.0002003
0.0001989
0.0001975
0.0001959
0.0001943
0.0001925
0.0001907
0.0001887
0.0001866
0.0001843
0.0001818
0.0001792
0.0001763
0.0001733
0.0001699
0.0001664
0.0001626
0.0001585
0.0001542
0.0001496
0.0001447
0.0001396
0.0001343
0.0001289
0.0001233
0.0001177
0.000112
0.0001065
0.000101
9.574e-05
9.061e-05
8.566e-05
8.09e-05
7.635e-05
7.2e-05
6.786e-05
6.395e-05
6.026e-05
5.68e-05
5.355e-05
5.053e-05
4.771e-05
4.509e-05
4.265e-05
4.039e-05
3.828e-05
3.631e-05
3.448e-05
3.277e-05
3.116e-05
2.965e-05
2.823e-05
2.689e-05
2.562e-05
2.442e-05
2.327e-05
2.219e-05
2.115e-05
2.016e-05
1.921e-05
1.831e-05
1.743e-05
1.66e-05
1.579e-05
1.501e-05
1.425e-05
1.353e-05
1.282e-05
1.213e-05
1.146e-05
1.081e-05
1.017e-05
9.547e-06
8.937e-06
8.338e-06
7.749e-06
7.17e-06
6.599e-06
6.036e-06
5.478e-06
4.926e-06
4.379e-06
3.835e-06
3.293e-06
2.753e-06
2.213e-06
1.671e-06
1.127e-06
5.768e-07
1.051e-07
0.0002352
0.0002375
0.0002387
0.0002386
0.0002376
0.0002362
0.0002347
0.0002331
0.0002316
0.0002303
0.000229
0.0002278
0.0002267
0.0002257
0.0002246
0.0002237
0.0002227
0.0002217
0.0002208
0.0002198
0.0002189
0.000218
0.0002171
0.0002162
0.0002152
0.0002143
0.0002134
0.0002124
0.0002115
0.0002105
0.0002095
0.0002085
0.0002075
0.0002064
0.0002053
0.0002041
0.0002029
0.0002016
0.0002003
0.0001989
0.0001975
0.000196
0.0001943
0.0001926
0.0001908
0.0001888
0.0001867
0.0001845
0.000182
0.0001794
0.0001766
0.0001736
0.0001703
0.0001667
0.0001629
0.0001588
0.0001545
0.0001499
0.000145
0.0001398
0.0001344
0.0001289
0.0001232
0.0001175
0.0001118
0.0001062
0.0001007
9.54e-05
9.025e-05
8.529e-05
8.052e-05
7.596e-05
7.16e-05
6.747e-05
6.356e-05
5.987e-05
5.642e-05
5.32e-05
5.02e-05
4.741e-05
4.482e-05
4.242e-05
4.019e-05
3.812e-05
3.619e-05
3.438e-05
3.269e-05
3.111e-05
2.962e-05
2.821e-05
2.688e-05
2.563e-05
2.443e-05
2.329e-05
2.221e-05
2.117e-05
2.019e-05
1.924e-05
1.833e-05
1.746e-05
1.662e-05
1.581e-05
1.502e-05
1.427e-05
1.354e-05
1.283e-05
1.214e-05
1.147e-05
1.081e-05
1.017e-05
9.548e-06
8.937e-06
8.338e-06
7.749e-06
7.17e-06
6.599e-06
6.036e-06
5.479e-06
4.928e-06
4.381e-06
3.838e-06
3.297e-06
2.758e-06
2.219e-06
1.679e-06
1.136e-06
5.863e-07
1.117e-07
0.0002319
0.000234
0.0002353
0.0002355
0.0002349
0.0002339
0.0002327
0.0002314
0.0002301
0.0002289
0.0002278
0.0002267
0.0002257
0.0002248
0.0002239
0.000223
0.0002221
0.0002212
0.0002203
0.0002194
0.0002186
0.0002177
0.0002168
0.000216
0.0002151
0.0002142
0.0002133
0.0002124
0.0002114
0.0002105
0.0002095
0.0002085
0.0002075
0.0002064
0.0002053
0.0002042
0.000203
0.0002018
0.0002005
0.0001991
0.0001977
0.0001962
0.0001946
0.0001929
0.0001911
0.0001892
0.0001872
0.0001849
0.0001826
0.00018
0.0001772
0.0001742
0.0001709
0.0001674
0.0001635
0.0001594
0.0001551
0.0001504
0.0001454
0.0001402
0.0001347
0.000129
0.0001232
0.0001174
0.0001116
0.0001059
0.0001003
9.492e-05
8.973e-05
8.473e-05
7.993e-05
7.533e-05
7.095e-05
6.68e-05
6.287e-05
5.919e-05
5.575e-05
5.254e-05
4.957e-05
4.682e-05
4.427e-05
4.192e-05
3.973e-05
3.771e-05
3.582e-05
3.406e-05
3.241e-05
3.086e-05
2.94e-05
2.802e-05
2.671e-05
2.547e-05
2.429e-05
2.317e-05
2.21e-05
2.107e-05
2.009e-05
1.915e-05
1.825e-05
1.738e-05
1.655e-05
1.574e-05
1.496e-05
1.421e-05
1.348e-05
1.278e-05
1.209e-05
1.142e-05
1.077e-05
1.013e-05
9.512e-06
8.903e-06
8.307e-06
7.72e-06
7.144e-06
6.576e-06
6.015e-06
5.461e-06
4.913e-06
4.37e-06
3.83e-06
3.292e-06
2.756e-06
2.221e-06
1.684e-06
1.143e-06
5.97e-07
1.205e-07
0.0002291
0.0002311
0.0002324
0.0002328
0.0002326
0.0002319
0.0002309
0.0002299
0.0002288
0.0002277
0.0002267
0.0002258
0.0002248
0.000224
0.0002231
0.0002223
0.0002215
0.0002207
0.0002199
0.0002191
0.0002183
0.0002174
0.0002166
0.0002158
0.000215
0.0002141
0.0002132
0.0002124
0.0002115
0.0002105
0.0002096
0.0002086
0.0002076
0.0002066
0.0002055
0.0002044
0.0002033
0.0002021
0.0002008
0.0001995
0.0001981
0.0001966
0.0001951
0.0001935
0.0001917
0.0001899
0.0001879
0.0001857
0.0001834
0.0001808
0.0001781
0.0001751
0.0001718
0.0001683
0.0001645
0.0001603
0.0001559
0.0001511
0.0001461
0.0001407
0.0001351
0.0001292
0.0001233
0.0001172
0.0001113
0.0001054
9.977e-05
9.43e-05
8.903e-05
8.396e-05
7.91e-05
7.445e-05
7.002e-05
6.582e-05
6.188e-05
5.819e-05
5.475e-05
5.157e-05
4.863e-05
4.593e-05
4.343e-05
4.114e-05
3.901e-05
3.704e-05
3.521e-05
3.351e-05
3.191e-05
3.04e-05
2.898e-05
2.764e-05
2.637e-05
2.516e-05
2.401e-05
2.291e-05
2.186e-05
2.085e-05
1.989e-05
1.896e-05
1.808e-05
1.722e-05
1.64e-05
1.56e-05
1.483e-05
1.409e-05
1.337e-05
1.267e-05
1.199e-05
1.133e-05
1.068e-05
1.006e-05
9.44e-06
8.837e-06
8.246e-06
7.665e-06
7.094e-06
6.531e-06
5.976e-06
5.427e-06
4.884e-06
4.345e-06
3.81e-06
3.278e-06
2.747e-06
2.217e-06
1.685e-06
1.15e-06
6.089e-07
1.313e-07
0.0002268
0.0002286
0.0002299
0.0002305
0.0002305
0.0002301
0.0002293
0.0002285
0.0002276
0.0002266
0.0002257
0.0002249
0.000224
0.0002232
0.0002225
0.0002217
0.0002209
0.0002202
0.0002195
0.0002187
0.000218
0.0002172
0.0002164
0.0002156
0.0002149
0.000214
0.0002132
0.0002124
0.0002115
0.0002106
0.0002097
0.0002088
0.0002078
0.0002068
0.0002058
0.0002047
0.0002036
0.0002025
0.0002013
0.0002
0.0001987
0.0001973
0.0001958
0.0001942
0.0001925
0.0001908
0.0001888
0.0001867
0.0001845
0.000182
0.0001793
0.0001764
0.0001732
0.0001696
0.0001658
0.0001616
0.0001571
0.0001522
0.000147
0.0001415
0.0001356
0.0001296
0.0001234
0.0001171
0.0001109
0.0001049
9.91e-05
9.351e-05
8.813e-05
8.295e-05
7.799e-05
7.326e-05
6.875e-05
6.451e-05
6.053e-05
5.683e-05
5.34e-05
5.025e-05
4.736e-05
4.472e-05
4.229e-05
4.007e-05
3.802e-05
3.613e-05
3.437e-05
3.273e-05
3.12e-05
2.975e-05
2.839e-05
2.709e-05
2.586e-05
2.469e-05
2.358e-05
2.251e-05
2.149e-05
2.051e-05
1.957e-05
1.867e-05
1.781e-05
1.697e-05
1.616e-05
1.538e-05
1.463e-05
1.39e-05
1.32e-05
1.251e-05
1.184e-05
1.119e-05
1.056e-05
9.938e-06
9.332e-06
8.739e-06
8.156e-06
7.584e-06
7.02e-06
6.465e-06
5.917e-06
5.376e-06
4.839e-06
4.308e-06
3.78e-06
3.255e-06
2.731e-06
2.207e-06
1.683e-06
1.155e-06
6.219e-07
1.442e-07
0.0002248
0.0002265
0.0002278
0.0002285
0.0002287
0.0002284
0.0002279
0.0002272
0.0002265
0.0002257
0.0002249
0.0002241
0.0002233
0.0002226
0.0002219
0.0002212
0.0002205
0.0002198
0.0002191
0.0002184
0.0002177
0.000217
0.0002163
0.0002155
0.0002148
0.000214
0.0002132
0.0002125
0.0002116
0.0002108
0.0002099
0.0002091
0.0002081
0.0002072
0.0002062
0.0002052
0.0002041
0.000203
0.0002019
0.0002007
0.0001994
0.0001981
0.0001967
0.0001952
0.0001936
0.0001919
0.0001901
0.0001881
0.0001859
0.0001835
0.0001809
0.0001781
0.0001749
0.0001714
0.0001675
0.0001633
0.0001587
0.0001537
0.0001483
0.0001425
0.0001365
0.0001301
0.0001236
0.000117
0.0001105
0.0001043
9.826e-05
9.249e-05
8.696e-05
8.164e-05
7.654e-05
7.169e-05
6.71e-05
6.279e-05
5.878e-05
5.507e-05
5.166e-05
4.856e-05
4.574e-05
4.317e-05
4.084e-05
3.872e-05
3.677e-05
3.497e-05
3.33e-05
3.175e-05
3.029e-05
2.892e-05
2.762e-05
2.638e-05
2.521e-05
2.409e-05
2.302e-05
2.199e-05
2.101e-05
2.007e-05
1.916e-05
1.829e-05
1.745e-05
1.664e-05
1.585e-05
1.51e-05
1.437e-05
1.366e-05
1.297e-05
1.23e-05
1.165e-05
1.101e-05
1.039e-05
9.786e-06
9.192e-06
8.611e-06
8.039e-06
7.478e-06
6.925e-06
6.38e-06
5.841e-06
5.309e-06
4.782e-06
4.259e-06
3.74e-06
3.223e-06
2.708e-06
2.193e-06
1.678e-06
1.159e-06
6.361e-07
1.59e-07
0.0002232
0.0002248
0.000226
0.0002268
0.000227
0.000227
0.0002266
0.0002261
0.0002255
0.0002248
0.0002241
0.0002234
0.0002227
0.000222
0.0002214
0.0002207
0.0002201
0.0002194
0.0002188
0.0002181
0.0002175
0.0002168
0.0002162
0.0002155
0.0002148
0.0002141
0.0002133
0.0002126
0.0002118
0.000211
0.0002102
0.0002094
0.0002085
0.0002076
0.0002067
0.0002057
0.0002047
0.0002037
0.0002026
0.0002015
0.0002003
0.0001991
0.0001978
0.0001964
0.0001949
0.0001933
0.0001916
0.0001897
0.0001877
0.0001854
0.0001829
0.0001802
0.0001771
0.0001736
0.0001698
0.0001655
0.0001608
0.0001556
0.00015
0.000144
0.0001376
0.0001309
0.000124
0.0001169
0.0001101
0.0001035
9.718e-05
9.118e-05
8.542e-05
7.991e-05
7.465e-05
6.966e-05
6.497e-05
6.06e-05
5.656e-05
5.286e-05
4.95e-05
4.647e-05
4.374e-05
4.129e-05
3.907e-05
3.707e-05
3.524e-05
3.356e-05
3.2e-05
3.055e-05
2.919e-05
2.79e-05
2.668e-05
2.552e-05
2.441e-05
2.335e-05
2.233e-05
2.136e-05
2.042e-05
1.952e-05
1.865e-05
1.781e-05
1.701e-05
1.623e-05
1.548e-05
1.475e-05
1.404e-05
1.336e-05
1.269e-05
1.204e-05
1.141e-05
1.079e-05
1.019e-05
9.601e-06
9.023e-06
8.456e-06
7.898e-06
7.35e-06
6.81e-06
6.276e-06
5.749e-06
5.228e-06
4.712e-06
4.199e-06
3.69e-06
3.184e-06
2.679e-06
2.175e-06
1.67e-06
1.163e-06
6.512e-07
1.755e-07
0.0002217
0.0002232
0.0002245
0.0002252
0.0002256
0.0002257
0.0002255
0.0002251
0.0002246
0.000224
0.0002234
0.0002228
0.0002222
0.0002215
0.0002209
0.0002203
0.0002197
0.0002191
0.0002185
0.0002179
0.0002173
0.0002167
0.0002161
0.0002154
0.0002148
0.0002141
0.0002135
0.0002128
0.000212
0.0002113
0.0002105
0.0002098
0.000209
0.0002081
0.0002073
0.0002064
0.0002055
0.0002045
0.0002035
0.0002025
0.0002014
0.0002002
0.000199
0.0001977
0.0001964
0.0001949
0.0001934
0.0001917
0.0001898
0.0001877
0.0001854
0.0001828
0.0001798
0.0001764
0.0001726
0.0001684
0.0001636
0.0001583
0.0001525
0.0001461
0.0001393
0.000132
0.0001245
0.0001169
0.0001095
0.0001024
9.574e-05
8.941e-05
8.337e-05
7.761e-05
7.215e-05
6.703e-05
6.225e-05
5.783e-05
5.38e-05
5.014e-05
4.686e-05
4.394e-05
4.135e-05
3.904e-05
3.699e-05
3.514e-05
3.346e-05
3.192e-05
3.049e-05
2.916e-05
2.791e-05
2.672e-05
2.559e-05
2.451e-05
2.348e-05
2.248e-05
2.153e-05
2.061e-05
1.973e-05
1.888e-05
1.806e-05
1.726e-05
1.65e-05
1.575e-05
1.504e-05
1.434e-05
1.366e-05
1.301e-05
1.237e-05
1.174e-05
1.113e-05
1.054e-05
9.958e-06
9.387e-06
8.827e-06
8.277e-06
7.736e-06
7.203e-06
6.677e-06
6.157e-06
5.643e-06
5.135e-06
4.631e-06
4.13e-06
3.633e-06
3.138e-06
2.645e-06
2.153e-06
1.66e-06
1.165e-06
6.672e-07
1.935e-07
0.0002205
0.0002219
0.0002231
0.0002239
0.0002244
0.0002245
0.0002244
0.0002242
0.0002238
0.0002233
0.0002228
0.0002222
0.0002217
0.0002211
0.0002206
0.00022
0.0002194
0.0002189
0.0002183
0.0002178
0.0002172
0.0002166
0.0002161
0.0002155
0.0002149
0.0002143
0.0002136
0.000213
0.0002123
0.0002116
0.0002109
0.0002102
0.0002095
0.0002087
0.0002079
0.0002071
0.0002063
0.0002054
0.0002045
0.0002035
0.0002026
0.0002015
0.0002004
0.0001993
0.0001981
0.0001968
0.0001954
0.0001939
0.0001922
0.0001904
0.0001883
0.0001859
0.0001831
0.0001799
0.0001763
0.0001721
0.0001673
0.0001619
0.0001558
0.0001491
0.0001417
0.0001338
0.0001255
0.000117
0.0001087
0.0001009
9.369e-05
8.692e-05
8.052e-05
7.449e-05
6.886e-05
6.363e-05
5.881e-05
5.441e-05
5.042e-05
4.686e-05
4.372e-05
4.096e-05
3.855e-05
3.644e-05
3.458e-05
3.292e-05
3.143e-05
3.006e-05
2.878e-05
2.759e-05
2.646e-05
2.539e-05
2.436e-05
2.338e-05
2.243e-05
2.151e-05
2.063e-05
1.978e-05
1.895e-05
1.816e-05
1.739e-05
1.664e-05
1.592e-05
1.522e-05
1.454e-05
1.388e-05
1.324e-05
1.261e-05
1.2e-05
1.141e-05
1.083e-05
1.026e-05
9.698e-06
9.149e-06
8.609e-06
8.078e-06
7.555e-06
7.039e-06
6.529e-06
6.025e-06
5.526e-06
5.031e-06
4.54e-06
4.053e-06
3.569e-06
3.087e-06
2.607e-06
2.127e-06
1.647e-06
1.167e-06
6.839e-07
2.127e-07
0.0002194
0.0002208
0.0002219
0.0002228
0.0002233
0.0002235
0.0002235
0.0002234
0.0002231
0.0002227
0.0002223
0.0002218
0.0002213
0.0002208
0.0002202
0.0002197
0.0002192
0.0002187
0.0002182
0.0002177
0.0002171
0.0002166
0.0002161
0.0002155
0.000215
0.0002144
0.0002138
0.0002132
0.0002126
0.000212
0.0002114
0.0002107
0.0002101
0.0002094
0.0002087
0.0002079
0.0002072
0.0002064
0.0002056
0.0002047
0.0002039
0.0002029
0.000202
0.000201
0.0002
0.0001989
0.0001977
0.0001964
0.000195
0.0001934
0.0001916
0.0001895
0.000187
0.0001841
0.0001807
0.0001767
0.0001721
0.0001668
0.0001606
0.0001536
0.0001456
0.0001368
0.0001273
0.0001173
0.0001075
9.857e-05
9.054e-05
8.322e-05
7.646e-05
7.022e-05
6.45e-05
5.928e-05
5.452e-05
5.022e-05
4.638e-05
4.299e-05
4.005e-05
3.752e-05
3.536e-05
3.35e-05
3.188e-05
3.046e-05
2.917e-05
2.8e-05
2.69e-05
2.587e-05
2.488e-05
2.393e-05
2.302e-05
2.213e-05
2.128e-05
2.045e-05
1.964e-05
1.886e-05
1.81e-05
1.737e-05
1.666e-05
1.597e-05
1.529e-05
1.464e-05
1.4e-05
1.338e-05
1.278e-05
1.219e-05
1.161e-05
1.105e-05
1.049e-05
9.95e-06
9.416e-06
8.891e-06
8.373e-06
7.863e-06
7.359e-06
6.862e-06
6.369e-06
5.881e-06
5.398e-06
4.919e-06
4.443e-06
3.97e-06
3.499e-06
3.031e-06
2.564e-06
2.099e-06
1.634e-06
1.168e-06
7.011e-07
2.328e-07
0.0002185
0.0002198
0.0002209
0.0002218
0.0002223
0.0002226
0.0002227
0.0002226
0.0002224
0.0002221
0.0002218
0.0002214
0.0002209
0.0002205
0.00022
0.0002195
0.000219
0.0002186
0.0002181
0.0002176
0.0002171
0.0002166
0.0002161
0.0002156
0.0002151
0.0002146
0.0002141
0.0002135
0.000213
0.0002124
0.0002119
0.0002113
0.0002107
0.0002101
0.0002094
0.0002088
0.0002081
0.0002074
0.0002067
0.000206
0.0002052
0.0002045
0.0002037
0.0002028
0.000202
0.0002011
0.0002001
0.0001991
0.000198
0.0001968
0.0001953
0.0001936
0.0001916
0.0001891
0.0001861
0.0001825
0.0001783
0.0001733
0.0001674
0.0001603
0.0001519
0.000142
0.0001306
0.0001179
0.0001053
9.441e-05
8.529e-05
7.742e-05
7.053e-05
6.436e-05
5.88e-05
5.381e-05
4.929e-05
4.523e-05
4.164e-05
3.852e-05
3.587e-05
3.365e-05
3.18e-05
3.025e-05
2.893e-05
2.777e-05
2.673e-05
2.577e-05
2.487e-05
2.401e-05
2.317e-05
2.236e-05
2.157e-05
2.08e-05
2.004e-05
1.93e-05
1.858e-05
1.788e-05
1.72e-05
1.653e-05
1.588e-05
1.524e-05
1.462e-05
1.402e-05
1.343e-05
1.285e-05
1.229e-05
1.174e-05
1.12e-05
1.066e-05
1.014e-05
9.626e-06
9.119e-06
8.618e-06
8.124e-06
7.636e-06
7.153e-06
6.675e-06
6.201e-06
5.73e-06
5.264e-06
4.8e-06
4.34e-06
3.881e-06
3.426e-06
2.972e-06
2.52e-06
2.069e-06
1.618e-06
1.169e-06
7.185e-07
2.536e-07
0.0002178
0.000219
0.0002201
0.0002209
0.0002215
0.0002218
0.000222
0.000222
0.0002219
0.0002217
0.0002214
0.000221
0.0002206
0.0002202
0.0002198
0.0002193
0.0002189
0.0002185
0.000218
0.0002176
0.0002171
0.0002167
0.0002162
0.0002158
0.0002153
0.0002148
0.0002144
0.0002139
0.0002134
0.0002129
0.0002124
0.0002119
0.0002113
0.0002108
0.0002103
0.0002097
0.0002091
0.0002085
0.0002079
0.0002073
0.0002067
0.0002061
0.0002054
0.0002048
0.0002041
0.0002034
0.0002027
0.000202
0.0002012
0.0002003
0.0001993
0.0001981
0.0001966
0.0001947
0.0001923
0.0001893
0.0001858
0.0001817
0.0001768
0.0001707
0.0001629
0.0001523
0.0001377
0.0001189
0.0001002
8.621e-05
7.6e-05
6.823e-05
6.204e-05
5.645e-05
5.152e-05
4.715e-05
4.313e-05
3.948e-05
3.626e-05
3.352e-05
3.124e-05
2.94e-05
2.793e-05
2.674e-05
2.576e-05
2.491e-05
2.414e-05
2.342e-05
2.273e-05
2.205e-05
2.138e-05
2.072e-05
2.006e-05
1.94e-05
1.875e-05
1.811e-05
1.748e-05
1.686e-05
1.625e-05
1.565e-05
1.506e-05
1.449e-05
1.393e-05
1.338e-05
1.283e-05
1.23e-05
1.178e-05
1.127e-05
1.076e-05
1.027e-05
9.775e-06
9.29e-06
8.811e-06
8.337e-06
7.867e-06
7.402e-06
6.94e-06
6.482e-06
6.027e-06
5.575e-06
5.125e-06
4.678e-06
4.233e-06
3.79e-06
3.349e-06
2.91e-06
2.473e-06
2.037e-06
1.602e-06
1.169e-06
7.359e-07
2.747e-07
0.0002171
0.0002183
0.0002193
0.0002201
0.0002208
0.0002212
0.0002214
0.0002215
0.0002214
0.0002212
0.000221
0.0002207
0.0002204
0.00022
0.0002196
0.0002192
0.0002188
0.0002184
0.000218
0.0002176
0.0002172
0.0002168
0.0002163
0.0002159
0.0002155
0.0002151
0.0002147
0.0002142
0.0002138
0.0002134
0.0002129
0.0002125
0.000212
0.0002116
0.0002111
0.0002106
0.0002101
0.0002096
0.0002092
0.0002087
0.0002082
0.0002077
0.0002072
0.0002067
0.0002062
0.0002058
0.0002054
0.0002049
0.0002045
0.000204
0.0002035
0.0002028
0.0002019
0.0002006
0.000199
0.0001969
0.0001945
0.0001918
0.0001889
0.000185
0.0001778
0.0001708
0.0001568
0.0001227
8.515e-05
6.937e-05
6.261e-05
5.729e-05
5.153e-05
4.634e-05
4.271e-05
3.941e-05
3.619e-05
3.313e-05
3.04e-05
2.81e-05
2.627e-05
2.488e-05
2.384e-05
2.307e-05
2.246e-05
2.194e-05
2.146e-05
2.1e-05
2.053e-05
2.004e-05
1.954e-05
1.902e-05
1.85e-05
1.796e-05
1.742e-05
1.688e-05
1.634e-05
1.58e-05
1.527e-05
1.475e-05
1.423e-05
1.372e-05
1.322e-05
1.272e-05
1.223e-05
1.174e-05
1.127e-05
1.079e-05
1.033e-05
9.863e-06
9.405e-06
8.95e-06
8.499e-06
8.052e-06
7.607e-06
7.165e-06
6.725e-06
6.287e-06
5.851e-06
5.417e-06
4.985e-06
4.554e-06
4.125e-06
3.698e-06
3.272e-06
2.848e-06
2.426e-06
2.005e-06
1.586e-06
1.168e-06
7.531e-07
2.957e-07
0.0002165
0.0002177
0.0002187
0.0002195
0.0002201
0.0002206
0.0002208
0.000221
0.000221
0.0002209
0.0002207
0.0002204
0.0002201
0.0002198
0.0002195
0.0002191
0.0002188
0.0002184
0.000218
0.0002176
0.0002172
0.0002169
0.0002165
0.0002161
0.0002157
0.0002154
0.000215
0.0002146
0.0002142
0.0002138
0.0002135
0.0002131
0.0002127
0.0002123
0.0002119
0.0002115
0.0002112
0.0002108
0.0002104
0.00021
0.0002096
0.0002093
0.000209
0.0002087
0.0002084
0.0002081
0.000208
0.0002078
0.0002077
0.0002077
0.0002076
0.0002075
0.0002071
0.0002066
0.0002056
0.0002044
0.000203
0.0002019
0.0002008
0.0002016
0.0001951
0.0001542
0.0001264
0.0001141
9.634e-05
9.581e-05
8.026e-05
4.791e-05
3.856e-05
3.669e-05
3.354e-05
3.106e-05
2.889e-05
2.65e-05
2.429e-05
2.246e-05
2.111e-05
2.02e-05
1.964e-05
1.931e-05
1.91e-05
1.894e-05
1.876e-05
1.856e-05
1.831e-05
1.802e-05
1.768e-05
1.732e-05
1.692e-05
1.651e-05
1.608e-05
1.564e-05
1.52e-05
1.475e-05
1.43e-05
1.385e-05
1.34e-05
1.295e-05
1.25e-05
1.206e-05
1.162e-05
1.119e-05
1.075e-05
1.032e-05
9.89e-06
9.462e-06
9.037e-06
8.613e-06
8.19e-06
7.769e-06
7.349e-06
6.929e-06
6.511e-06
6.094e-06
5.677e-06
5.261e-06
4.846e-06
4.432e-06
4.019e-06
3.607e-06
3.196e-06
2.786e-06
2.378e-06
1.973e-06
1.569e-06
1.168e-06
7.697e-07
3.162e-07
0.0002161
0.0002172
0.0002181
0.000219
0.0002196
0.0002201
0.0002204
0.0002205
0.0002206
0.0002205
0.0002204
0.0002202
0.00022
0.0002197
0.0002194
0.0002191
0.0002187
0.0002184
0.000218
0.0002177