/*--------------------------------*- C++ -*----------------------------------*\
  =========                 |
  \\      /  F ield         | OpenFOAM: The Open Source CFD Toolbox
   \\    /   O peration     | Website:  https://openfoam.org
    \\  /    A nd           | Version:  7
     \\/     M anipulation  |
\*---------------------------------------------------------------------------*/
FoamFile
{
    version     2.0;
    format      ascii;
    class       surfaceScalarField;
    location    "1679.99947342491805";
    object      phi;
}
// * * * * * * * * * * * * * * * * * * * * * * * * * * * * * * * * * * * * * //

dimensions      [0 3 -1 0 0 0 0];

internalField   nonuniform List<scalar> 
8032
(
6.857e-10
2.518e-10
4.804e-10
2.053e-10
3.48e-10
1.324e-10
2.643e-10
8.372e-11
2.101e-10
5.416e-11
1.738e-10
3.638e-11
1.482e-10
2.551e-11
1.296e-10
1.866e-11
1.154e-10
1.415e-11
1.044e-10
1.104e-11
9.558e-11
8.813e-12
8.843e-11
7.152e-12
8.255e-11
5.877e-12
7.767e-11
4.873e-12
7.361e-11
4.065e-12
7.021e-11
3.403e-12
6.736e-11
2.85e-12
6.498e-11
2.381e-12
6.3e-11
1.978e-12
6.137e-11
1.628e-12
6.005e-11
1.318e-12
5.901e-11
1.04e-12
5.822e-11
7.881e-13
5.767e-11
5.559e-13
5.733e-11
3.39e-13
5.72e-11
1.334e-13
5.726e-11
-6.428e-14
5.752e-11
-2.569e-13
5.796e-11
-4.471e-13
5.86e-11
-6.37e-13
5.943e-11
-8.287e-13
6.045e-11
-1.024e-12
6.168e-11
-1.224e-12
6.311e-11
-1.431e-12
6.475e-11
-1.645e-12
6.662e-11
-1.867e-12
6.872e-11
-2.097e-12
7.105e-11
-2.336e-12
7.364e-11
-2.584e-12
7.648e-11
-2.84e-12
7.958e-11
-3.102e-12
8.295e-11
-3.37e-12
8.659e-11
-3.64e-12
9.05e-11
-3.909e-12
9.467e-11
-4.174e-12
9.91e-11
-4.43e-12
1.038e-10
-4.671e-12
1.087e-10
-4.892e-12
1.138e-10
-5.085e-12
1.19e-10
-5.243e-12
1.243e-10
-5.357e-12
1.298e-10
-5.419e-12
1.352e-10
-5.421e-12
1.405e-10
-5.355e-12
1.458e-10
-5.215e-12
1.508e-10
-4.994e-12
1.554e-10
-4.69e-12
1.597e-10
-4.301e-12
1.636e-10
-3.83e-12
1.669e-10
-3.282e-12
1.695e-10
-2.667e-12
1.715e-10
-1.996e-12
1.728e-10
-1.285e-12
1.734e-10
-5.514e-13
1.732e-10
1.872e-13
1.723e-10
9.128e-13
1.706e-10
1.609e-12
1.684e-10
2.262e-12
1.655e-10
2.86e-12
1.621e-10
3.395e-12
1.583e-10
3.861e-12
1.54e-10
4.255e-12
1.494e-10
4.577e-12
1.446e-10
4.827e-12
1.396e-10
5.008e-12
1.345e-10
5.124e-12
1.293e-10
5.18e-12
1.241e-10
5.18e-12
1.19e-10
5.131e-12
1.139e-10
5.038e-12
1.09e-10
4.909e-12
1.043e-10
4.749e-12
9.972e-11
4.564e-12
9.536e-11
4.36e-12
9.122e-11
4.142e-12
8.731e-11
3.915e-12
8.362e-11
3.683e-12
8.017e-11
3.45e-12
7.696e-11
3.219e-12
7.396e-11
2.991e-12
7.119e-11
2.771e-12
6.864e-11
2.558e-12
6.628e-11
2.355e-12
6.412e-11
2.162e-12
6.214e-11
1.98e-12
6.033e-11
1.808e-12
5.868e-11
1.648e-12
5.718e-11
1.499e-12
5.582e-11
1.36e-12
5.459e-11
1.232e-12
5.348e-11
1.114e-12
5.247e-11
1.005e-12
5.157e-11
9.057e-13
5.075e-11
8.147e-13
5.002e-11
7.317e-13
4.937e-11
6.561e-13
4.878e-11
5.874e-13
4.825e-11
5.251e-13
4.778e-11
4.687e-13
4.737e-11
4.178e-13
4.699e-11
3.719e-13
4.666e-11
3.307e-13
4.637e-11
2.938e-13
4.611e-11
2.609e-13
4.588e-11
2.318e-13
4.567e-11
2.062e-13
4.549e-11
1.841e-13
4.532e-11
1.652e-13
4.517e-11
1.497e-13
4.503e-11
1.378e-13
4.49e-11
1.296e-13
4.478e-11
1.258e-13
4.465e-11
1.276e-13
4.451e-11
1.369e-13
4.436e-11
1.579e-13
4.416e-11
1.971e-13
4.39e-11
2.618e-13
3.402e-13
9.523e-10
2.37e-10
8.501e-10
3.075e-10
7.275e-10
2.55e-10
6.183e-10
1.929e-10
5.294e-10
1.431e-10
4.592e-10
1.065e-10
4.042e-10
8.058e-11
3.606e-10
6.22e-11
3.258e-10
4.897e-11
2.976e-10
3.924e-11
2.745e-10
3.191e-11
2.554e-10
2.625e-11
2.395e-10
2.179e-11
2.262e-10
1.822e-11
2.149e-10
1.529e-11
2.055e-10
1.286e-11
1.975e-10
1.082e-11
1.908e-10
9.07e-12
1.852e-10
7.559e-12
1.806e-10
6.235e-12
1.769e-10
5.06e-12
1.739e-10
4.004e-12
1.717e-10
3.042e-12
1.701e-10
2.154e-12
1.691e-10
1.323e-12
1.687e-10
5.347e-13
1.688e-10
-2.236e-13
1.695e-10
-9.623e-13
1.708e-10
-1.691e-12
1.726e-10
-2.418e-12
1.749e-10
-3.15e-12
1.778e-10
-3.894e-12
1.812e-10
-4.655e-12
1.852e-10
-5.438e-12
1.898e-10
-6.246e-12
1.95e-10
-7.083e-12
2.009e-10
-7.949e-12
2.074e-10
-8.845e-12
2.146e-10
-9.77e-12
2.224e-10
-1.072e-11
2.31e-10
-1.169e-11
2.403e-10
-1.268e-11
2.504e-10
-1.367e-11
2.611e-10
-1.466e-11
2.726e-10
-1.562e-11
2.847e-10
-1.655e-11
2.974e-10
-1.742e-11
3.108e-10
-1.821e-11
3.246e-10
-1.889e-11
3.388e-10
-1.944e-11
3.532e-10
-1.983e-11
3.678e-10
-2.002e-11
3.824e-10
-1.999e-11
3.968e-10
-1.972e-11
4.107e-10
-1.917e-11
4.241e-10
-1.833e-11
4.366e-10
-1.719e-11
4.48e-10
-1.575e-11
4.582e-10
-1.402e-11
4.669e-10
-1.201e-11
4.74e-10
-9.765e-12
4.794e-10
-7.321e-12
4.828e-10
-4.735e-12
4.843e-10
-2.065e-12
4.839e-10
6.228e-13
4.815e-10
3.268e-12
4.773e-10
5.811e-12
4.714e-10
8.203e-12
4.638e-10
1.04e-11
4.549e-10
1.238e-11
4.446e-10
1.411e-11
4.333e-10
1.558e-11
4.211e-10
1.679e-11
4.082e-10
1.775e-11
3.947e-10
1.845e-11
3.809e-10
1.891e-11
3.67e-10
1.915e-11
3.53e-10
1.919e-11
3.39e-10
1.904e-11
3.253e-10
1.874e-11
3.12e-10
1.829e-11
2.99e-10
1.773e-11
2.865e-10
1.707e-11
2.745e-10
1.634e-11
2.631e-10
1.555e-11
2.523e-10
1.473e-11
2.421e-10
1.388e-11
2.325e-10
1.303e-11
2.235e-10
1.218e-11
2.152e-10
1.134e-11
2.074e-10
1.053e-11
2.002e-10
9.736e-12
1.936e-10
8.98e-12
1.875e-10
8.259e-12
1.819e-10
7.576e-12
1.768e-10
6.933e-12
1.721e-10
6.329e-12
1.678e-10
5.767e-12
1.64e-10
5.243e-12
1.604e-10
4.758e-12
1.572e-10
4.31e-12
1.543e-10
3.897e-12
1.517e-10
3.518e-12
1.494e-10
3.171e-12
1.473e-10
2.853e-12
1.454e-10
2.563e-12
1.436e-10
2.3e-12
1.421e-10
2.06e-12
1.407e-10
1.843e-12
1.395e-10
1.647e-12
1.384e-10
1.469e-12
1.374e-10
1.31e-12
1.366e-10
1.167e-12
1.358e-10
1.039e-12
1.351e-10
9.258e-13
1.345e-10
8.26e-13
1.339e-10
7.393e-13
1.334e-10
6.653e-13
1.33e-10
6.039e-13
1.325e-10
5.555e-13
1.321e-10
5.209e-13
1.318e-10
5.015e-13
1.314e-10
4.994e-13
1.31e-10
5.183e-13
1.306e-10
5.633e-13
1.302e-10
6.403e-13
1.297e-10
7.481e-13
8.498e-13
9.779e-10
1.966e-10
9.637e-10
3.217e-10
9.013e-10
3.175e-10
8.212e-10
2.73e-10
7.409e-10
2.233e-10
6.679e-10
1.795e-10
6.045e-10
1.44e-10
5.506e-10
1.161e-10
5.051e-10
9.449e-11
4.667e-10
7.76e-11
4.343e-10
6.428e-11
4.069e-10
5.365e-11
3.837e-10
4.504e-11
3.639e-10
3.797e-11
3.471e-10
3.21e-11
3.328e-10
2.715e-11
3.207e-10
2.294e-11
3.105e-10
1.931e-11
3.019e-10
1.614e-11
2.948e-10
1.335e-11
2.89e-10
1.086e-11
2.844e-10
8.609e-12
2.809e-10
6.551e-12
2.784e-10
4.645e-12
2.768e-10
2.857e-12
2.762e-10
1.158e-12
2.765e-10
-4.784e-13
2.776e-10
-2.074e-12
2.795e-10
-3.647e-12
2.823e-10
-5.216e-12
2.86e-10
-6.795e-12
2.905e-10
-8.398e-12
2.959e-10
-1.004e-11
3.021e-10
-1.172e-11
3.094e-10
-1.345e-11
3.175e-10
-1.524e-11
3.267e-10
-1.709e-11
3.368e-10
-1.9e-11
3.48e-10
-2.097e-11
3.603e-10
-2.299e-11
3.737e-10
-2.505e-11
3.881e-10
-2.714e-11
4.037e-10
-2.923e-11
4.203e-10
-3.13e-11
4.38e-10
-3.333e-11
4.567e-10
-3.527e-11
4.764e-10
-3.708e-11
4.969e-10
-3.871e-11
5.181e-10
-4.012e-11
5.399e-10
-4.124e-11
5.621e-10
-4.202e-11
5.845e-10
-4.239e-11
6.068e-10
-4.229e-11
6.287e-10
-4.167e-11
6.5e-10
-4.048e-11
6.704e-10
-3.869e-11
6.895e-10
-3.627e-11
7.069e-10
-3.322e-11
7.225e-10
-2.956e-11
7.358e-10
-2.533e-11
7.466e-10
-2.06e-11
7.548e-10
-1.546e-11
7.601e-10
-1.003e-11
7.624e-10
-4.422e-12
7.618e-10
1.226e-12
7.583e-10
6.786e-12
7.52e-10
1.214e-11
7.43e-10
1.718e-11
7.316e-10
2.183e-11
7.179e-10
2.601e-11
7.024e-10
2.968e-11
6.851e-10
3.282e-11
6.665e-10
3.541e-11
6.468e-10
3.746e-11
6.262e-10
3.899e-11
6.051e-10
4.001e-11
5.837e-10
4.057e-11
5.622e-10
4.07e-11
5.408e-10
4.043e-11
5.197e-10
3.983e-11
4.991e-10
3.893e-11
4.79e-10
3.778e-11
4.597e-10
3.642e-11
4.411e-10
3.49e-11
4.234e-10
3.327e-11
4.066e-10
3.154e-11
3.907e-10
2.977e-11
3.758e-10
2.797e-11
3.618e-10
2.618e-11
3.487e-10
2.441e-11
3.366e-10
2.268e-11
3.253e-10
2.101e-11
3.149e-10
1.94e-11
3.053e-10
1.786e-11
2.964e-10
1.641e-11
2.883e-10
1.503e-11
2.809e-10
1.374e-11
2.742e-10
1.253e-11
2.68e-10
1.141e-11
2.624e-10
1.037e-11
2.573e-10
9.405e-12
2.527e-10
8.515e-12
2.485e-10
7.697e-12
2.447e-10
6.947e-12
2.413e-10
6.26e-12
2.382e-10
5.632e-12
2.355e-10
5.06e-12
2.33e-10
4.54e-12
2.308e-10
4.068e-12
2.288e-10
3.64e-12
2.27e-10
3.253e-12
2.254e-10
2.905e-12
2.24e-10
2.592e-12
2.227e-10
2.313e-12
2.216e-10
2.064e-12
2.205e-10
1.845e-12
2.196e-10
1.653e-12
2.188e-10
1.489e-12
2.181e-10
1.352e-12
2.174e-10
1.241e-12
2.167e-10
1.159e-12
2.161e-10
1.106e-12
2.155e-10
1.085e-12
2.15e-10
1.099e-12
2.144e-10
1.151e-12
2.138e-10
1.241e-12
2.132e-10
1.358e-12
1.452e-12
9.752e-10
1.589e-10
9.93e-10
3.039e-10
9.728e-10
3.377e-10
9.268e-10
3.19e-10
8.689e-10
2.812e-10
8.083e-10
2.401e-10
7.502e-10
2.021e-10
6.969e-10
1.694e-10
6.494e-10
1.42e-10
6.076e-10
1.194e-10
5.711e-10
1.008e-10
5.394e-10
8.535e-11
5.12e-10
7.25e-11
4.882e-10
6.171e-11
4.677e-10
5.257e-11
4.501e-10
4.475e-11
4.351e-10
3.801e-11
4.222e-10
3.213e-11
4.114e-10
2.696e-11
4.024e-10
2.236e-11
3.951e-10
1.822e-11
3.892e-10
1.447e-11
3.847e-10
1.102e-11
3.816e-10
7.809e-12
3.796e-10
4.788e-12
3.789e-10
1.908e-12
3.793e-10
-8.699e-13
3.808e-10
-3.582e-12
3.834e-10
-6.259e-12
3.871e-10
-8.929e-12
3.919e-10
-1.162e-11
3.979e-10
-1.434e-11
4.05e-10
-1.713e-11
4.132e-10
-1.998e-11
4.227e-10
-2.292e-11
4.334e-10
-2.595e-11
4.454e-10
-2.908e-11
4.587e-10
-3.231e-11
4.733e-10
-3.562e-11
4.894e-10
-3.902e-11
5.068e-10
-4.248e-11
5.256e-10
-4.597e-11
5.459e-10
-4.947e-11
5.675e-10
-5.294e-11
5.905e-10
-5.631e-11
6.148e-10
-5.953e-11
6.402e-10
-6.253e-11
6.667e-10
-6.524e-11
6.942e-10
-6.755e-11
7.223e-10
-6.939e-11
7.51e-10
-7.064e-11
7.798e-10
-7.121e-11
8.085e-10
-7.101e-11
8.368e-10
-6.993e-11
8.642e-10
-6.79e-11
8.904e-10
-6.487e-11
9.149e-10
-6.079e-11
9.373e-10
-5.567e-11
9.573e-10
-4.953e-11
9.744e-10
-4.245e-11
9.884e-10
-3.454e-11
9.989e-10
-2.596e-11
1.006e-09
-1.687e-11
1.009e-09
-7.502e-12
1.008e-09
1.94e-12
1.004e-09
1.124e-11
9.956e-10
2.02e-11
9.841e-10
2.864e-11
9.695e-10
3.643e-11
9.521e-10
4.345e-11
9.321e-10
4.963e-11
9.1e-10
5.493e-11
8.861e-10
5.932e-11
8.608e-10
6.28e-11
8.343e-10
6.542e-11
8.072e-10
6.719e-11
7.795e-10
6.819e-11
7.518e-10
6.846e-11
7.241e-10
6.808e-11
6.968e-10
6.712e-11
6.701e-10
6.567e-11
6.441e-10
6.379e-11
6.19e-10
6.156e-11
5.948e-10
5.905e-11
5.717e-10
5.633e-11
5.498e-10
5.347e-11
5.291e-10
5.052e-11
5.095e-10
4.752e-11
4.912e-10
4.452e-11
4.74e-10
4.155e-11
4.581e-10
3.865e-11
4.433e-10
3.583e-11
4.295e-10
3.312e-11
4.169e-10
3.053e-11
4.052e-10
2.807e-11
3.945e-10
2.575e-11
3.846e-10
2.357e-11
3.757e-10
2.152e-11
3.675e-10
1.961e-11
3.6e-10
1.784e-11
3.532e-10
1.62e-11
3.47e-10
1.468e-11
3.414e-10
1.329e-11
3.364e-10
1.201e-11
3.318e-10
1.083e-11
3.277e-10
9.758e-12
3.239e-10
8.778e-12
3.206e-10
7.885e-12
3.176e-10
7.074e-12
3.149e-10
6.338e-12
3.125e-10
5.673e-12
3.103e-10
5.072e-12
3.084e-10
4.532e-12
3.066e-10
4.049e-12
3.051e-10
3.618e-12
3.037e-10
3.237e-12
3.024e-10
2.903e-12
3.013e-10
2.615e-12
3.003e-10
2.372e-12
2.994e-10
2.172e-12
2.985e-10
2.018e-12
2.977e-10
1.909e-12
2.969e-10
1.848e-12
2.962e-10
1.836e-12
2.955e-10
1.872e-12
2.948e-10
1.95e-12
2.941e-10
2.052e-12
2.131e-12
9.668e-10
1.296e-10
9.944e-10
2.762e-10
9.978e-10
3.343e-10
9.78e-10
3.388e-10
9.424e-10
3.168e-10
8.985e-10
2.84e-10
8.516e-10
2.49e-10
8.053e-10
2.157e-10
7.616e-10
1.858e-10
7.213e-10
1.597e-10
6.848e-10
1.372e-10
6.523e-10
1.179e-10
6.234e-10
1.014e-10
5.98e-10
8.714e-11
5.757e-10
7.484e-11
5.563e-10
6.415e-11
5.395e-10
5.479e-11
5.251e-10
4.653e-11
5.129e-10
3.918e-11
5.027e-10
3.259e-11
4.943e-10
2.662e-11
4.876e-10
2.116e-11
4.825e-10
1.611e-11
4.789e-10
1.14e-11
4.768e-10
6.937e-12
4.76e-10
2.673e-12
4.766e-10
-1.451e-12
4.785e-10
-5.485e-12
4.817e-10
-9.473e-12
4.862e-10
-1.345e-11
4.921e-10
-1.746e-11
4.992e-10
-2.153e-11
5.078e-10
-2.567e-11
5.177e-10
-2.993e-11
5.291e-10
-3.43e-11
5.42e-10
-3.881e-11
5.563e-10
-4.346e-11
5.723e-10
-4.824e-11
5.898e-10
-5.315e-11
6.09e-10
-5.818e-11
6.298e-10
-6.329e-11
6.522e-10
-6.844e-11
6.764e-10
-7.36e-11
7.021e-10
-7.869e-11
7.294e-10
-8.364e-11
7.583e-10
-8.837e-11
7.885e-10
-9.277e-11
8.2e-10
-9.672e-11
8.525e-10
-1.001e-10
8.859e-10
-1.028e-10
9.198e-10
-1.046e-10
9.54e-10
-1.054e-10
9.88e-10
-1.05e-10
1.021e-09
-1.034e-10
1.054e-09
-1.004e-10
1.085e-09
-9.587e-11
1.114e-09
-8.984e-11
1.141e-09
-8.227e-11
1.164e-09
-7.321e-11
1.185e-09
-6.276e-11
1.201e-09
-5.109e-11
1.214e-09
-3.842e-11
1.222e-09
-2.502e-11
1.225e-09
-1.119e-11
1.225e-09
2.739e-12
1.219e-09
1.646e-11
1.21e-09
2.968e-11
1.196e-09
4.215e-11
1.179e-09
5.366e-11
1.159e-09
6.404e-11
1.135e-09
7.319e-11
1.109e-09
8.104e-11
1.081e-09
8.756e-11
1.051e-09
9.276e-11
1.019e-09
9.668e-11
9.872e-10
9.937e-11
9.545e-10
1.009e-10
9.216e-10
1.014e-10
8.888e-10
1.009e-10
8.564e-10
9.953e-11
8.246e-10
9.744e-11
7.937e-10
9.472e-11
7.638e-10
9.148e-11
7.35e-10
8.783e-11
7.075e-10
8.386e-11
6.813e-10
7.966e-11
6.565e-10
7.532e-11
6.331e-10
7.091e-11
6.111e-10
6.649e-11
5.905e-10
6.211e-11
5.714e-10
5.783e-11
5.535e-10
5.366e-11
5.37e-10
4.965e-11
5.217e-10
4.581e-11
5.076e-10
4.216e-11
4.947e-10
3.871e-11
4.828e-10
3.546e-11
4.719e-10
3.241e-11
4.619e-10
2.957e-11
4.528e-10
2.692e-11
4.446e-10
2.447e-11
4.37e-10
2.22e-11
4.302e-10
2.011e-11
4.24e-10
1.819e-11
4.184e-10
1.643e-11
4.134e-10
1.481e-11
4.088e-10
1.334e-11
4.047e-10
1.2e-11
4.01e-10
1.077e-11
3.977e-10
9.665e-12
3.947e-10
8.66e-12
3.92e-10
7.752e-12
3.896e-10
6.934e-12
3.875e-10
6.201e-12
3.855e-10
5.547e-12
3.838e-10
4.966e-12
3.823e-10
4.456e-12
3.809e-10
4.013e-12
3.796e-10
3.635e-12
3.784e-10
3.321e-12
3.774e-10
3.07e-12
3.764e-10
2.882e-12
3.755e-10
2.757e-12
3.746e-10
2.695e-12
3.738e-10
2.692e-12
3.73e-10
2.738e-12
3.723e-10
2.812e-12
2.871e-12
9.592e-10
1.079e-10
9.875e-10
2.479e-10
1.003e-09
3.191e-10
1e-09
3.414e-10
9.824e-10
3.345e-10
9.543e-10
3.121e-10
9.202e-10
2.831e-10
8.834e-10
2.524e-10
8.465e-10
2.228e-10
8.108e-10
1.954e-10
7.773e-10
1.707e-10
7.464e-10
1.488e-10
7.184e-10
1.294e-10
6.932e-10
1.123e-10
6.707e-10
9.729e-11
6.509e-10
8.396e-11
6.336e-10
7.212e-11
6.186e-10
6.153e-11
6.058e-10
5.201e-11
5.95e-10
4.339e-11
5.861e-10
3.551e-11
5.79e-10
2.825e-11
5.736e-10
2.15e-11
5.698e-10
1.515e-11
5.677e-10
9.122e-12
5.67e-10
3.336e-12
5.678e-10
-2.278e-12
5.701e-10
-7.782e-12
5.739e-10
-1.323e-11
5.791e-10
-1.868e-11
5.858e-10
-2.417e-11
5.94e-10
-2.974e-11
6.038e-10
-3.542e-11
6.151e-10
-4.125e-11
6.28e-10
-4.724e-11
6.426e-10
-5.34e-11
6.589e-10
-5.975e-11
6.77e-10
-6.628e-11
6.968e-10
-7.299e-11
7.185e-10
-7.984e-11
7.42e-10
-8.679e-11
7.673e-10
-9.381e-11
7.946e-10
-1.008e-10
8.236e-10
-1.077e-10
8.544e-10
-1.145e-10
8.869e-10
-1.209e-10
9.21e-10
-1.268e-10
9.564e-10
-1.322e-10
9.93e-10
-1.367e-10
1.031e-09
-1.403e-10
1.069e-09
-1.428e-10
1.107e-09
-1.438e-10
1.146e-09
-1.433e-10
1.183e-09
-1.411e-10
1.22e-09
-1.37e-10
1.255e-09
-1.308e-10
1.288e-09
-1.226e-10
1.318e-09
-1.123e-10
1.344e-09
-9.997e-11
1.367e-09
-8.572e-11
1.386e-09
-6.981e-11
1.4e-09
-5.253e-11
1.409e-09
-3.425e-11
1.414e-09
-1.539e-11
1.413e-09
3.619e-12
1.407e-09
2.234e-11
1.396e-09
4.037e-11
1.381e-09
5.737e-11
1.362e-09
7.306e-11
1.338e-09
8.722e-11
1.312e-09
9.97e-11
1.283e-09
1.104e-10
1.251e-09
1.193e-10
1.217e-09
1.265e-10
1.182e-09
1.319e-10
1.146e-09
1.356e-10
1.109e-09
1.377e-10
1.072e-09
1.384e-10
1.035e-09
1.378e-10
9.983e-10
1.361e-10
9.624e-10
1.333e-10
9.275e-10
1.296e-10
8.937e-10
1.253e-10
8.612e-10
1.203e-10
8.301e-10
1.15e-10
8.005e-10
1.093e-10
7.724e-10
1.034e-10
7.459e-10
9.741e-11
7.21e-10
9.141e-11
6.977e-10
8.545e-11
6.759e-10
7.961e-11
6.556e-10
7.394e-11
6.368e-10
6.847e-11
6.194e-10
6.322e-11
6.033e-10
5.823e-11
5.885e-10
5.351e-11
5.749e-10
4.906e-11
5.624e-10
4.488e-11
5.51e-10
4.098e-11
5.406e-10
3.734e-11
5.311e-10
3.397e-11
5.225e-10
3.085e-11
5.146e-10
2.797e-11
5.075e-10
2.532e-11
5.01e-10
2.289e-11
4.952e-10
2.066e-11
4.899e-10
1.862e-11
4.851e-10
1.676e-11
4.808e-10
1.507e-11
4.77e-10
1.353e-11
4.735e-10
1.213e-11
4.704e-10
1.087e-11
4.676e-10
9.735e-12
4.651e-10
8.713e-12
4.628e-10
7.799e-12
4.608e-10
6.986e-12
4.59e-10
6.27e-12
4.574e-10
5.644e-12
4.559e-10
5.106e-12
4.546e-10
4.652e-12
4.533e-10
4.282e-12
4.522e-10
3.992e-12
4.512e-10
3.783e-12
4.503e-10
3.65e-12
4.494e-10
3.588e-12
4.485e-10
3.585e-12
4.477e-10
3.62e-12
3.656e-12
9.536e-10
9.185e-11
9.795e-10
2.22e-10
9.995e-10
2.99e-10
1.007e-09
3.336e-10
1.003e-09
3.392e-10
9.876e-10
3.272e-10
9.652e-10
3.055e-10
9.384e-10
2.792e-10
9.095e-10
2.517e-10
8.8e-10
2.249e-10
8.511e-10
1.995e-10
8.237e-10
1.762e-10
7.981e-10
1.55e-10
7.746e-10
1.359e-10
7.533e-10
1.186e-10
7.342e-10
1.03e-10
7.173e-10
8.901e-11
7.025e-10
7.63e-11
6.898e-10
6.474e-11
6.79e-10
5.415e-11
6.701e-10
4.44e-11
6.631e-10
3.534e-11
6.577e-10
2.685e-11
6.54e-10
1.883e-11
6.52e-10
1.117e-11
6.515e-10
3.789e-12
6.526e-10
-3.398e-12
6.553e-10
-1.047e-11
6.596e-10
-1.748e-11
6.654e-10
-2.45e-11
6.728e-10
-3.158e-11
6.818e-10
-3.877e-11
6.925e-10
-4.61e-11
7.049e-10
-5.363e-11
7.19e-10
-6.136e-11
7.349e-10
-6.931e-11
7.527e-10
-7.751e-11
7.723e-10
-8.593e-11
7.939e-10
-9.457e-11
8.174e-10
-1.034e-10
8.43e-10
-1.123e-10
8.706e-10
-1.214e-10
9.001e-10
-1.304e-10
9.317e-10
-1.393e-10
9.651e-10
-1.479e-10
1e-09
-1.561e-10
1.037e-09
-1.638e-10
1.076e-09
-1.707e-10
1.116e-09
-1.765e-10
1.156e-09
-1.812e-10
1.198e-09
-1.843e-10
1.24e-09
-1.857e-10
1.282e-09
-1.851e-10
1.323e-09
-1.822e-10
1.363e-09
-1.769e-10
1.401e-09
-1.69e-10
1.437e-09
-1.585e-10
1.47e-09
-1.452e-10
1.499e-09
-1.293e-10
1.524e-09
-1.109e-10
1.545e-09
-9.035e-11
1.56e-09
-6.801e-11
1.57e-09
-4.437e-11
1.575e-09
-1.998e-11
1.574e-09
4.594e-12
1.567e-09
2.878e-11
1.556e-09
5.207e-11
1.539e-09
7.401e-11
1.518e-09
9.425e-11
1.493e-09
1.125e-10
1.464e-09
1.286e-10
1.432e-09
1.424e-10
1.397e-09
1.54e-10
1.36e-09
1.632e-10
1.322e-09
1.701e-10
1.283e-09
1.75e-10
1.243e-09
1.778e-10
1.202e-09
1.787e-10
1.162e-09
1.78e-10
1.122e-09
1.758e-10
1.083e-09
1.723e-10
1.045e-09
1.676e-10
1.009e-09
1.62e-10
9.733e-10
1.557e-10
9.394e-10
1.488e-10
9.071e-10
1.415e-10
8.765e-10
1.34e-10
8.477e-10
1.263e-10
8.205e-10
1.186e-10
7.95e-10
1.109e-10
7.712e-10
1.034e-10
7.491e-10
9.609e-11
7.285e-10
8.904e-11
7.095e-10
8.228e-11
6.919e-10
7.583e-11
6.756e-10
6.973e-11
6.607e-10
6.397e-11
6.47e-10
5.857e-11
6.345e-10
5.351e-11
6.23e-10
4.881e-11
6.126e-10
4.443e-11
6.03e-10
4.038e-11
5.944e-10
3.664e-11
5.865e-10
3.32e-11
5.793e-10
3.003e-11
5.729e-10
2.713e-11
5.67e-10
2.447e-11
5.617e-10
2.205e-11
5.57e-10
1.984e-11
5.527e-10
1.783e-11
5.488e-10
1.6e-11
5.453e-10
1.435e-11
5.422e-10
1.286e-11
5.394e-10
1.152e-11
5.369e-10
1.032e-11
5.346e-10
9.244e-12
5.326e-10
8.296e-12
5.308e-10
7.464e-12
5.291e-10
6.744e-12
5.277e-10
6.13e-12
5.263e-10
5.62e-12
5.251e-10
5.209e-12
5.24e-10
4.896e-12
5.23e-10
4.674e-12
5.22e-10
4.538e-12
5.211e-10
4.473e-12
5.203e-10
4.462e-12
4.472e-12
9.498e-10
7.958e-11
9.724e-10
1.993e-10
9.938e-10
2.776e-10
1.008e-09
3.199e-10
1.012e-09
3.352e-10
1.006e-09
3.323e-10
9.941e-10
3.178e-10
9.764e-10
2.969e-10
9.554e-10
2.727e-10
9.327e-10
2.476e-10
9.093e-10
2.229e-10
8.862e-10
1.993e-10
8.641e-10
1.772e-10
8.433e-10
1.567e-10
8.241e-10
1.378e-10
8.066e-10
1.205e-10
7.909e-10
1.047e-10
7.771e-10
9.015e-11
7.65e-10
7.676e-11
7.548e-10
6.437e-11
7.464e-10
5.285e-11
7.396e-10
4.207e-11
7.346e-10
3.189e-11
7.312e-10
2.222e-11
7.294e-10
1.293e-11
7.293e-10
3.939e-12
7.307e-10
-4.849e-12
7.338e-10
-1.352e-11
7.385e-10
-2.214e-11
7.447e-10
-3.078e-11
7.527e-10
-3.952e-11
7.623e-10
-4.839e-11
7.737e-10
-5.746e-11
7.868e-10
-6.675e-11
8.017e-10
-7.63e-11
8.186e-10
-8.614e-11
8.373e-10
-9.626e-11
8.58e-10
-1.067e-10
8.808e-10
-1.173e-10
9.056e-10
-1.282e-10
9.326e-10
-1.393e-10
9.616e-10
-1.504e-10
9.928e-10
-1.616e-10
1.026e-09
-1.725e-10
1.061e-09
-1.832e-10
1.099e-09
-1.934e-10
1.138e-09
-2.028e-10
1.178e-09
-2.113e-10
1.22e-09
-2.186e-10
1.264e-09
-2.244e-10
1.308e-09
-2.283e-10
1.352e-09
-2.301e-10
1.396e-09
-2.294e-10
1.44e-09
-2.259e-10
1.483e-09
-2.195e-10
1.523e-09
-2.098e-10
1.562e-09
-1.968e-10
1.597e-09
-1.804e-10
1.628e-09
-1.607e-10
1.655e-09
-1.379e-10
1.677e-09
-1.124e-10
1.694e-09
-8.461e-11
1.705e-09
-5.521e-11
1.71e-09
-2.486e-11
1.708e-09
5.693e-12
1.702e-09
3.575e-11
1.689e-09
6.466e-11
1.671e-09
9.186e-11
1.648e-09
1.169e-10
1.621e-09
1.395e-10
1.591e-09
1.594e-10
1.557e-09
1.765e-10
1.52e-09
1.907e-10
1.481e-09
2.021e-10
1.44e-09
2.108e-10
1.398e-09
2.167e-10
1.356e-09
2.202e-10
1.313e-09
2.215e-10
1.271e-09
2.206e-10
1.229e-09
2.178e-10
1.187e-09
2.135e-10
1.147e-09
2.078e-10
1.108e-09
2.009e-10
1.071e-09
1.931e-10
1.035e-09
1.847e-10
1.001e-09
1.757e-10
9.686e-10
1.664e-10
9.38e-10
1.569e-10
9.093e-10
1.473e-10
8.823e-10
1.379e-10
8.571e-10
1.286e-10
8.337e-10
1.196e-10
8.119e-10
1.108e-10
7.917e-10
1.025e-10
7.73e-10
9.451e-11
7.558e-10
8.695e-11
7.399e-10
7.982e-11
7.254e-10
7.312e-11
7.121e-10
6.685e-11
6.999e-10
6.101e-11
6.887e-10
5.558e-11
6.785e-10
5.055e-11
6.693e-10
4.59e-11
6.609e-10
4.161e-11
6.532e-10
3.767e-11
6.463e-10
3.405e-11
6.4e-10
3.074e-11
6.344e-10
2.772e-11
6.292e-10
2.496e-11
6.246e-10
2.244e-11
6.205e-10
2.016e-11
6.167e-10
1.809e-11
6.133e-10
1.622e-11
6.103e-10
1.454e-11
6.076e-10
1.303e-11
6.052e-10
1.168e-11
6.03e-10
1.048e-11
6.01e-10
9.426e-12
5.993e-10
8.505e-12
5.977e-10
7.715e-12
5.962e-10
7.048e-12
5.95e-10
6.501e-12
5.938e-10
6.069e-12
5.927e-10
5.744e-12
5.917e-10
5.521e-12
5.908e-10
5.385e-12
5.9e-10
5.321e-12
5.305e-12
9.472e-10
6.992e-11
9.668e-10
1.797e-10
9.878e-10
2.566e-10
1.004e-09
3.032e-10
1.014e-09
3.255e-10
1.016e-09
3.3e-10
1.012e-09
3.223e-10
1.002e-09
3.066e-10
9.885e-10
2.864e-10
9.722e-10
2.639e-10
9.546e-10
2.406e-10
9.363e-10
2.175e-10
9.182e-10
1.953e-10
9.007e-10
1.742e-10
8.842e-10
1.543e-10
8.689e-10
1.358e-10
8.55e-10
1.186e-10
8.426e-10
1.025e-10
8.318e-10
8.761e-11
8.225e-10
7.364e-11
8.148e-10
6.053e-11
8.087e-10
4.816e-11
8.042e-10
3.64e-11
8.013e-10
2.514e-11
7.999e-10
1.428e-11
8.002e-10
3.718e-12
8.02e-10
-6.648e-12
8.053e-10
-1.69e-11
8.103e-10
-2.713e-11
8.17e-10
-3.741e-11
8.253e-10
-4.781e-11
8.353e-10
-5.839e-11
8.47e-10
-6.921e-11
8.606e-10
-8.031e-11
8.76e-10
-9.172e-11
8.933e-10
-1.035e-10
9.126e-10
-1.156e-10
9.339e-10
-1.28e-10
9.573e-10
-1.407e-10
9.829e-10
-1.538e-10
1.011e-09
-1.67e-10
1.04e-09
-1.803e-10
1.073e-09
-1.936e-10
1.107e-09
-2.068e-10
1.143e-09
-2.195e-10
1.181e-09
-2.317e-10
1.222e-09
-2.431e-10
1.264e-09
-2.534e-10
1.307e-09
-2.621e-10
1.352e-09
-2.691e-10
1.398e-09
-2.739e-10
1.444e-09
-2.762e-10
1.49e-09
-2.755e-10
1.536e-09
-2.715e-10
1.58e-09
-2.639e-10
1.623e-09
-2.525e-10
1.663e-09
-2.37e-10
1.7e-09
-2.174e-10
1.733e-09
-1.937e-10
1.761e-09
-1.663e-10
1.785e-09
-1.356e-10
1.802e-09
-1.021e-10
1.813e-09
-6.658e-11
1.818e-09
-2.993e-11
1.817e-09
6.959e-12
1.81e-09
4.32e-11
1.796e-09
7.8e-11
1.778e-09
1.107e-10
1.754e-09
1.408e-10
1.725e-09
1.678e-10
1.693e-09
1.917e-10
1.658e-09
2.121e-10
1.619e-09
2.291e-10
1.579e-09
2.427e-10
1.536e-09
2.53e-10
1.493e-09
2.601e-10
1.449e-09
2.643e-10
1.405e-09
2.657e-10
1.361e-09
2.647e-10
1.317e-09
2.614e-10
1.274e-09
2.562e-10
1.233e-09
2.493e-10
1.193e-09
2.411e-10
1.154e-09
2.318e-10
1.117e-09
2.216e-10
1.082e-09
2.109e-10
1.048e-09
1.997e-10
1.017e-09
1.884e-10
9.872e-10
1.77e-10
9.594e-10
1.657e-10
9.334e-10
1.546e-10
9.092e-10
1.438e-10
8.867e-10
1.333e-10
8.659e-10
1.233e-10
8.466e-10
1.138e-10
8.288e-10
1.047e-10
8.124e-10
9.62e-11
7.974e-10
8.817e-11
7.836e-10
8.066e-11
7.709e-10
7.365e-11
7.594e-10
6.713e-11
7.488e-10
6.109e-11
7.392e-10
5.55e-11
7.305e-10
5.035e-11
7.226e-10
4.561e-11
7.154e-10
4.126e-11
7.088e-10
3.727e-11
7.029e-10
3.362e-11
6.976e-10
3.03e-11
6.928e-10
2.726e-11
6.884e-10
2.451e-11
6.845e-10
2.201e-11
6.81e-10
1.975e-11
6.778e-10
1.771e-11
6.75e-10
1.587e-11
6.724e-10
1.423e-11
6.701e-10
1.277e-11
6.681e-10
1.148e-11
6.662e-10
1.035e-11
6.646e-10
9.366e-12
6.631e-10
8.531e-12
6.618e-10
7.836e-12
6.606e-10
7.273e-12
6.595e-10
6.836e-12
6.585e-10
6.516e-12
6.576e-10
6.303e-12
6.567e-10
6.182e-12
6.137e-12
9.453e-10
6.209e-11
9.624e-10
1.626e-10
9.823e-10
2.367e-10
1e-09
2.853e-10
1.013e-09
3.124e-10
1.021e-09
3.227e-10
1.022e-09
3.206e-10
1.019e-09
3.099e-10
1.012e-09
2.937e-10
1.002e-09
2.742e-10
9.894e-10
2.529e-10
9.759e-10
2.31e-10
9.62e-10
2.092e-10
9.481e-10
1.881e-10
9.347e-10
1.678e-10
9.22e-10
1.485e-10
9.103e-10
1.303e-10
8.997e-10
1.131e-10
8.903e-10
9.694e-11
8.823e-10
8.165e-11
8.757e-10
6.717e-11
8.705e-10
5.338e-11
8.667e-10
4.018e-11
8.643e-10
2.747e-11
8.635e-10
1.514e-11
8.641e-10
3.087e-12
8.663e-10
-8.789e-12
8.699e-10
-2.058e-11
8.752e-10
-3.237e-11
8.82e-10
-4.425e-11
8.905e-10
-5.628e-11
9.006e-10
-6.854e-11
9.125e-10
-8.109e-11
9.262e-10
-9.398e-11
9.417e-10
-1.072e-10
9.591e-10
-1.209e-10
9.785e-10
-1.35e-10
9.999e-10
-1.494e-10
1.023e-09
-1.643e-10
1.049e-09
-1.794e-10
1.077e-09
-1.948e-10
1.107e-09
-2.103e-10
1.139e-09
-2.259e-10
1.174e-09
-2.412e-10
1.21e-09
-2.562e-10
1.249e-09
-2.705e-10
1.29e-09
-2.838e-10
1.332e-09
-2.959e-10
1.376e-09
-3.063e-10
1.422e-09
-3.146e-10
1.468e-09
-3.204e-10
1.515e-09
-3.232e-10
1.563e-09
-3.227e-10
1.609e-09
-3.183e-10
1.655e-09
-3.096e-10
1.699e-09
-2.964e-10
1.74e-09
-2.785e-10
1.779e-09
-2.556e-10
1.813e-09
-2.28e-10
1.843e-09
-1.959e-10
1.867e-09
-1.597e-10
1.885e-09
-1.202e-10
1.896e-09
-7.831e-11
1.902e-09
-3.505e-11
1.9e-09
8.45e-12
1.892e-09
5.112e-11
1.878e-09
9.201e-11
1.859e-09
1.303e-10
1.834e-09
1.655e-10
1.805e-09
1.971e-10
1.771e-09
2.249e-10
1.735e-09
2.486e-10
1.696e-09
2.684e-10
1.654e-09
2.842e-10
1.611e-09
2.961e-10
1.567e-09
3.044e-10
1.522e-09
3.092e-10
1.477e-09
3.108e-10
1.432e-09
3.095e-10
1.388e-09
3.056e-10
1.345e-09
2.995e-10
1.302e-09
2.914e-10
1.262e-09
2.818e-10
1.223e-09
2.709e-10
1.185e-09
2.59e-10
1.15e-09
2.465e-10
1.116e-09
2.335e-10
1.084e-09
2.202e-10
1.054e-09
2.069e-10
1.026e-09
1.937e-10
1e-09
1.808e-10
9.756e-10
1.682e-10
9.53e-10
1.56e-10
9.319e-10
1.443e-10
9.125e-10
1.332e-10
8.946e-10
1.227e-10
8.781e-10
1.127e-10
8.629e-10
1.034e-10
8.489e-10
9.459e-11
8.362e-10
8.641e-11
8.245e-10
7.88e-11
8.139e-10
7.175e-11
8.041e-10
6.522e-11
7.953e-10
5.92e-11
7.873e-10
5.365e-11
7.8e-10
4.856e-11
7.733e-10
4.389e-11
7.673e-10
3.962e-11
7.619e-10
3.572e-11
7.57e-10
3.216e-11
7.526e-10
2.893e-11
7.486e-10
2.599e-11
7.45e-10
2.333e-11
7.418e-10
2.093e-11
7.389e-10
1.877e-11
7.363e-10
1.683e-11
7.34e-10
1.51e-11
7.319e-10
1.357e-11
7.3e-10
1.222e-11
7.283e-10
1.104e-11
7.268e-10
1.003e-11
7.255e-10
9.181e-12
7.243e-10
8.48e-12
7.232e-10
7.924e-12
7.222e-10
7.503e-12
7.213e-10
7.208e-12
7.204e-10
7.029e-12
6.954e-12
9.44e-10
5.557e-11
9.59e-10
1.476e-10
9.776e-10
2.181e-10
9.958e-10
2.671e-10
1.011e-09
2.971e-10
1.022e-09
3.117e-10
1.028e-09
3.143e-10
1.03e-09
3.081e-10
1.028e-09
2.957e-10
1.023e-09
2.791e-10
1.016e-09
2.601e-10
1.007e-09
2.398e-10
9.972e-10
2.19e-10
9.87e-10
1.983e-10
9.767e-10
1.78e-10
9.668e-10
1.584e-10
9.575e-10
1.396e-10
9.489e-10
1.217e-10
9.413e-10
1.046e-10
9.348e-10
8.821e-11
9.293e-10
7.258e-11
9.251e-10
5.759e-11
9.222e-10
4.314e-11
9.205e-10
2.913e-11
9.202e-10
1.546e-11
9.213e-10
2.035e-12
9.237e-10
-1.124e-11
9.276e-10
-2.447e-11
9.33e-10
-3.774e-11
9.399e-10
-5.114e-11
9.483e-10
-6.474e-11
9.584e-10
-7.862e-11
9.701e-10
-9.284e-11
9.836e-10
-1.075e-10
9.989e-10
-1.225e-10
1.016e-09
-1.38e-10
1.035e-09
-1.54e-10
1.056e-09
-1.705e-10
1.079e-09
-1.874e-10
1.104e-09
-2.046e-10
1.132e-09
-2.222e-10
1.161e-09
-2.399e-10
1.193e-09
-2.576e-10
1.227e-09
-2.752e-10
1.263e-09
-2.923e-10
1.302e-09
-3.088e-10
1.342e-09
-3.241e-10
1.384e-09
-3.381e-10
1.428e-09
-3.502e-10
1.473e-09
-3.599e-10
1.52e-09
-3.668e-10
1.567e-09
-3.704e-10
1.614e-09
-3.701e-10
1.661e-09
-3.654e-10
1.708e-09
-3.558e-10
1.752e-09
-3.41e-10
1.794e-09
-3.207e-10
1.833e-09
-2.947e-10
1.868e-09
-2.631e-10
1.899e-09
-2.261e-10
1.923e-09
-1.844e-10
1.942e-09
-1.387e-10
1.954e-09
-9.02e-11
1.959e-09
-4.01e-11
1.957e-09
1.023e-11
1.949e-09
5.95e-11
1.934e-09
1.066e-10
1.914e-09
1.506e-10
1.889e-09
1.908e-10
1.859e-09
2.269e-10
1.825e-09
2.585e-10
1.788e-09
2.855e-10
1.749e-09
3.08e-10
1.707e-09
3.259e-10
1.664e-09
3.394e-10
1.619e-09
3.487e-10
1.575e-09
3.54e-10
1.53e-09
3.557e-10
1.485e-09
3.542e-10
1.441e-09
3.496e-10
1.398e-09
3.425e-10
1.356e-09
3.332e-10
1.316e-09
3.222e-10
1.277e-09
3.097e-10
1.24e-09
2.96e-10
1.205e-09
2.817e-10
1.171e-09
2.668e-10
1.14e-09
2.516e-10
1.11e-09
2.364e-10
1.083e-09
2.214e-10
1.057e-09
2.066e-10
1.033e-09
1.922e-10
1.011e-09
1.783e-10
9.899e-10
1.65e-10
9.707e-10
1.524e-10
9.531e-10
1.403e-10
9.368e-10
1.29e-10
9.219e-10
1.183e-10
9.081e-10
1.083e-10
8.956e-10
9.898e-11
8.841e-10
9.031e-11
8.736e-10
8.225e-11
8.64e-10
7.481e-11
8.552e-10
6.793e-11
8.473e-10
6.16e-11
8.401e-10
5.578e-11
8.335e-10
5.044e-11
8.276e-10
4.556e-11
8.222e-10
4.109e-11
8.174e-10
3.702e-11
8.13e-10
3.332e-11
8.09e-10
2.995e-11
8.055e-10
2.69e-11
8.023e-10
2.414e-11
7.994e-10
2.165e-11
7.968e-10
1.941e-11
7.945e-10
1.742e-11
7.924e-10
1.564e-11
7.905e-10
1.407e-11
7.889e-10
1.27e-11
7.874e-10
1.151e-11
7.861e-10
1.05e-11
7.849e-10
9.663e-12
7.838e-10
8.985e-12
7.829e-10
8.461e-12
7.82e-10
8.083e-12
7.812e-10
7.844e-12
7.739e-12
9.431e-10
5.002e-11
9.563e-10
1.344e-10
9.736e-10
2.008e-10
9.916e-10
2.491e-10
1.008e-09
2.808e-10
1.021e-09
2.984e-10
1.031e-09
3.047e-10
1.037e-09
3.022e-10
1.039e-09
2.932e-10
1.039e-09
2.796e-10
1.036e-09
2.63e-10
1.031e-09
2.445e-10
1.025e-09
2.249e-10
1.018e-09
2.05e-10
1.011e-09
1.851e-10
1.004e-09
1.655e-10
9.974e-10
1.465e-10
9.91e-10
1.281e-10
9.852e-10
1.103e-10
9.802e-10
9.32e-11
9.762e-10
7.668e-11
9.73e-10
6.07e-11
9.71e-10
4.519e-11
9.7e-10
3.006e-11
9.703e-10
1.523e-11
9.717e-10
5.842e-13
9.744e-10
-1.396e-11
9.785e-10
-2.85e-11
9.839e-10
-4.312e-11
9.906e-10
-5.793e-11
9.989e-10
-7.299e-11
1.009e-09
-8.838e-11
1.02e-09
-1.042e-10
1.033e-09
-1.204e-10
1.048e-09
-1.372e-10
1.064e-09
-1.545e-10
1.082e-09
-1.723e-10
1.103e-09
-1.907e-10
1.125e-09
-2.095e-10
1.149e-09
-2.288e-10
1.175e-09
-2.485e-10
1.204e-09
-2.683e-10
1.234e-09
-2.882e-10
1.267e-09
-3.08e-10
1.302e-09
-3.273e-10
1.339e-09
-3.458e-10
1.378e-09
-3.633e-10
1.419e-09
-3.791e-10
1.462e-09
-3.93e-10
1.506e-09
-4.042e-10
1.552e-09
-4.124e-10
1.598e-09
-4.168e-10
1.645e-09
-4.169e-10
1.692e-09
-4.12e-10
1.738e-09
-4.017e-10
1.782e-09
-3.855e-10