/*--------------------------------*- C++ -*----------------------------------*\
  =========                 |
  \\      /  F ield         | OpenFOAM: The Open Source CFD Toolbox
   \\    /   O peration     | Website:  https://openfoam.org
    \\  /    A nd           | Version:  7
     \\/     M anipulation  |
\*---------------------------------------------------------------------------*/
FoamFile
{
    version     2.0;
    format      ascii;
    class       volVectorField;
    location    "1679.99947342491805";
    object      U;
}
// * * * * * * * * * * * * * * * * * * * * * * * * * * * * * * * * * * * * * //

dimensions      [0 1 -1 0 0 0 0];

internalField   nonuniform List<vector> 
4096
(
(0.001039 0.0001611 0)
(0.0007463 0.0001314 0)
(0.0005302 8.473e-05 0)
(0.0003919 5.358e-05 0)
(0.0003036 3.466e-05 0)
(0.0002457 2.328e-05 0)
(0.0002061 1.633e-05 0)
(0.0001778 1.194e-05 0)
(0.0001568 9.056e-06 0)
(0.0001407 7.068e-06 0)
(0.000128 5.64e-06 0)
(0.0001178 4.577e-06 0)
(0.0001094 3.761e-06 0)
(0.0001025 3.119e-06 0)
(9.682e-05 2.602e-06 0)
(9.204e-05 2.178e-06 0)
(8.804e-05 1.824e-06 0)
(8.469e-05 1.524e-06 0)
(8.19e-05 1.266e-06 0)
(7.96e-05 1.042e-06 0)
(7.771e-05 8.433e-07 0)
(7.62e-05 6.657e-07 0)
(7.503e-05 5.044e-07 0)
(7.417e-05 3.558e-07 0)
(7.36e-05 2.17e-07 0)
(7.33e-05 8.537e-08 0)
(7.325e-05 -4.114e-08 0)
(7.346e-05 -1.644e-07 0)
(7.391e-05 -2.861e-07 0)
(7.46e-05 -4.077e-07 0)
(7.554e-05 -5.304e-07 0)
(7.673e-05 -6.553e-07 0)
(7.816e-05 -7.835e-07 0)
(7.986e-05 -9.156e-07 0)
(8.183e-05 -1.052e-06 0)
(8.408e-05 -1.195e-06 0)
(8.662e-05 -1.342e-06 0)
(8.945e-05 -1.495e-06 0)
(9.26e-05 -1.654e-06 0)
(9.607e-05 -1.818e-06 0)
(9.988e-05 -1.986e-06 0)
(0.000104 -2.157e-06 0)
(0.0001085 -2.329e-06 0)
(0.0001133 -2.502e-06 0)
(0.0001185 -2.671e-06 0)
(0.000124 -2.835e-06 0)
(0.0001298 -2.99e-06 0)
(0.000136 -3.131e-06 0)
(0.0001423 -3.254e-06 0)
(0.000149 -3.355e-06 0)
(0.0001557 -3.428e-06 0)
(0.0001626 -3.468e-06 0)
(0.0001696 -3.469e-06 0)
(0.0001765 -3.427e-06 0)
(0.0001832 -3.337e-06 0)
(0.0001898 -3.196e-06 0)
(0.000196 -3.001e-06 0)
(0.0002017 -2.752e-06 0)
(0.0002069 -2.451e-06 0)
(0.0002115 -2.1e-06 0)
(0.0002153 -1.707e-06 0)
(0.0002183 -1.277e-06 0)
(0.0002204 -8.225e-07 0)
(0.0002215 -3.529e-07 0)
(0.0002218 1.198e-07 0)
(0.0002211 5.842e-07 0)
(0.0002195 1.03e-06 0)
(0.000217 1.448e-06 0)
(0.0002137 1.83e-06 0)
(0.0002097 2.173e-06 0)
(0.0002051 2.471e-06 0)
(0.0001999 2.723e-06 0)
(0.0001942 2.929e-06 0)
(0.0001882 3.089e-06 0)
(0.0001819 3.205e-06 0)
(0.0001754 3.28e-06 0)
(0.0001688 3.315e-06 0)
(0.0001622 3.315e-06 0)
(0.0001556 3.284e-06 0)
(0.0001491 3.224e-06 0)
(0.0001427 3.142e-06 0)
(0.0001365 3.039e-06 0)
(0.0001306 2.921e-06 0)
(0.0001249 2.79e-06 0)
(0.0001194 2.651e-06 0)
(0.0001143 2.506e-06 0)
(0.0001094 2.357e-06 0)
(0.0001048 2.208e-06 0)
(0.0001006 2.06e-06 0)
(9.659e-05 1.915e-06 0)
(9.29e-05 1.773e-06 0)
(8.949e-05 1.637e-06 0)
(8.635e-05 1.507e-06 0)
(8.346e-05 1.384e-06 0)
(8.08e-05 1.267e-06 0)
(7.838e-05 1.157e-06 0)
(7.617e-05 1.055e-06 0)
(7.415e-05 9.591e-07 0)
(7.233e-05 8.704e-07 0)
(7.067e-05 7.884e-07 0)
(6.917e-05 7.128e-07 0)
(6.781e-05 6.433e-07 0)
(6.659e-05 5.797e-07 0)
(6.549e-05 5.214e-07 0)
(6.45e-05 4.683e-07 0)
(6.361e-05 4.199e-07 0)
(6.281e-05 3.759e-07 0)
(6.21e-05 3.361e-07 0)
(6.146e-05 3e-07 0)
(6.09e-05 2.674e-07 0)
(6.039e-05 2.38e-07 0)
(5.994e-05 2.117e-07 0)
(5.954e-05 1.881e-07 0)
(5.919e-05 1.67e-07 0)
(5.887e-05 1.484e-07 0)
(5.859e-05 1.32e-07 0)
(5.834e-05 1.178e-07 0)
(5.812e-05 1.057e-07 0)
(5.792e-05 9.584e-08 0)
(5.773e-05 8.817e-08 0)
(5.756e-05 8.293e-08 0)
(5.74e-05 8.052e-08 0)
(5.723e-05 8.164e-08 0)
(5.707e-05 8.764e-08 0)
(5.688e-05 1.011e-07 0)
(5.665e-05 1.261e-07 0)
(5.636e-05 1.675e-07 0)
(5.597e-05 2.177e-07 0)
(0.001209 0.0003128 0)
(0.001154 0.0003282 0)
(0.00101 0.000248 0)
(0.0008613 0.0001771 0)
(0.0007345 0.0001262 0)
(0.0006327 9.145e-05 0)
(0.0005526 6.79e-05 0)
(0.0004895 5.175e-05 0)
(0.0004393 4.04e-05 0)
(0.000399 3.218e-05 0)
(0.0003662 2.606e-05 0)
(0.0003392 2.138e-05 0)
(0.0003167 1.771e-05 0)
(0.000298 1.478e-05 0)
(0.0002823 1.239e-05 0)
(0.0002691 1.041e-05 0)
(0.0002579 8.746e-06 0)
(0.0002485 7.329e-06 0)
(0.0002407 6.104e-06 0)
(0.0002341 5.032e-06 0)
(0.0002288 4.082e-06 0)
(0.0002245 3.228e-06 0)
(0.0002212 2.451e-06 0)
(0.0002187 1.735e-06 0)
(0.0002171 1.064e-06 0)
(0.0002162 4.276e-07 0)
(0.000216 -1.842e-07 0)
(0.0002166 -7.803e-07 0)
(0.0002178 -1.368e-06 0)
(0.0002197 -1.955e-06 0)
(0.0002224 -2.546e-06 0)
(0.0002257 -3.147e-06 0)
(0.0002297 -3.763e-06 0)
(0.0002345 -4.396e-06 0)
(0.00024 -5.05e-06 0)
(0.0002463 -5.727e-06 0)
(0.0002534 -6.429e-06 0)
(0.0002613 -7.156e-06 0)
(0.00027 -7.907e-06 0)
(0.0002797 -8.679e-06 0)
(0.0002902 -9.469e-06 0)
(0.0003017 -1.027e-05 0)
(0.0003141 -1.108e-05 0)
(0.0003274 -1.188e-05 0)
(0.0003416 -1.267e-05 0)
(0.0003567 -1.343e-05 0)
(0.0003726 -1.414e-05 0)
(0.0003892 -1.478e-05 0)
(0.0004066 -1.534e-05 0)
(0.0004245 -1.58e-05 0)
(0.0004429 -1.612e-05 0)
(0.0004615 -1.628e-05 0)
(0.0004802 -1.626e-05 0)
(0.0004987 -1.605e-05 0)
(0.0005168 -1.561e-05 0)
(0.0005343 -1.493e-05 0)
(0.0005508 -1.401e-05 0)
(0.0005661 -1.283e-05 0)
(0.00058 -1.142e-05 0)
(0.0005921 -9.789e-06 0)
(0.0006022 -7.956e-06 0)
(0.0006102 -5.963e-06 0)
(0.0006158 -3.853e-06 0)
(0.000619 -1.675e-06 0)
(0.0006197 5.184e-07 0)
(0.0006179 2.675e-06 0)
(0.0006137 4.749e-06 0)
(0.0006072 6.698e-06 0)
(0.0005986 8.488e-06 0)
(0.000588 1.009e-05 0)
(0.0005757 1.15e-05 0)
(0.0005619 1.27e-05 0)
(0.0005468 1.368e-05 0)
(0.0005307 1.445e-05 0)
(0.0005138 1.501e-05 0)
(0.0004964 1.538e-05 0)
(0.0004786 1.557e-05 0)
(0.0004607 1.56e-05 0)
(0.0004429 1.547e-05 0)
(0.0004252 1.522e-05 0)
(0.0004079 1.485e-05 0)
(0.000391 1.439e-05 0)
(0.0003747 1.385e-05 0)
(0.000359 1.325e-05 0)
(0.000344 1.261e-05 0)
(0.0003298 1.193e-05 0)
(0.0003164 1.124e-05 0)
(0.0003037 1.055e-05 0)
(0.0002918 9.855e-06 0)
(0.0002808 9.173e-06 0)
(0.0002705 8.51e-06 0)
(0.0002609 7.869e-06 0)
(0.0002521 7.254e-06 0)
(0.0002439 6.669e-06 0)
(0.0002364 6.115e-06 0)
(0.0002296 5.594e-06 0)
(0.0002233 5.105e-06 0)
(0.0002176 4.65e-06 0)
(0.0002124 4.226e-06 0)
(0.0002076 3.833e-06 0)
(0.0002033 3.471e-06 0)
(0.0001994 3.137e-06 0)
(0.0001959 2.831e-06 0)
(0.0001927 2.551e-06 0)
(0.0001899 2.294e-06 0)
(0.0001873 2.061e-06 0)
(0.000185 1.848e-06 0)
(0.0001829 1.655e-06 0)
(0.000181 1.48e-06 0)
(0.0001793 1.321e-06 0)
(0.0001779 1.178e-06 0)
(0.0001765 1.05e-06 0)
(0.0001753 9.349e-07 0)
(0.0001743 8.321e-07 0)
(0.0001733 7.409e-07 0)
(0.0001725 6.606e-07 0)
(0.0001718 5.909e-07 0)
(0.0001711 5.315e-07 0)
(0.0001705 4.823e-07 0)
(0.0001699 4.437e-07 0)
(0.0001694 4.163e-07 0)
(0.0001689 4.015e-07 0)
(0.0001684 4.013e-07 0)
(0.0001679 4.194e-07 0)
(0.0001674 4.616e-07 0)
(0.0001669 5.359e-07 0)
(0.0001663 6.463e-07 0)
(0.0001657 7.616e-07 0)
(0.001226 0.0002775 0)
(0.001243 0.0004027 0)
(0.001194 0.0003664 0)
(0.001102 0.0002982 0)
(0.0009997 0.0002345 0)
(0.0009016 0.0001831 0)
(0.0008144 0.0001437 0)
(0.0007393 0.0001141 0)
(0.0006756 9.181e-05 0)
(0.0006219 7.478e-05 0)
(0.0005767 6.156e-05 0)
(0.0005384 5.113e-05 0)
(0.000506 4.277e-05 0)
(0.0004785 3.596e-05 0)
(0.0004551 3.033e-05 0)
(0.0004352 2.561e-05 0)
(0.0004183 2.16e-05 0)
(0.000404 1.816e-05 0)
(0.0003919 1.517e-05 0)
(0.0003819 1.254e-05 0)
(0.0003736 1.019e-05 0)
(0.0003669 8.073e-06 0)
(0.0003618 6.14e-06 0)
(0.0003579 4.352e-06 0)
(0.0003553 2.676e-06 0)
(0.000354 1.083e-06 0)
(0.0003537 -4.493e-07 0)
(0.0003546 -1.943e-06 0)
(0.0003566 -3.416e-06 0)
(0.0003596 -4.886e-06 0)
(0.0003637 -6.365e-06 0)
(0.0003689 -7.867e-06 0)
(0.0003753 -9.402e-06 0)
(0.0003827 -1.098e-05 0)
(0.0003914 -1.261e-05 0)
(0.0004012 -1.429e-05 0)
(0.0004123 -1.603e-05 0)
(0.0004246 -1.782e-05 0)
(0.0004383 -1.968e-05 0)
(0.0004533 -2.158e-05 0)
(0.0004697 -2.352e-05 0)
(0.0004875 -2.548e-05 0)
(0.0005067 -2.746e-05 0)
(0.0005273 -2.941e-05 0)
(0.0005493 -3.133e-05 0)
(0.0005726 -3.316e-05 0)
(0.0005972 -3.488e-05 0)
(0.0006229 -3.643e-05 0)
(0.0006496 -3.777e-05 0)
(0.0006771 -3.884e-05 0)
(0.0007053 -3.958e-05 0)
(0.0007338 -3.994e-05 0)
(0.0007624 -3.986e-05 0)
(0.0007907 -3.929e-05 0)
(0.0008184 -3.818e-05 0)
(0.0008451 -3.649e-05 0)
(0.0008703 -3.422e-05 0)
(0.0008937 -3.134e-05 0)
(0.0009148 -2.789e-05 0)
(0.0009333 -2.39e-05 0)
(0.0009487 -1.943e-05 0)
(0.0009609 -1.458e-05 0)
(0.0009695 -9.448e-06 0)
(0.0009744 -4.152e-06 0)
(0.0009755 1.183e-06 0)
(0.0009729 6.435e-06 0)
(0.0009666 1.149e-05 0)
(0.0009568 1.625e-05 0)
(0.0009437 2.063e-05 0)
(0.0009277 2.457e-05 0)
(0.000909 2.803e-05 0)
(0.000888 3.098e-05 0)
(0.000865 3.341e-05 0)
(0.0008405 3.533e-05 0)
(0.0008147 3.676e-05 0)
(0.0007881 3.771e-05 0)
(0.0007609 3.822e-05 0)
(0.0007334 3.833e-05 0)
(0.0007059 3.807e-05 0)
(0.0006788 3.748e-05 0)
(0.000652 3.662e-05 0)
(0.000626 3.552e-05 0)
(0.0006008 3.424e-05 0)
(0.0005765 3.28e-05 0)
(0.0005533 3.125e-05 0)
(0.0005312 2.962e-05 0)
(0.0005103 2.794e-05 0)
(0.0004906 2.624e-05 0)
(0.000472 2.455e-05 0)
(0.0004547 2.288e-05 0)
(0.0004386 2.125e-05 0)
(0.0004236 1.967e-05 0)
(0.0004097 1.816e-05 0)
(0.0003969 1.672e-05 0)
(0.0003851 1.535e-05 0)
(0.0003743 1.406e-05 0)
(0.0003643 1.285e-05 0)
(0.0003553 1.171e-05 0)
(0.000347 1.066e-05 0)
(0.0003394 9.681e-06 0)
(0.0003326 8.777e-06 0)
(0.0003264 7.944e-06 0)
(0.0003207 7.178e-06 0)
(0.0003156 6.475e-06 0)
(0.000311 5.832e-06 0)
(0.0003069 5.245e-06 0)
(0.0003032 4.71e-06 0)
(0.0002998 4.224e-06 0)
(0.0002968 3.783e-06 0)
(0.0002941 3.383e-06 0)
(0.0002917 3.023e-06 0)
(0.0002895 2.698e-06 0)
(0.0002876 2.406e-06 0)
(0.0002859 2.145e-06 0)
(0.0002843 1.914e-06 0)
(0.0002829 1.709e-06 0)
(0.0002817 1.531e-06 0)
(0.0002806 1.379e-06 0)
(0.0002796 1.251e-06 0)
(0.0002787 1.15e-06 0)
(0.0002778 1.075e-06 0)
(0.000277 1.029e-06 0)
(0.0002763 1.014e-06 0)
(0.0002755 1.035e-06 0)
(0.0002748 1.097e-06 0)
(0.000274 1.204e-06 0)
(0.0002732 1.348e-06 0)
(0.0002725 1.473e-06 0)
(0.001224 0.0002275 0)
(0.00126 0.0004003 0)
(0.001258 0.0004193 0)
(0.001216 0.0003789 0)
(0.001149 0.0003229 0)
(0.001073 0.0002685 0)
(0.0009975 0.0002215 0)
(0.0009262 0.0001827 0)
(0.0008617 0.0001514 0)
(0.0008045 0.0001261 0)
(0.0007544 0.0001056 0)
(0.0007107 8.896e-05 0)
(0.0006729 7.522e-05 0)
(0.0006401 6.379e-05 0)
(0.0006118 5.419e-05 0)
(0.0005874 4.602e-05 0)
(0.0005665 3.901e-05 0)
(0.0005487 3.292e-05 0)
(0.0005335 2.758e-05 0)
(0.0005209 2.285e-05 0)
(0.0005104 1.861e-05 0)
(0.0005019 1.477e-05 0)
(0.0004953 1.124e-05 0)
(0.0004904 7.971e-06 0)
(0.0004872 4.893e-06 0)
(0.0004854 1.962e-06 0)
(0.0004852 -8.63e-07 0)
(0.0004864 -3.62e-06 0)
(0.0004891 -6.34e-06 0)
(0.0004931 -9.053e-06 0)
(0.0004986 -1.178e-05 0)
(0.0005055 -1.455e-05 0)
(0.0005138 -1.738e-05 0)
(0.0005236 -2.029e-05 0)
(0.000535 -2.328e-05 0)
(0.0005479 -2.637e-05 0)
(0.0005624 -2.955e-05 0)
(0.0005786 -3.284e-05 0)
(0.0005965 -3.622e-05 0)
(0.0006161 -3.969e-05 0)
(0.0006376 -4.322e-05 0)
(0.0006608 -4.679e-05 0)
(0.0006858 -5.037e-05 0)
(0.0007126 -5.391e-05 0)
(0.0007411 -5.737e-05 0)
(0.0007714 -6.067e-05 0)
(0.0008032 -6.375e-05 0)
(0.0008365 -6.653e-05 0)
(0.000871 -6.891e-05 0)
(0.0009066 -7.08e-05 0)
(0.0009429 -7.21e-05 0)
(0.0009797 -7.27e-05 0)
(0.001016 -7.251e-05 0)
(0.001053 -7.143e-05 0)
(0.001089 -6.937e-05 0)
(0.001123 -6.628e-05 0)
(0.001155 -6.212e-05 0)
(0.001185 -5.689e-05 0)
(0.001213 -5.062e-05 0)
(0.001236 -4.338e-05 0)
(0.001256 -3.529e-05 0)
(0.001272 -2.651e-05 0)
(0.001283 -1.722e-05 0)
(0.001289 -7.631e-06 0)
(0.001291 2.026e-06 0)
(0.001288 1.154e-05 0)
(0.001279 2.07e-05 0)
(0.001267 2.933e-05 0)
(0.00125 3.728e-05 0)
(0.00123 4.445e-05 0)
(0.001206 5.076e-05 0)
(0.001179 5.616e-05 0)
(0.00115 6.063e-05 0)
(0.001118 6.417e-05 0)
(0.001085 6.682e-05 0)
(0.001051 6.861e-05 0)
(0.001015 6.96e-05 0)
(0.00098 6.986e-05 0)
(0.0009446 6.945e-05 0)
(0.0009094 6.845e-05 0)
(0.0008748 6.694e-05 0)
(0.0008411 6.5e-05 0)
(0.0008083 6.271e-05 0)
(0.0007768 6.013e-05 0)
(0.0007466 5.734e-05 0)
(0.0007178 5.441e-05 0)
(0.0006905 5.138e-05 0)
(0.0006647 4.831e-05 0)
(0.0006405 4.524e-05 0)
(0.0006177 4.221e-05 0)
(0.0005966 3.925e-05 0)
(0.0005769 3.638e-05 0)
(0.0005586 3.361e-05 0)
(0.0005417 3.097e-05 0)
(0.0005261 2.847e-05 0)
(0.0005118 2.61e-05 0)
(0.0004986 2.388e-05 0)
(0.0004866 2.18e-05 0)
(0.0004756 1.986e-05 0)
(0.0004656 1.805e-05 0)
(0.0004564 1.639e-05 0)
(0.0004481 1.485e-05 0)
(0.0004406 1.343e-05 0)
(0.0004338 1.213e-05 0)
(0.0004276 1.094e-05 0)
(0.000422 9.85e-06 0)
(0.000417 8.856e-06 0)
(0.0004125 7.952e-06 0)
(0.0004084 7.131e-06 0)
(0.0004048 6.386e-06 0)
(0.0004015 5.713e-06 0)
(0.0003986 5.106e-06 0)
(0.000396 4.56e-06 0)
(0.0003936 4.071e-06 0)
(0.0003915 3.637e-06 0)
(0.0003896 3.252e-06 0)
(0.0003879 2.916e-06 0)
(0.0003864 2.627e-06 0)
(0.000385 2.383e-06 0)
(0.0003838 2.185e-06 0)
(0.0003826 2.033e-06 0)
(0.0003816 1.93e-06 0)
(0.0003806 1.877e-06 0)
(0.0003796 1.878e-06 0)
(0.0003787 1.935e-06 0)
(0.0003778 2.043e-06 0)
(0.0003769 2.182e-06 0)
(0.000376 2.293e-06 0)
(0.001219 0.0001846 0)
(0.001255 0.0003713 0)
(0.001275 0.0004301 0)
(0.001265 0.000421 0)
(0.001229 0.0003827 0)
(0.001178 0.0003354 0)
(0.00112 0.0002887 0)
(0.00106 0.0002464 0)
(0.001003 0.0002098 0)
(0.000949 0.0001786 0)
(0.0008999 0.0001523 0)
(0.0008557 0.0001301 0)
(0.0008164 0.0001113 0)
(0.0007817 9.527e-05 0)
(0.0007511 8.154e-05 0)
(0.0007245 6.97e-05 0)
(0.0007013 5.939e-05 0)
(0.0006814 5.034e-05 0)
(0.0006643 4.233e-05 0)
(0.00065 3.517e-05 0)
(0.000638 2.87e-05 0)
(0.0006284 2.28e-05 0)
(0.0006208 1.736e-05 0)
(0.0006153 1.229e-05 0)
(0.0006116 7.504e-06 0)
(0.0006098 2.932e-06 0)
(0.0006096 -1.486e-06 0)
(0.0006112 -5.803e-06 0)
(0.0006145 -1.007e-05 0)
(0.0006195 -1.433e-05 0)
(0.0006261 -1.861e-05 0)
(0.0006344 -2.296e-05 0)
(0.0006445 -2.739e-05 0)
(0.0006563 -3.194e-05 0)
(0.00067 -3.662e-05 0)
(0.0006855 -4.145e-05 0)
(0.0007029 -4.642e-05 0)
(0.0007223 -5.155e-05 0)
(0.0007437 -5.682e-05 0)
(0.0007672 -6.221e-05 0)
(0.0007928 -6.769e-05 0)
(0.0008205 -7.323e-05 0)
(0.0008503 -7.877e-05 0)
(0.0008822 -8.424e-05 0)
(0.0009162 -8.957e-05 0)
(0.0009521 -9.466e-05 0)
(0.00099 -9.939e-05 0)
(0.001029 -0.0001036 0)
(0.00107 -0.0001073 0)
(0.001113 -0.0001102 0)
(0.001156 -0.0001121 0)
(0.001199 -0.000113 0)
(0.001243 -0.0001127 0)
(0.001286 -0.0001109 0)
(0.001328 -0.0001077 0)
(0.001369 -0.0001029 0)
(0.001407 -9.641e-05 0)
(0.001443 -8.828e-05 0)
(0.001475 -7.855e-05 0)
(0.001503 -6.734e-05 0)
(0.001527 -5.48e-05 0)
(0.001545 -4.12e-05 0)
(0.001559 -2.681e-05 0)
(0.001566 -1.196e-05 0)
(0.001568 2.995e-06 0)
(0.001564 1.773e-05 0)
(0.001555 3.193e-05 0)
(0.00154 4.531e-05 0)
(0.00152 5.766e-05 0)
(0.001496 6.88e-05 0)
(0.001468 7.861e-05 0)
(0.001436 8.702e-05 0)
(0.001401 9.4e-05 0)
(0.001364 9.956e-05 0)
(0.001325 0.0001037 0)
(0.001284 0.0001066 0)
(0.001243 0.0001082 0)
(0.001201 0.0001087 0)
(0.001159 0.0001081 0)
(0.001117 0.0001067 0)
(0.001076 0.0001044 0)
(0.001036 0.0001014 0)
(0.0009968 9.795e-05 0)
(0.0009592 9.4e-05 0)
(0.0009232 8.972e-05 0)
(0.0008888 8.52e-05 0)
(0.0008562 8.053e-05 0)
(0.0008253 7.579e-05 0)
(0.0007963 7.104e-05 0)
(0.000769 6.634e-05 0)
(0.0007436 6.174e-05 0)
(0.0007199 5.728e-05 0)
(0.0006979 5.298e-05 0)
(0.0006776 4.886e-05 0)
(0.0006588 4.495e-05 0)
(0.0006415 4.126e-05 0)
(0.0006256 3.778e-05 0)
(0.000611 3.452e-05 0)
(0.0005976 3.148e-05 0)
(0.0005854 2.865e-05 0)
(0.0005743 2.603e-05 0)
(0.0005642 2.361e-05 0)
(0.0005551 2.138e-05 0)
(0.0005467 1.933e-05 0)
(0.0005392 1.745e-05 0)
(0.0005324 1.573e-05 0)
(0.0005262 1.416e-05 0)
(0.0005207 1.272e-05 0)
(0.0005157 1.142e-05 0)
(0.0005112 1.024e-05 0)
(0.0005071 9.173e-06 0)
(0.0005035 8.208e-06 0)
(0.0005002 7.339e-06 0)
(0.0004973 6.56e-06 0)
(0.0004947 5.865e-06 0)
(0.0004924 5.25e-06 0)
(0.0004903 4.71e-06 0)
(0.0004884 4.242e-06 0)
(0.0004867 3.844e-06 0)
(0.0004851 3.516e-06 0)
(0.0004837 3.256e-06 0)
(0.0004824 3.066e-06 0)
(0.0004812 2.948e-06 0)
(0.0004801 2.9e-06 0)
(0.000479 2.921e-06 0)
(0.000478 3.001e-06 0)
(0.000477 3.113e-06 0)
(0.000476 3.201e-06 0)
(0.001214 0.000152 0)
(0.001246 0.0003354 0)
(0.001274 0.0004182 0)
(0.001282 0.0004354 0)
(0.001269 0.0004168 0)
(0.00124 0.0003816 0)
(0.0012 0.0003405 0)
(0.001154 0.0002996 0)
(0.001107 0.0002615 0)
(0.001061 0.0002272 0)
(0.001016 0.0001971 0)
(0.0009752 0.0001707 0)
(0.0009375 0.0001477 0)
(0.0009034 0.0001277 0)
(0.0008729 0.0001102 0)
(0.0008459 9.479e-05 0)
(0.0008221 8.122e-05 0)
(0.0008014 6.916e-05 0)
(0.0007836 5.836e-05 0)
(0.0007685 4.862e-05 0)
(0.0007559 3.976e-05 0)
(0.0007456 3.162e-05 0)
(0.0007377 2.407e-05 0)
(0.0007318 1.699e-05 0)
(0.000728 1.028e-05 0)
(0.0007262 3.846e-06 0)
(0.0007263 -2.387e-06 0)
(0.0007283 -8.491e-06 0)
(0.0007322 -1.453e-05 0)
(0.0007379 -2.057e-05 0)
(0.0007456 -2.664e-05 0)
(0.0007551 -3.281e-05 0)
(0.0007666 -3.91e-05 0)
(0.0007801 -4.555e-05 0)
(0.0007956 -5.218e-05 0)
(0.0008132 -5.902e-05 0)
(0.000833 -6.605e-05 0)
(0.000855 -7.33e-05 0)
(0.0008792 -8.073e-05 0)
(0.0009058 -8.833e-05 0)
(0.0009347 -9.605e-05 0)
(0.000966 -0.0001038 0)
(0.0009996 -0.0001116 0)
(0.001036 -0.0001193 0)
(0.001074 -0.0001268 0)
(0.001114 -0.0001339 0)
(0.001157 -0.0001405 0)
(0.001202 -0.0001465 0)
(0.001248 -0.0001516 0)
(0.001295 -0.0001556 0)
(0.001344 -0.0001583 0)
(0.001393 -0.0001595 0)
(0.001442 -0.0001589 0)
(0.00149 -0.0001565 0)
(0.001538 -0.0001519 0)
(0.001584 -0.0001451 0)
(0.001627 -0.000136 0)
(0.001667 -0.0001245 0)
(0.001704 -0.0001108 0)
(0.001736 -9.503e-05 0)
(0.001762 -7.737e-05 0)
(0.001783 -5.821e-05 0)
(0.001798 -3.793e-05 0)
(0.001807 -1.701e-05 0)
(0.001809 4.069e-06 0)
(0.001805 2.483e-05 0)
(0.001794 4.483e-05 0)
(0.001777 6.369e-05 0)
(0.001755 8.11e-05 0)
(0.001728 9.68e-05 0)
(0.001696 0.0001106 0)
(0.00166 0.0001225 0)
(0.001621 0.0001324 0)
(0.001579 0.0001403 0)
(0.001535 0.0001463 0)
(0.00149 0.0001504 0)
(0.001443 0.0001527 0)
(0.001396 0.0001535 0)
(0.001348 0.0001528 0)
(0.001301 0.0001508 0)
(0.001255 0.0001477 0)
(0.00121 0.0001436 0)
(0.001166 0.0001387 0)
(0.001123 0.0001332 0)
(0.001082 0.0001272 0)
(0.001044 0.0001209 0)
(0.001007 0.0001144 0)
(0.0009717 0.0001077 0)
(0.0009388 0.0001011 0)
(0.0009079 9.444e-05 0)
(0.0008791 8.796e-05 0)
(0.0008521 8.167e-05 0)
(0.0008271 7.56e-05 0)
(0.0008039 6.979e-05 0)
(0.0007825 6.425e-05 0)
(0.0007628 5.902e-05 0)
(0.0007446 5.409e-05 0)
(0.0007279 4.947e-05 0)
(0.0007126 4.515e-05 0)
(0.0006987 4.113e-05 0)
(0.0006859 3.74e-05 0)
(0.0006743 3.395e-05 0)
(0.0006637 3.077e-05 0)
(0.0006541 2.785e-05 0)
(0.0006454 2.516e-05 0)
(0.0006376 2.27e-05 0)
(0.0006305 2.045e-05 0)
(0.000624 1.84e-05 0)
(0.0006182 1.654e-05 0)
(0.000613 1.484e-05 0)
(0.0006083 1.331e-05 0)
(0.0006041 1.192e-05 0)
(0.0006003 1.067e-05 0)
(0.0005969 9.545e-06 0)
(0.0005939 8.541e-06 0)
(0.0005911 7.65e-06 0)
(0.0005887 6.864e-06 0)
(0.0005865 6.18e-06 0)
(0.0005845 5.594e-06 0)
(0.0005827 5.103e-06 0)
(0.0005811 4.705e-06 0)
(0.0005796 4.4e-06 0)
(0.0005782 4.186e-06 0)
(0.0005769 4.061e-06 0)
(0.0005758 4.019e-06 0)
(0.0005746 4.047e-06 0)
(0.0005736 4.117e-06 0)
(0.0005726 4.177e-06 0)
(0.00121 0.0001279 0)
(0.001237 0.0003007 0)
(0.001267 0.0003956 0)
(0.001284 0.000432 0)
(0.001286 0.0004312 0)
(0.001274 0.0004092 0)
(0.00125 0.0003767 0)
(0.001218 0.0003403 0)
(0.001183 0.0003037 0)
(0.001145 0.0002689 0)
(0.001108 0.000237 0)
(0.001072 0.000208 0)
(0.001038 0.000182 0)
(0.001007 0.0001588 0)
(0.0009778 0.0001382 0)
(0.000952 0.0001197 0)
(0.000929 0.0001031 0)
(0.0009087 8.821e-05 0)
(0.0008911 7.472e-05 0)
(0.000876 6.242e-05 0)
(0.0008635 5.114e-05 0)
(0.0008532 4.069e-05 0)
(0.0008453 3.094e-05 0)
(0.0008395 2.175e-05 0)
(0.0008358 1.299e-05 0)
(0.0008342 4.56e-06 0)
(0.0008347 -3.633e-06 0)
(0.0008371 -1.168e-05 0)
(0.0008415 -1.966e-05 0)
(0.000848 -2.763e-05 0)
(0.0008564 -3.568e-05 0)
(0.000867 -4.384e-05 0)
(0.0008796 -5.218e-05 0)
(0.0008943 -6.072e-05 0)
(0.0009113 -6.95e-05 0)
(0.0009305 -7.854e-05 0)
(0.0009521 -8.785e-05 0)
(0.000976 -9.742e-05 0)
(0.001002 -0.0001072 0)
(0.001031 -0.0001173 0)
(0.001063 -0.0001274 0)
(0.001097 -0.0001377 0)
(0.001133 -0.000148 0)
(0.001172 -0.0001581 0)
(0.001214 -0.0001679 0)
(0.001258 -0.0001773 0)
(0.001304 -0.000186 0)
(0.001352 -0.0001938 0)
(0.001403 -0.0002005 0)
(0.001454 -0.0002057 0)
(0.001507 -0.0002093 0)
(0.00156 -0.0002109 0)
(0.001614 -0.0002102 0)
(0.001667 -0.0002069 0)
(0.001719 -0.0002009 0)
(0.001769 -0.0001919 0)
(0.001816 -0.0001799 0)
(0.00186 -0.0001648 0)
(0.0019 -0.0001467 0)
(0.001935 -0.0001258 0)
(0.001964 -0.0001025 0)
(0.001987 -7.714e-05 0)
(0.002003 -5.032e-05 0)
(0.002013 -2.263e-05 0)
(0.002015 5.256e-06 0)
(0.00201 3.272e-05 0)
(0.001999 5.916e-05 0)
(0.001981 8.409e-05 0)
(0.001956 0.0001071 0)
(0.001927 0.0001278 0)
(0.001892 0.0001461 0)
(0.001853 0.0001618 0)
(0.00181 0.0001749 0)
(0.001765 0.0001854 0)
(0.001717 0.0001933 0)
(0.001667 0.0001988 0)
(0.001616 0.0002019 0)
(0.001565 0.000203 0)
(0.001513 0.0002021 0)
(0.001462 0.0001996 0)
(0.001412 0.0001955 0)
(0.001362 0.0001902 0)
(0.001315 0.0001839 0)
(0.001268 0.0001767 0)
(0.001224 0.0001688 0)
(0.001182 0.0001605 0)
(0.001142 0.0001519 0)
(0.001103 0.0001432 0)
(0.001068 0.0001344 0)
(0.001034 0.0001257 0)
(0.001002 0.0001171 0)
(0.000973 0.0001088 0)
(0.0009456 0.0001008 0)
(0.0009203 9.312e-05 0)
(0.0008968 8.58e-05 0)
(0.0008752 7.887e-05 0)
(0.0008553 7.234e-05 0)
(0.000837 6.621e-05 0)
(0.0008202 6.047e-05 0)
(0.0008048 5.513e-05 0)
(0.0007908 5.018e-05 0)
(0.000778 4.559e-05 0)
(0.0007663 4.135e-05 0)
(0.0007557 3.745e-05 0)
(0.0007461 3.387e-05 0)
(0.0007374 3.058e-05 0)
(0.0007295 2.758e-05 0)
(0.0007224 2.484e-05 0)
(0.000716 2.234e-05 0)
(0.0007102 2.007e-05 0)
(0.0007049 1.801e-05 0)
(0.0007002 1.614e-05 0)
(0.000696 1.446e-05 0)
(0.0006922 1.295e-05 0)
(0.0006888 1.159e-05 0)
(0.0006858 1.039e-05 0)
(0.000683 9.322e-06 0)
(0.0006806 8.389e-06 0)
(0.0006783 7.583e-06 0)
(0.0006763 6.901e-06 0)
(0.0006745 6.337e-06 0)
(0.0006729 5.889e-06 0)
(0.0006714 5.554e-06 0)
(0.0006701 5.327e-06 0)
(0.0006688 5.2e-06 0)
(0.0006676 5.158e-06 0)
(0.0006665 5.173e-06 0)
(0.0006654 5.202e-06 0)
(0.001208 0.0001097 0)
(0.00123 0.0002697 0)
(0.001258 0.0003691 0)
(0.001281 0.0004182 0)
(0.001292 0.0004316 0)
(0.001292 0.0004221 0)
(0.00128 0.0003989 0)
(0.001261 0.0003687 0)
(0.001236 0.0003357 0)
(0.001208 0.0003024 0)
(0.001179 0.0002704 0)
(0.001149 0.0002403 0)
(0.00112 0.0002126 0)
(0.001093 0.0001872 0)
(0.001067 0.0001641 0)
(0.001044 0.0001431 0)
(0.001022 0.000124 0)
(0.001004 0.0001065 0)
(0.0009869 9.056e-05 0)
(0.0009727 7.586e-05 0)
(0.0009608 6.224e-05 0)
(0.000951 4.954e-05 0)
(0.0009435 3.76e-05 0)
(0.0009381 2.627e-05 0)
(0.0009348 1.543e-05 0)
(0.0009336 4.946e-06 0)
(0.0009344 -5.279e-06 0)
(0.0009373 -1.535e-05 0)
(0.0009422 -2.535e-05 0)
(0.0009492 -3.538e-05 0)
(0.0009583 -4.55e-05 0)
(0.0009696 -5.578e-05 0)
(0.000983 -6.628e-05 0)
(0.0009987 -7.704e-05 0)
(0.001017 -8.81e-05 0)
(0.001037 -9.949e-05 0)
(0.00106 -0.0001112 0)
(0.001085 -0.0001233 0)
(0.001113 -0.0001356 0)
(0.001143 -0.0001482 0)
(0.001176 -0.000161 0)
(0.001212 -0.0001739 0)
(0.001251 -0.0001868 0)
(0.001292 -0.0001996 0)
(0.001336 -0.0002119 0)
(0.001382 -0.0002237 0)
(0.001431 -0.0002346 0)
(0.001482 -0.0002445 0)
(0.001535 -0.0002529 0)
(0.00159 -0.0002595 0)
(0.001646 -0.0002641 0)
(0.001702 -0.0002661 0)
(0.001759 -0.0002652 0)
(0.001815 -0.0002612 0)
(0.001871 -0.0002537 0)
(0.001924 -0.0002425 0)
(0.001974 -0.0002274 0)
(0.002021 -0.0002084 0)
(0.002064 -0.0001856 0)
(0.002101 -0.0001592 0)
(0.002133 -0.0001297 0)
(0.002158 -9.768e-05 0)
(0.002175 -6.373e-05 0)
(0.002185 -2.87e-05 0)
(0.002188 6.583e-06 0)
(0.002182 4.13e-05 0)
(0.00217 7.471e-05 0)
(0.00215 0.0001062 0)
(0.002125 0.0001352 0)
(0.002093 0.0001613 0)
(0.002056 0.0001843 0)
(0.002014 0.0002041 0)
(0.001969 0.0002206 0)
(0.00192 0.0002338 0)
(0.001869 0.0002438 0)
(0.001817 0.0002507 0)
(0.001763 0.0002547 0)
(0.001708 0.0002561 0)
(0.001654 0.0002551 0)
(0.0016 0.0002519 0)
(0.001546 0.0002469 0)
(0.001494 0.0002402 0)
(0.001444 0.0002323 0)
(0.001395 0.0002233 0)
(0.001348 0.0002134 0)
(0.001303 0.000203 0)
(0.001261 0.0001922 0)
(0.00122 0.0001812 0)
(0.001182 0.0001702 0)
(0.001147 0.0001592 0)
(0.001113 0.0001485 0)
(0.001082 0.000138 0)
(0.001053 0.0001279 0)
(0.001026 0.0001182 0)
(0.001001 0.000109 0)
(0.0009784 0.0001003 0)
(0.0009573 9.203e-05 0)
(0.0009378 8.428e-05 0)
(0.00092 7.704e-05 0)
(0.0009036 7.028e-05 0)
(0.0008887 6.401e-05 0)
(0.000875 5.82e-05 0)
(0.0008626 5.283e-05 0)
(0.0008513 4.788e-05 0)
(0.000841 4.333e-05 0)
(0.0008317 3.916e-05 0)
(0.0008232 3.534e-05 0)
(0.0008156 3.185e-05 0)
(0.0008087 2.867e-05 0)
(0.0008025 2.577e-05 0)
(0.0007968 2.314e-05 0)
(0.0007918 2.076e-05 0)
(0.0007872 1.861e-05 0)
(0.0007831 1.668e-05 0)
(0.0007795 1.494e-05 0)
(0.0007762 1.339e-05 0)
(0.0007732 1.202e-05 0)
(0.0007706 1.081e-05 0)
(0.0007682 9.759e-06 0)
(0.000766 8.861e-06 0)
(0.0007641 8.107e-06 0)
(0.0007624 7.495e-06 0)
(0.0007608 7.017e-06 0)
(0.0007594 6.668e-06 0)
(0.000758 6.437e-06 0)
(0.0007568 6.31e-06 0)
(0.0007557 6.261e-06 0)
(0.0007546 6.257e-06 0)
(0.001206 9.568e-05 0)
(0.001225 0.0002426 0)
(0.001251 0.0003419 0)
(0.001275 0.0003988 0)
(0.001292 0.0004229 0)
(0.0013 0.0004239 0)
(0.001298 0.0004097 0)
(0.001289 0.0003862 0)
(0.001274 0.0003579 0)
(0.001255 0.0003274 0)
(0.001233 0.0002966 0)
(0.00121 0.0002668 0)
(0.001187 0.0002384 0)
(0.001164 0.0002117 0)
(0.001142 0.000187 0)
(0.001122 0.0001641 0)
(0.001103 0.0001429 0)
(0.001086 0.0001233 0)
(0.001072 0.0001052 0)
(0.001059 8.833e-05 0)
(0.001048 7.257e-05 0)
(0.001039 5.774e-05 0)
(0.001032 4.371e-05 0)
(0.001028 3.031e-05 0)
(0.001025 1.742e-05 0)
(0.001024 4.9e-06 0)
(0.001025 -7.358e-06 0)
(0.001029 -1.947e-05 0)
(0.001034 -3.153e-05 0)
(0.001041 -4.365e-05 0)
(0.001051 -5.589e-05 0)
(0.001063 -6.834e-05 0)
(0.001077 -8.107e-05 0)
(0.001093 -9.412e-05 0)
(0.001111 -0.0001075 0)
(0.001132 -0.0001213 0)
(0.001156 -0.0001356 0)
(0.001182 -0.0001502 0)
(0.00121 -0.0001652 0)
(0.001242 -0.0001805 0)
(0.001276 -0.000196 0)
(0.001313 -0.0002117 0)
(0.001352 -0.0002273 0)
(0.001395 -0.0002427 0)
(0.00144 -0.0002578 0)
(0.001488 -0.0002721 0)
(0.001538 -0.0002854 0)
(0.001591 -0.0002974 0)
(0.001645 -0.0003077 0)
(0.001702 -0.0003158 0)
(0.00176 -0.0003214 0)
(0.001819 -0.000324 0)
(0.001878 -0.0003231 0)
(0.001936 -0.0003184 0)
(0.001994 -0.0003094 0)
(0.00205 -0.0002959 0)
(0.002103 -0.0002776 0)
(0.002152 -0.0002546 0)
(0.002197 -0.0002268 0)
(0.002236 -0.0001947 0)
(0.002269 -0.0001587 0)
(0.002295 -0.0001195 0)
(0.002314 -7.795e-05 0)
(0.002324 -3.507e-05 0)
(0.002327 8.097e-06 0)
(0.002321 5.053e-05 0)
(0.002308 9.13e-05 0)
(0.002287 0.0001296 0)
(0.00226 0.0001649 0)
(0.002227 0.0001967 0)
(0.002188 0.0002247 0)
(0.002144 0.0002487 0)
(0.002097 0.0002687 0)
(0.002047 0.0002847 0)
(0.001994 0.0002968 0)
(0.001939 0.0003052 0)
(0.001883 0.0003101 0)
(0.001826 0.0003118 0)
(0.00177 0.0003106 0)
(0.001714 0.0003067 0)
(0.001659 0.0003006 0)
(0.001605 0.0002925 0)
(0.001552 0.0002829 0)
(0.001502 0.000272 0)
(0.001453 0.00026 0)
(0.001407 0.0002474 0)
(0.001363 0.0002343 0)
(0.001322 0.000221 0)
(0.001283 0.0002076 0)
(0.001246 0.0001943 0)
(0.001211 0.0001812 0)
(0.001179 0.0001685 0)
(0.001149 0.0001563 0)
(0.001122 0.0001445 0)
(0.001096 0.0001333 0)
(0.001072 0.0001227 0)
(0.00105 0.0001126 0)
(0.00103 0.0001032 0)
(0.001012 9.441e-05 0)
(0.0009949 8.618e-05 0)
(0.0009794 7.854e-05 0)
(0.0009653 7.145e-05 0)
(0.0009524 6.49e-05 0)
(0.0009406 5.886e-05 0)
(0.00093 5.33e-05 0)
(0.0009203 4.82e-05 0)
(0.0009115 4.353e-05 0)
(0.0009035 3.926e-05 0)
(0.0008963 3.536e-05 0)
(0.0008898 3.181e-05 0)
(0.0008839 2.859e-05 0)
(0.0008787 2.567e-05 0)
(0.0008739 2.302e-05 0)
(0.0008696 2.064e-05 0)
(0.0008658 1.85e-05 0)
(0.0008623 1.658e-05 0)
(0.0008592 1.488e-05 0)
(0.0008564 1.338e-05 0)
(0.000854 1.206e-05 0)
(0.0008517 1.093e-05 0)
(0.0008497 9.971e-06 0)
(0.0008479 9.176e-06 0)
(0.0008463 8.538e-06 0)
(0.0008448 8.051e-06 0)
(0.0008435 7.703e-06 0)
(0.0008423 7.48e-06 0)
(0.0008411 7.362e-06 0)
(0.00084 7.323e-06 0)
(0.001205 8.449e-05 0)
(0.001221 0.0002191 0)
(0.001245 0.0003157 0)
(0.001269 0.0003767 0)
(0.001289 0.0004083 0)
(0.001302 0.0004177 0)
(0.001308 0.0004114 0)
(0.001307 0.0003946 0)
(0.0013 0.0003713 0)
(0.001289 0.0003443 0)
(0.001274 0.0003158 0)
(0.001258 0.000287 0)
(0.00124 0.0002589 0)
(0.001222 0.0002318 0)
(0.001205 0.0002061 0)
(0.001188 0.000182 0)
(0.001173 0.0001593 0)
(0.001158 0.000138 0)
(0.001146 0.0001181 0)
(0.001135 9.939e-05 0)
(0.001125 8.173e-05 0)
(0.001118 6.498e-05 0)
(0.001112 4.901e-05 0)
(0.001108 3.367e-05 0)
(0.001106 1.883e-05 0)
(0.001106 4.355e-06 0)
(0.001107 -9.88e-06 0)
(0.001111 -2.399e-05 0)
(0.001117 -3.808e-05 0)
(0.001125 -5.226e-05 0)
(0.001134 -6.662e-05 0)
(0.001146 -8.124e-05 0)
(0.00116 -9.619e-05 0)
(0.001177 -0.0001115 0)
(0.001195 -0.0001273 0)
(0.001217 -0.0001436 0)
(0.00124 -0.0001603 0)
(0.001266 -0.0001775 0)
(0.001295 -0.0001952 0)
(0.001326 -0.0002132 0)
(0.001361 -0.0002315 0)
(0.001398 -0.00025 0)
(0.001438 -0.0002685 0)
(0.00148 -0.0002867 0)
(0.001526 -0.0003045 0)
(0.001574 -0.0003214 0)
(0.001625 -0.0003372 0)
(0.001678 -0.0003515 0)
(0.001734 -0.0003638 0)
(0.001791 -0.0003736 0)
(0.00185 -0.0003804 0)
(0.00191 -0.0003836 0)
(0.00197 -0.0003828 0)
(0.00203 -0.0003775 0)
(0.002089 -0.0003671 0)
(0.002146 -0.0003513 0)
(0.002201 -0.0003299 0)
(0.002252 -0.0003027 0)
(0.002299 -0.0002699 0)
(0.00234 -0.0002318 0)
(0.002374 -0.000189 0)
(0.002401 -0.0001423 0)
(0.00242 -9.273e-05 0)
(0.002431 -4.159e-05 0)
(0.002433 9.862e-06 0)
(0.002427 6.037e-05 0)
(0.002413 0.0001088 0)
(0.002391 0.0001543 0)
(0.002363 0.000196 0)
(0.002329 0.0002336 0)
(0.002289 0.0002666 0)
(0.002244 0.0002949 0)
(0.002195 0.0003184 0)
(0.002144 0.0003372 0)
(0.00209 0.0003514 0)
(0.002034 0.0003613 0)
(0.001977 0.000367 0)
(0.001919 0.0003689 0)
(0.001862 0.0003674 0)
(0.001805 0.0003629 0)
(0.001749 0.0003556 0)
(0.001694 0.0003461 0)
(0.001641 0.0003346 0)
(0.00159 0.0003217 0)