/*--------------------------------*- C++ -*----------------------------------*\
  =========                 |
  \\      /  F ield         | OpenFOAM: The Open Source CFD Toolbox
   \\    /   O peration     | Website:  https://openfoam.org
    \\  /    A nd           | Version:  7
     \\/     M anipulation  |
\*---------------------------------------------------------------------------*/
FoamFile
{
    version     2.0;
    format      ascii;
    class       volScalarField;
    location    "1679.99947342491805";
    object      Y.K;
}
// * * * * * * * * * * * * * * * * * * * * * * * * * * * * * * * * * * * * * //

dimensions      [0 0 0 0 0 0 0];

internalField   nonuniform List<scalar> 
4096
(
1.708e-72
1.509e-70
-4.928e-71
6.469e-71
-1.938e-71
-2.829e-71
2.488e-72
-4.281e-72
1.321e-71
-2.042e-70
2.734e-69
-4.253e-68
6.533e-67
-8.942e-66
1.201e-64
-1.497e-63
1.769e-62
-2.001e-61
2.097e-60
-2.122e-59
2.032e-58
-1.835e-57
1.568e-56
-1.25e-55
9.167e-55
-5.939e-54
3.227e-53
-1.09e-52
-2.7e-52
1.016e-50
-1.34e-49
1.397e-48
-1.265e-47
1.049e-46
-7.94e-46
5.511e-45
-3.376e-44
1.714e-43
-5.383e-43
-4.77e-43
4.142e-41
-5.115e-40
4.488e-39
-3.394e-38
2.204e-37
-1.285e-36
6.733e-36
-3.075e-35
1.192e-34
-3.696e-34
5.331e-34
3.972e-33
-4.144e-32
3.253e-31
-1.424e-30
7.495e-30
-1.378e-29
5.852e-29
3.866e-28
4.744e-28
8.034e-27
2.658e-26
2.311e-25
1.088e-24
2.287e-24
1.793e-23
5.452e-23
1.515e-22
1.084e-21
3.034e-21
9.725e-21
1.274e-19
1.845e-18
5.118e-18
1.048e-17
1.907e-17
3.257e-17
5.342e-17
8.5e-17
1.319e-16
2.004e-16
2.984e-16
4.367e-16
6.285e-16
8.907e-16
1.244e-15
1.715e-15
2.334e-15
3.138e-15
4.174e-15
5.493e-15
7.16e-15
9.248e-15
1.184e-14
1.505e-14
1.898e-14
2.377e-14
2.957e-14
3.657e-14
4.496e-14
5.499e-14
6.691e-14
8.103e-14
9.769e-14
1.173e-13
1.403e-13
1.671e-13
1.983e-13
2.347e-13
2.767e-13
3.254e-13
3.814e-13
4.459e-13
5.199e-13
6.046e-13
7.014e-13
8.118e-13
9.375e-13
1.08e-12
1.242e-12
1.425e-12
1.632e-12
1.863e-12
2.122e-12
2.406e-12
2.71e-12
3.01e-12
3.246e-12
-5.042e-70
2.647e-69
-3.288e-69
4.722e-70
1.73e-69
-1.05e-69
-9.088e-71
-3.041e-70
5.585e-70
-1.162e-68
1.506e-67
-2.404e-66
3.616e-65
-5.113e-64
6.789e-63
-8.48e-62
9.978e-61
-1.11e-59
1.169e-58
-1.17e-57
1.112e-56
-1.002e-55
8.531e-55
-6.794e-54
4.974e-53
-3.246e-52
1.761e-51
-6.497e-51
-8.814e-51
4.931e-49
-6.725e-48
7.082e-47
-6.516e-46
5.426e-45
-4.126e-44
2.856e-43
-1.765e-42
9.145e-42
-3.122e-41
1.899e-41
1.786e-39
-2.434e-38
2.13e-37
-1.622e-36
1.055e-35
-6.168e-35
3.25e-34
-1.49e-33
5.906e-33
-1.876e-32
3.362e-32
1.315e-31
-1.726e-30
1.452e-29
-6.03e-29
3.512e-28
-5.402e-28
3.252e-27
1.987e-26
3.672e-26
4.027e-25
1.551e-24
1.181e-23
5.165e-23
1.214e-22
8.06e-22
2.453e-21
6.659e-21
4.084e-20
1.13e-19
2.814e-19
1.682e-18
4.482e-18
9.145e-18
1.669e-17
2.858e-17
4.692e-17
7.463e-17
1.157e-16
1.755e-16
2.609e-16
3.811e-16
5.475e-16
7.748e-16
1.081e-15
1.488e-15
2.024e-15
2.722e-15
3.62e-15
4.766e-15
6.216e-15
8.036e-15
1.03e-14
1.311e-14
1.655e-14
2.076e-14
2.587e-14
3.205e-14
3.948e-14
4.837e-14
5.897e-14
7.156e-14
8.644e-14
1.04e-13
1.246e-13
1.487e-13
1.768e-13
2.096e-13
2.476e-13
2.916e-13
3.425e-13
4.01e-13
4.684e-13
5.456e-13
6.34e-13
7.35e-13
8.501e-13
9.81e-13
1.13e-12
1.298e-12
1.489e-12
1.704e-12
1.946e-12
2.217e-12
2.518e-12
2.848e-12
3.197e-12
3.529e-12
1.137e-68
-7.883e-68
1.913e-67
-2.365e-67
1.411e-67
-2.103e-68
-3.94e-69
-1.783e-68
1.433e-68
-6.406e-67
8.111e-66
-1.296e-64
1.953e-63
-2.76e-62
3.657e-61
-4.549e-60
5.327e-59
-5.892e-58
6.175e-57
-6.145e-56
5.814e-55
-5.222e-54
4.434e-53
-3.53e-52
2.592e-51
-1.714e-50
9.297e-50
-3.948e-49
8.528e-50
2.046e-47
-3.028e-46
3.289e-45
-3.076e-44
2.591e-43
-1.99e-42
1.395e-41
-8.805e-41
4.73e-40
-1.864e-39
4.146e-39
5.975e-38
-9.936e-37
9.035e-36
-7.046e-35
4.627e-34
-2.733e-33
1.463e-32
-6.8e-32
2.776e-31
-9.231e-31
2.129e-30
1.525e-30
-5.516e-29
5.834e-28
-2.179e-27
1.559e-26
-1.549e-26
1.902e-25
9.936e-25
2.71e-24
2.124e-23
8.897e-23
6.049e-22
2.397e-21
6.145e-21
3.423e-20
1.024e-19
2.607e-19
1.222e-18
3.189e-18
6.465e-18
1.197e-17
2.095e-17
3.518e-17
5.707e-17
8.986e-17
1.379e-16
2.067e-16
3.034e-16
4.369e-16
6.184e-16
8.615e-16
1.183e-15
1.603e-15
2.145e-15
2.84e-15
3.722e-15
4.832e-15
6.219e-15
7.942e-15
1.007e-14
1.268e-14
1.587e-14
1.974e-14
2.443e-14
3.007e-14
3.683e-14
4.492e-14
5.454e-14
6.595e-14
7.945e-14
9.536e-14
1.14e-13
1.359e-13
1.615e-13
1.913e-13
2.259e-13
2.661e-13
3.125e-13
3.661e-13
4.278e-13
4.986e-13
5.798e-13
6.727e-13
7.788e-13
8.997e-13
1.037e-12
1.193e-12
1.37e-12
1.57e-12
1.796e-12
2.05e-12
2.337e-12
2.657e-12
3.016e-12
3.415e-12
3.857e-12
4.354e-12
-1.896e-67
1.502e-66
-5.111e-66
1.017e-65
-1.215e-65
8.199e-66
-2.257e-66
1.271e-67
-5.968e-67
-3.424e-65
4.164e-64
-6.632e-63
9.989e-62
-1.408e-60
1.856e-59
-2.293e-58
2.664e-57
-2.922e-56
3.038e-55
-3.002e-54
2.823e-53
-2.524e-52
2.139e-51
-1.705e-50
1.261e-49
-8.463e-49
4.79e-48
-2.332e-47
4.12e-47
6.275e-46
-1.142e-44
1.326e-43
-1.28e-42
1.104e-41
-8.638e-41
6.194e-40
-4.04e-39
2.289e-38
-9.811e-38
4.016e-37
8.737e-37
-3.2e-35
3.211e-34
-2.628e-33
1.765e-32
-1.064e-31
5.869e-31
-2.789e-30
1.186e-29
-4.272e-29
1.257e-28
-1.456e-28
-9.049e-28
2.012e-26
-5.391e-26
6.236e-25
9.704e-26
1.103e-23
4.733e-23
1.729e-22
1.107e-21
4.82e-21
2.822e-20
9.857e-20
2.634e-19
1.134e-18
3.12e-18
6.717e-18
1.311e-17
2.404e-17
4.204e-17
7.059e-17
1.144e-16
1.797e-16
2.742e-16
4.076e-16
5.915e-16
8.396e-16
1.168e-15
1.596e-15
2.145e-15
2.84e-15
3.71e-15
4.789e-15
6.116e-15
7.738e-15
9.707e-15
1.209e-14
1.495e-14
1.838e-14
2.249e-14
2.738e-14
3.319e-14
4.008e-14
4.822e-14
5.784e-14
6.916e-14
8.247e-14
9.807e-14
1.163e-13
1.376e-13
1.625e-13
1.914e-13
2.249e-13
2.637e-13
3.086e-13
3.604e-13
4.2e-13
4.886e-13
5.672e-13
6.572e-13
7.601e-13
8.775e-13
1.011e-12
1.163e-12
1.335e-12
1.531e-12
1.752e-12
2.001e-12
2.282e-12
2.598e-12
2.953e-12
3.35e-12
3.795e-12
4.291e-12
4.844e-12
5.466e-12
6.253e-12
2.771e-66
-2.389e-65
1.008e-64
-2.685e-64
4.625e-64
-4.95e-64
2.451e-64
1.07e-64
-1.777e-64
-1.724e-63
2.053e-62
-3.243e-61
4.858e-60
-6.79e-59
8.857e-58
-1.081e-56
1.24e-55
-1.342e-54
1.379e-53
-1.348e-52
1.257e-51
-1.117e-50
9.438e-50
-7.539e-49
5.626e-48
-3.854e-47
2.301e-46
-1.161e-45
3.878e-45
7.003e-45
-3.232e-43
4.385e-42
-4.51e-41
4.055e-40
-3.272e-39
2.429e-38
-1.659e-37
9.973e-37
-4.914e-36
2.686e-35
-4.108e-35
-6.228e-34
8.834e-33
-7.939e-32
5.602e-31
-3.49e-30
2.028e-29
-9.921e-29
4.438e-28
-1.736e-27
6.227e-27
-1.577e-26
1.798e-26
5.803e-25
6.35e-26
2.166e-23
3.804e-23
6.079e-22
2.526e-21
9.693e-21
5.307e-20
2.201e-19
1.018e-18
3.072e-18
7.311e-18
1.565e-17
3.124e-17
5.895e-17
1.059e-16
1.822e-16
3.01e-16
4.791e-16
7.367e-16
1.098e-15
1.589e-15
2.239e-15
3.079e-15
4.143e-15
5.464e-15
7.08e-15
9.03e-15
1.136e-14
1.411e-14
1.735e-14
2.113e-14
2.554e-14
3.066e-14
3.66e-14
4.349e-14
5.146e-14
6.07e-14
7.139e-14
8.377e-14
9.809e-14
1.147e-13
1.339e-13
1.56e-13
1.817e-13
2.113e-13
2.455e-13
2.849e-13
3.304e-13
3.826e-13
4.427e-13
5.116e-13
5.906e-13
6.81e-13
7.843e-13
9.023e-13
1.037e-12
1.19e-12
1.363e-12
1.561e-12
1.784e-12
2.036e-12
2.322e-12
2.643e-12
3.005e-12
3.411e-12
3.868e-12
4.378e-12
4.949e-12
5.586e-12
6.296e-12
7.084e-12
7.959e-12
8.94e-12
1.028e-11
-3.786e-65
3.455e-64
-1.694e-63
5.574e-63
-1.248e-62
1.836e-62
-1.401e-62
-8.16e-63
3.803e-62
-1.199e-61
9.949e-61
-1.518e-59
2.244e-58
-3.086e-57
3.951e-56
-4.726e-55
5.311e-54
-5.639e-53
5.69e-52
-5.477e-51
5.043e-50
-4.443e-49
3.74e-48
-2.992e-47
2.256e-46
-1.582e-45
9.936e-45
-5.498e-44
2.541e-43
-6.232e-43
-4.034e-42
1.053e-40
-1.246e-39
1.219e-38
-1.033e-37
8.085e-37
-5.869e-36
3.752e-35
-2.104e-34
1.255e-33
-4.287e-33
3.97e-33
1.033e-31
-1.672e-30
1.38e-29
-8.985e-29
5.763e-28
-2.913e-27
1.376e-26
-5.834e-26
2.499e-25
-6.661e-25
1.954e-24
1.533e-23
5.691e-23
6.354e-22
3.755e-21
3.057e-20
1.242e-19
4.452e-19
2.021e-18
6.425e-18
1.636e-17
3.753e-17
8.006e-17
1.605e-16
3.044e-16
5.482e-16
9.409e-16
1.544e-15
2.429e-15
3.678e-15
5.371e-15
7.591e-15
1.041e-14
1.389e-14
1.809e-14
2.304e-14
2.877e-14
3.531e-14
4.269e-14
5.095e-14
6.015e-14
7.036e-14
8.169e-14
9.426e-14
1.083e-13
1.239e-13
1.413e-13
1.609e-13
1.83e-13
2.079e-13
2.361e-13
2.682e-13
3.046e-13
3.46e-13
3.932e-13
4.471e-13
5.085e-13
5.786e-13
6.586e-13
7.498e-13
8.538e-13
9.723e-13
1.107e-12
1.261e-12
1.435e-12
1.633e-12
1.857e-12
2.112e-12
2.399e-12
2.724e-12
3.09e-12
3.503e-12
3.968e-12
4.49e-12
5.076e-12
5.732e-12
6.466e-12
7.285e-12
8.198e-12
9.215e-12
1.034e-11
1.16e-11
1.298e-11
1.451e-11
1.621e-11
1.864e-11
4.988e-64
-4.729e-63
2.592e-62
-1.004e-61
2.767e-61
-5.271e-61
5.82e-61
1.471e-61
-1.765e-60
-2.38e-61
4.282e-59
-6.755e-58
9.786e-57
-1.31e-55
1.627e-54
-1.888e-53
2.058e-52
-2.125e-51
2.091e-50
-1.97e-49
1.783e-48
-1.551e-47
1.297e-46
-1.038e-45
7.905e-45
-5.67e-44
3.733e-43
-2.262e-42
1.252e-41
-5.71e-41
1.622e-40
8.97e-40
-2.153e-38
2.693e-37
-2.503e-36
2.144e-35
-1.698e-34
1.155e-33
-7.226e-33
4.202e-32
-2.152e-31
9.148e-31
-2.407e-30
-6.322e-30
1.38e-28
-1.452e-27
1.199e-26
-6.51e-26
3.266e-25
-1.514e-24
7.961e-24
-1.911e-23
9.553e-23
6.527e-22
4.448e-21
3.529e-20
2.054e-19
1.144e-18
4.28e-18
1.29e-17
3.494e-17
8.747e-17
2.041e-16
4.456e-16
9.136e-16
1.763e-15
3.214e-15
5.548e-15
9.105e-15
1.425e-14
2.134e-14
3.068e-14
4.25e-14
5.688e-14
7.382e-14
9.316e-14
1.147e-13
1.381e-13
1.63e-13
1.894e-13
2.169e-13
2.455e-13
2.752e-13
3.062e-13
3.388e-13
3.732e-13
4.1e-13
4.496e-13
4.926e-13
5.398e-13
5.919e-13
6.497e-13
7.143e-13
7.868e-13
8.683e-13
9.601e-13
1.064e-12
1.181e-12
1.314e-12
1.465e-12
1.635e-12
1.828e-12
2.047e-12
2.294e-12
2.574e-12
2.891e-12
3.248e-12
3.652e-12
4.107e-12
4.62e-12
5.196e-12
5.844e-12
6.572e-12
7.388e-12
8.301e-12
9.323e-12
1.046e-11
1.174e-11
1.315e-11
1.473e-11
1.648e-11
1.841e-11
2.056e-11
2.292e-11
2.553e-11
2.84e-11
3.155e-11
3.621e-11
-6.415e-63
6.246e-62
-3.729e-61
1.648e-60
-5.402e-60
1.285e-59
-1.965e-59
1.243e-60
7.94e-59
-3.588e-58
2.288e-57
-2.888e-56
3.977e-55
-5.101e-54
6.062e-53
-6.725e-52
7.027e-51
-6.979e-50
6.636e-49
-6.075e-48
5.372e-47
-4.597e-46
3.805e-45
-3.04e-44
2.333e-43
-1.709e-42
1.173e-41
-7.647e-41
4.752e-40
-2.718e-39
1.447e-38
-5.159e-38
4.512e-38
2.26e-36
-3.506e-35
3.931e-34
-3.636e-33
2.729e-32
-1.789e-31
1.185e-30
-7.246e-30
4.062e-29
-2.009e-28
7.859e-28
-1.925e-27
-1.63e-27
6.698e-26
-5.114e-25
4.258e-24
-2.565e-23
1.986e-22
-2.071e-22
3.453e-21
3.031e-20
2.196e-19
1.402e-18
5.934e-18
2.04e-17
6.301e-17
1.791e-16
4.714e-16
1.152e-15
2.621e-15
5.563e-15
1.104e-14
2.054e-14
3.595e-14
5.942e-14
9.307e-14
1.387e-13
1.972e-13
2.688e-13
3.525e-13
4.463e-13
5.473e-13
6.524e-13
7.583e-13
8.624e-13
9.624e-13
1.057e-12
1.147e-12
1.231e-12
1.311e-12
1.388e-12
1.464e-12
1.541e-12
1.62e-12
1.703e-12
1.794e-12
1.892e-12
2.002e-12
2.124e-12
2.262e-12
2.418e-12
2.594e-12
2.793e-12
3.019e-12
3.275e-12
3.565e-12
3.893e-12
4.264e-12
4.683e-12
5.156e-12
5.69e-12
6.292e-12
6.969e-12
7.732e-12
8.588e-12
9.55e-12
1.063e-11
1.184e-11
1.319e-11
1.47e-11
1.638e-11
1.826e-11
2.036e-11
2.269e-11
2.527e-11
2.814e-11
3.131e-11
3.482e-11
3.869e-11
4.296e-11
4.765e-11
5.28e-11
5.845e-11
6.457e-11
7.386e-11
8.067e-62
-7.997e-61
5.108e-60
-2.519e-59
9.598e-59
-2.781e-58
5.686e-58
-4.101e-58
-1.09e-57
1.021e-57
6.193e-56
-1.099e-54
1.468e-53
-1.769e-52
1.971e-51
-2.054e-50
2.026e-49
-1.911e-48
1.738e-47
-1.533e-46
1.316e-45
-1.102e-44
8.997e-44
-7.152e-43
5.519e-42
-4.115e-41
2.931e-40
-2.025e-39
1.362e-38
-8.827e-38
5.448e-37
-3.071e-36
1.767e-35
-6.736e-35
8.25e-35
1.935e-33
-2.688e-32
2.828e-31
-2.537e-30
2.066e-29
-1.515e-28
1.021e-27
-6.1e-27
3.205e-26
-1.376e-25
5.958e-25
-2.319e-24
8.73e-24
-1.174e-24
-8.072e-23
2.731e-21
4.47e-21
1.461e-19
1.242e-18
6.197e-18
2.499e-17
9.018e-17
2.98e-16
9.069e-16
2.545e-15
6.594e-15
1.58e-14
3.506e-14
7.219e-14
1.383e-13
2.475e-13
4.152e-13
6.552e-13
9.772e-13
1.383e-12
1.864e-12
2.405e-12
2.982e-12
3.564e-12
4.126e-12
4.64e-12
5.088e-12
5.464e-12
5.76e-12
5.986e-12
6.152e-12
6.269e-12
6.349e-12
6.404e-12
6.446e-12
6.486e-12
6.533e-12
6.596e-12
6.682e-12
6.795e-12
6.943e-12
7.13e-12
7.363e-12
7.645e-12
7.981e-12
8.376e-12
8.839e-12
9.374e-12
9.99e-12
1.07e-11
1.15e-11
1.241e-11
1.345e-11
1.462e-11
1.593e-11
1.741e-11
1.908e-11
2.094e-11
2.303e-11
2.536e-11
2.797e-11
3.087e-11
3.411e-11
3.771e-11
4.171e-11
4.614e-11
5.105e-11
5.648e-11
6.248e-11
6.91e-11
7.639e-11
8.44e-11
9.319e-11
1.028e-10
1.134e-10
1.249e-10
1.372e-10
1.563e-10
-9.85e-61
9.881e-60
-6.665e-59
3.611e-58
-1.571e-57
5.434e-57
-1.418e-56
2.237e-56
3.717e-56
-4.322e-55
3.625e-54
-4.055e-53
4.727e-52
-5.183e-51
5.268e-50
-5.035e-49
4.6e-48
-4.063e-47
3.498e-46
-2.949e-45
2.443e-44
-1.991e-43
1.597e-42
-1.259e-41
9.743e-41
-7.37e-40
5.429e-39
-3.935e-38
2.807e-37
-1.963e-36
1.338e-35
-8.852e-35
5.633e-34
-3.423e-33
1.928e-32
-9.657e-32
5.707e-31
-1.242e-30
-3.361e-30
8.386e-29
-8.762e-28
7.112e-27
-4.644e-26
3.254e-25
-1.999e-24
1.204e-23
-6.409e-23
4.369e-22
-1.131e-21
5.101e-21
5.018e-20
5.127e-19
4.125e-18
2.173e-17
9.472e-17
3.721e-16
1.337e-15
4.409e-15
1.333e-14
3.701e-14
9.434e-14
2.211e-13
4.775e-13
9.517e-13
1.757e-12
3.014e-12
4.83e-12
7.26e-12
1.028e-11
1.379e-11
1.759e-11
2.144e-11
2.51e-11
2.828e-11
3.087e-11
3.27e-11
3.381e-11
3.43e-11
3.414e-11
3.363e-11
3.282e-11
3.179e-11
3.065e-11
2.949e-11
2.837e-11
2.733e-11
2.642e-11
2.565e-11
2.504e-11
2.459e-11
2.43e-11
2.42e-11
2.428e-11
2.452e-11
2.493e-11
2.554e-11
2.634e-11
2.735e-11
2.856e-11
3.001e-11
3.17e-11
3.366e-11
3.59e-11
3.846e-11
4.135e-11
4.462e-11
4.829e-11
5.241e-11
5.702e-11
6.217e-11
6.79e-11
7.428e-11
8.136e-11
8.922e-11
9.792e-11
1.075e-10
1.181e-10
1.298e-10
1.427e-10
1.569e-10
1.724e-10
1.894e-10
2.08e-10
2.284e-10
2.505e-10
2.746e-10
3.003e-10
3.404e-10
1.151e-59
-1.162e-58
8.192e-58
-4.816e-57
2.362e-56
-9.624e-56
3.179e-55
-7.747e-55
1.632e-54
-3.927e-54
7.386e-53
-1.088e-51
1.209e-50
-1.162e-49
1.033e-48
-8.78e-48
7.282e-47
-5.943e-46
4.797e-45
-3.839e-44
3.051e-43
-2.409e-42
1.89e-41
-1.473e-40
1.139e-39
-8.709e-39
6.638e-38
-5.028e-37
3.774e-36
-2.798e-35
2.045e-34
-1.469e-33
1.034e-32
-7.142e-32
4.718e-31
-3.036e-30
1.852e-29
-1.085e-28
6.048e-28
-3.179e-27
1.538e-26
-7.162e-26
2.998e-25
-6.563e-25
-6.918e-25
2.464e-23
-1.962e-22
3.222e-21
1.618e-22
1.942e-19
2.089e-18
1.319e-17
6.896e-17
3.252e-16
1.402e-15
5.531e-15
1.994e-14
6.563e-14
1.971e-13
5.404e-13
1.353e-12
3.095e-12
6.485e-12
1.248e-11
2.211e-11
3.627e-11
5.536e-11
7.901e-11
1.06e-10
1.344e-10
1.62e-10
1.862e-10
2.055e-10
2.177e-10
2.242e-10
2.228e-10
2.178e-10
2.091e-10
1.976e-10
1.846e-10
1.71e-10
1.576e-10
1.449e-10
1.333e-10
1.228e-10
1.135e-10
1.056e-10
9.877e-11
9.311e-11
8.848e-11
8.48e-11
8.199e-11
7.999e-11
7.873e-11
7.814e-11
7.836e-11
7.909e-11
8.046e-11
8.248e-11
8.515e-11
8.847e-11
9.248e-11
9.721e-11
1.027e-10
1.09e-10
1.162e-10
1.243e-10
1.335e-10
1.438e-10
1.552e-10
1.68e-10
1.822e-10
1.98e-10
2.154e-10
2.346e-10
2.558e-10
2.792e-10
3.049e-10
3.33e-10
3.639e-10
3.976e-10
4.345e-10
4.747e-10
5.184e-10
5.658e-10
6.174e-10
6.718e-10
7.578e-10
-1.255e-58
1.267e-57
-9.261e-57
5.848e-56
-3.192e-55
1.505e-54
-5.995e-54
1.888e-53
-2.386e-54
-2.711e-52
3.212e-51
-2.751e-50
2.105e-49
-1.554e-48
1.135e-47
-8.342e-47
6.225e-46
-4.695e-45
3.558e-44
-2.7e-43
2.047e-42
-1.551e-41
1.176e-40
-8.94e-40
6.821e-39
-5.213e-38
3.99e-37
-3.057e-36
2.338e-35
-1.771e-34
1.327e-33
-9.8e-33
7.124e-32
-5.083e-31
3.547e-30
-2.431e-29
1.621e-28
-1.059e-27
6.721e-27
-4.137e-26
2.464e-25
-1.416e-24
7.861e-24
-4.193e-23
2.152e-22
-1.014e-21
6.063e-21
2.299e-20
4.434e-19
4.734e-18
3.232e-17
1.867e-16
9.776e-16
4.679e-15
2.044e-14
8.129e-14
2.94e-13
9.653e-13
2.875e-12
7.769e-12
1.905e-11
4.243e-11
8.603e-11
1.592e-10
2.699e-10
4.219e-10
6.114e-10
8.263e-10
1.048e-09
1.252e-09
1.428e-09
1.54e-09
1.6e-09
1.586e-09
1.538e-09
1.454e-09
1.344e-09
1.221e-09
1.094e-09
9.704e-10
8.557e-10
7.523e-10
6.613e-10
5.825e-10
5.153e-10
4.587e-10
4.113e-10
3.719e-10
3.395e-10
3.13e-10
2.916e-10
2.745e-10
2.612e-10
2.511e-10
2.438e-10
2.392e-10
2.365e-10
2.368e-10
2.386e-10
2.423e-10
2.479e-10
2.555e-10
2.649e-10
2.764e-10
2.899e-10
3.055e-10
3.234e-10
3.438e-10
3.667e-10
3.924e-10
4.21e-10
4.528e-10
4.881e-10
5.272e-10
5.702e-10
6.176e-10
6.696e-10
7.266e-10
7.89e-10
8.572e-10
9.316e-10
1.013e-09
1.101e-09
1.196e-09
1.299e-09
1.411e-09
1.528e-09
1.715e-09
1.231e-57
-1.234e-56
9.275e-56
-6.233e-55
3.759e-54
-2.053e-53
1.025e-52
-4.722e-52
2.021e-51
-8.074e-51
3.042e-50
-1.118e-49
4.907e-49
-2.781e-48
2.143e-47
-1.994e-46
1.819e-45
-1.557e-44
1.247e-43
-9.372e-43
6.635e-42
-4.43e-41
2.783e-40
-1.637e-39
8.905e-39
-4.418e-38
2.052e-37
-1.004e-36
6.138e-36
-4.168e-35
3.239e-34
-2.826e-33
2.553e-32
-2.274e-31
1.971e-30
-1.624e-29
1.291e-28
-9.766e-28
7.097e-27
-4.953e-26
3.329e-25
-2.132e-24
1.352e-23
-7.975e-23
4.95e-22
-1.749e-21
8.354e-20
1.179e-18
9.693e-18
6.768e-17
4.311e-16
2.518e-15
1.345e-14
6.55e-14
2.897e-13
1.161e-12
4.206e-12
1.375e-11
4.056e-11
1.078e-10
2.582e-10
5.583e-10
1.091e-09
1.935e-09
3.127e-09
4.638e-09
6.359e-09
8.115e-09
9.702e-09
1.092e-08
1.179e-08
1.177e-08
1.148e-08
1.085e-08
9.938e-09
8.876e-09
7.766e-09
6.689e-09
5.696e-09
4.814e-09
4.053e-09
3.409e-09
2.874e-09
2.434e-09
2.074e-09
1.783e-09
1.547e-09
1.356e-09
1.202e-09
1.079e-09
9.795e-10
9.002e-10
8.374e-10
7.882e-10
7.504e-10
7.224e-10
7.027e-10
6.906e-10
6.85e-10
6.867e-10
6.931e-10
7.05e-10
7.222e-10
7.448e-10
7.726e-10
8.06e-10
8.449e-10
8.897e-10
9.406e-10
9.981e-10
1.062e-09
1.134e-09
1.214e-09
1.302e-09
1.398e-09
1.505e-09
1.622e-09
1.75e-09
1.889e-09
2.041e-09
2.207e-09
2.386e-09
2.581e-09
2.792e-09
3.019e-09
3.265e-09
3.52e-09
3.93e-09
-9.993e-57
9.974e-56
-7.638e-55
5.349e-54
-3.43e-53
2.03e-52
-1.118e-51
5.775e-51
-2.815e-50
1.294e-49
-5.505e-49
1.972e-48
-3.964e-49
-4.196e-47
5.351e-46
-5.576e-45
4.972e-44
-4.036e-43
3.07e-42
-2.216e-41
1.527e-40
-1.007e-39
6.334e-39
-3.782e-38
2.113e-37
-1.065e-36
4.758e-36
-1.651e-35
3.396e-35
2.406e-34
-5.359e-33
5.938e-32
-5.42e-31
4.483e-30
-3.479e-29
2.575e-28
-1.831e-27
1.257e-26
-8.347e-26
5.368e-25
-3.335e-24
2.034e-23
-1.125e-22
6.687e-22
-2.572e-21
1.059e-19
1.636e-18
1.483e-17
1.157e-16
8.261e-16
5.412e-15
3.242e-14
1.769e-13
8.753e-13
3.915e-12
1.578e-11
5.719e-11
1.859e-10
5.414e-10
1.412e-09
3.294e-09
6.888e-09
1.293e-08
2.188e-08
3.353e-08
4.702e-08
6.08e-08
7.309e-08
8.213e-08
8.737e-08
8.644e-08
8.276e-08
7.631e-08
6.8e-08
5.888e-08
4.981e-08
4.138e-08
3.391e-08
2.754e-08
2.225e-08
1.795e-08
1.45e-08
1.177e-08
9.62e-09
7.93e-09
6.604e-09
5.564e-09
4.746e-09
4.102e-09
3.593e-09
3.19e-09
2.871e-09
2.618e-09
2.419e-09
2.264e-09
2.144e-09
2.055e-09
1.99e-09
1.949e-09
1.921e-09
1.922e-09
1.933e-09
1.959e-09
1.999e-09
2.054e-09
2.123e-09
2.206e-09
2.303e-09
2.416e-09
2.543e-09
2.688e-09
2.849e-09
3.028e-09
3.227e-09
3.446e-09
3.686e-09
3.95e-09
4.237e-09
4.551e-09
4.893e-09
5.263e-09
5.664e-09
6.098e-09
6.566e-09
7.07e-09
7.614e-09
8.175e-09
9.079e-09
6.999e-56
-6.924e-55
5.372e-54
-3.892e-53
2.632e-52
-1.67e-51
1.001e-50
-5.74e-50
3.201e-49
-1.788e-48
1.025e-47
-6.602e-47
4.159e-46
-2.871e-45
2.117e-44
-1.566e-43
1.146e-42
-8.226e-42
5.777e-41
-3.965e-40
2.66e-39
-1.746e-38
1.123e-37
-7.084e-37
4.396e-36
-2.693e-35
1.646e-34
-1.017e-33
6.405e-33
-4.049e-32
2.546e-31
-1.608e-30
1.018e-29
-6.444e-29
4.064e-28
-2.547e-27
1.58e-26
-9.682e-26
5.84e-25
-3.455e-24
2.012e-23
-1.107e-22
7.172e-22
-2.972e-21
1.084e-19
1.849e-18
1.852e-17
1.612e-16
1.289e-15
9.479e-15
6.382e-14
3.915e-13
2.177e-12
1.093e-11
4.936e-11
1.997e-10
7.222e-10
2.328e-09
6.677e-09
1.702e-08
3.854e-08
7.76e-08
1.393e-07
2.237e-07
3.238e-07
4.275e-07
5.2e-07
5.877e-07
6.206e-07
6.096e-07
5.756e-07
5.209e-07
4.537e-07
3.827e-07
3.144e-07
2.529e-07
2.003e-07
1.569e-07
1.221e-07
9.472e-08
7.356e-08
5.736e-08
4.503e-08
3.567e-08
2.856e-08
2.315e-08
1.902e-08
1.585e-08
1.34e-08
1.15e-08
1.002e-08
8.854e-09
7.942e-09
7.224e-09
6.662e-09
6.223e-09
5.886e-09
5.633e-09
5.45e-09
5.327e-09
5.251e-09
5.239e-09
5.262e-09
5.323e-09
5.422e-09
5.558e-09
5.73e-09
5.939e-09
6.185e-09
6.468e-09
6.79e-09
7.152e-09
7.556e-09
8.005e-09
8.499e-09
9.043e-09
9.638e-09
1.029e-08
1.099e-08
1.176e-08
1.26e-08
1.349e-08
1.447e-08
1.551e-08
1.663e-08
1.784e-08
1.908e-08
2.108e-08
-3.904e-55
3.836e-54
-3.003e-53
2.243e-52
-1.591e-51
1.068e-50
-6.737e-50
3.941e-49
-2.089e-48
9.43e-48
-3.234e-47
-1.265e-46
1.683e-45
-1.906e-44
1.75e-43
-1.425e-42
1.08e-41
-7.778e-41
5.39e-40
-3.617e-39
2.358e-38
-1.494e-37
9.2e-37
-5.48e-36
3.132e-35
-1.706e-34
8.854e-34
-4.308e-33
1.933e-32
-6.875e-32
9.402e-32
1.393e-30
-2.038e-29
1.941e-28
-1.577e-27
1.173e-26
-8.207e-26
5.478e-25
-3.513e-24
2.176e-23
-1.293e-22
7.837e-22
-2.851e-21
8.695e-20
1.667e-18
1.85e-17
1.796e-16
1.606e-15
1.325e-14
1.003e-13
6.926e-13
4.34e-12
2.454e-11
1.247e-10
5.666e-10
2.294e-09
8.249e-09
2.626e-08
7.389e-08
1.833e-07
4.008e-07
7.729e-07
1.319e-06
2.002e-06
2.724e-06
3.377e-06
3.863e-06
4.088e-06
4e-06
3.745e-06
3.345e-06
2.865e-06
2.368e-06
1.9e-06
1.489e-06
1.146e-06
8.701e-07
6.551e-07
4.911e-07
3.681e-07
2.767e-07
2.093e-07
1.598e-07
1.233e-07
9.635e-08
7.636e-08
6.143e-08
5.02e-08
4.169e-08
3.518e-08
3.017e-08
2.629e-08
2.326e-08
2.09e-08
1.904e-08
1.759e-08
1.646e-08
1.559e-08
1.495e-08
1.448e-08
1.417e-08
1.397e-08
1.394e-08
1.401e-08
1.417e-08
1.442e-08
1.477e-08
1.521e-08
1.574e-08
1.636e-08
1.708e-08
1.789e-08
1.879e-08
1.98e-08
2.092e-08
2.215e-08
2.349e-08
2.496e-08
2.655e-08
2.828e-08
3.016e-08
3.218e-08
3.435e-08
3.669e-08
3.919e-08
4.188e-08
4.462e-08
4.907e-08
1.717e-54
-1.466e-53
1.095e-52
-8.626e-52
6.987e-51
-5.693e-50
4.58e-49
-3.6e-48
2.751e-47
-2.043e-46
1.478e-45
-1.045e-44
7.232e-44
-4.926e-43
3.307e-42
-2.194e-41
1.441e-40
-9.391e-40
6.077e-39
-3.91e-38
2.502e-37
-1.594e-36
1.011e-35
-6.384e-35
4.012e-34
-2.509e-33
1.56e-32
-9.64e-32
5.915e-31
-3.603e-30
2.177e-29
-1.304e-28
7.737e-28
-4.543e-27
2.638e-26
-1.514e-25
8.569e-25
-4.781e-24
2.628e-23
-1.413e-22
7.703e-22
-3.482e-21
3.889e-20
1.142e-18
1.455e-17
1.577e-16
1.575e-15
1.454e-14
1.235e-13
9.592e-13
6.772e-12
4.32e-11
2.475e-10
1.267e-09
5.765e-09
2.323e-08
8.26e-08
2.583e-07
7.082e-07
1.699e-06
3.562e-06
6.539e-06
1.056e-05
1.506e-05
1.921e-05
2.239e-05
2.401e-05
2.35e-05
2.195e-05
1.948e-05
1.653e-05
1.349e-05
1.065e-05
8.196e-06
6.174e-06
4.578e-06
3.358e-06
2.447e-06
1.78e-06
1.297e-06
9.494e-07
7.009e-07
5.23e-07
3.953e-07
3.03e-07
2.36e-07
1.868e-07
1.504e-07
1.231e-07
1.026e-07
8.695e-08
7.493e-08
6.562e-08
5.837e-08
5.27e-08
4.827e-08
4.48e-08
4.212e-08
4.006e-08
3.854e-08
3.745e-08
3.675e-08
3.631e-08
3.633e-08
3.653e-08
3.697e-08
3.765e-08
3.856e-08
3.97e-08
4.105e-08
4.263e-08
4.444e-08
4.647e-08
4.874e-08
5.125e-08
5.402e-08
5.705e-08
6.036e-08
6.395e-08
6.785e-08
7.205e-08
7.658e-08
8.145e-08
8.667e-08
9.225e-08
9.824e-08
1.043e-07
1.142e-07
1.344e-53
-1.31e-52
1.038e-51
-7.948e-51
5.861e-50
-4.17e-49
2.872e-48
-1.922e-47
1.256e-46
-8.057e-46
5.096e-45
-3.192e-44
1.989e-43
-1.235e-42
7.671e-42
-4.768e-41
2.968e-40
-1.852e-39
1.158e-38
-7.265e-38
4.57e-37
-2.885e-36
1.829e-35
-1.165e-34
7.475e-34
-4.79e-33
3.057e-32
-1.943e-31
1.229e-30
-7.731e-30
4.835e-29
-3.005e-28
1.854e-27
-1.135e-26
6.893e-26
-4.146e-25
2.469e-24
-1.453e-23
8.472e-23
-4.796e-22
2.964e-21
-1.238e-20
4.065e-19
8.628e-18
1.082e-16
1.202e-15
1.236e-14
1.175e-13
1.024e-12
8.132e-12
5.845e-11
3.776e-10
2.179e-09
1.117e-08
5.053e-08
2.011e-07
7.005e-07
2.13e-06
5.637e-06
1.294e-05
2.58e-05
4.478e-05
6.807e-05
9.083e-05
0.0001089
0.0001199
0.000118
0.0001107
9.855e-05
8.355e-05
6.796e-05
5.337e-05
4.072e-05
3.033e-05
2.218e-05
1.599e-05
1.143e-05
8.128e-06
5.778e-06
4.121e-06
2.959e-06
2.146e-06
1.575e-06
1.172e-06
8.863e-07
6.815e-07
5.332e-07
4.248e-07
3.445e-07
2.845e-07
2.391e-07
2.045e-07
1.778e-07
1.571e-07
1.41e-07
1.283e-07
1.184e-07
1.107e-07
1.048e-07
1.003e-07
9.694e-08
9.464e-08
9.323e-08
9.25e-08
9.272e-08
9.345e-08
9.474e-08
9.66e-08
9.901e-08
1.02e-07
1.054e-07
1.094e-07
1.14e-07
1.191e-07
1.247e-07
1.309e-07
1.378e-07
1.452e-07
1.533e-07
1.62e-07
1.714e-07
1.816e-07
1.925e-07
2.041e-07
2.166e-07
2.299e-07
2.433e-07
2.652e-07
-3.598e-53
3.519e-52
-2.798e-51
2.153e-50
-1.597e-49
1.142e-48
-7.887e-48
5.267e-47
-3.408e-46
2.142e-45
-1.312e-44
7.852e-44
-4.615e-43
2.676e-42
-1.541e-41
8.865e-41
-5.139e-40
3.025e-39
-1.821e-38
1.127e-37
-7.175e-37
4.694e-36
-3.141e-35
2.137e-34
-1.473e-33
1.004e-32
-6.734e-32
4.459e-31
-2.917e-30
1.887e-29
-1.208e-28
7.662e-28
-4.813e-27
2.997e-26
-1.849e-25
1.131e-24
-6.854e-24
4.12e-23
-2.439e-22
1.505e-21
-5.567e-21
1.838e-19
4.257e-18
5.813e-17
7.114e-16
8.106e-15
8.569e-14
8.345e-13
7.432e-12
6.007e-11
4.372e-10
2.843e-09
1.64e-08
8.338e-08
3.713e-07
1.441e-06
4.857e-06
1.416e-05
3.565e-05
7.727e-05
0.0001449
0.0002357
0.0003352
0.0004179
0.0004815
0.000479
0.0004561
0.0004111
0.0003524
0.0002892
0.0002287
0.0001753
0.0001309
9.558e-05
6.861e-05
4.862e-05
3.418e-05
2.393e-05
1.676e-05
1.179e-05
8.364e-06
5.995e-06
4.354e-06
3.211e-06
2.407e-06
1.837e-06
1.428e-06
1.131e-06
9.12e-07
7.494e-07
6.27e-07
5.34e-07
4.625e-07
4.071e-07
3.64e-07
3.302e-07
3.037e-07
2.83e-07
2.668e-07
2.545e-07
2.453e-07
2.386e-07
2.344e-07
2.315e-07
2.315e-07
2.325e-07
2.349e-07
2.387e-07
2.438e-07
2.502e-07
2.579e-07
2.667e-07
2.769e-07
2.882e-07
3.009e-07
3.148e-07
3.301e-07
3.468e-07
3.649e-07
3.845e-07
4.056e-07
4.282e-07
4.525e-07
4.784e-07
5.06e-07
5.355e-07
5.652e-07
6.136e-07
1.224e-52
-1.122e-51
8.622e-51
-6.63e-50
5.058e-49
-3.815e-48
2.837e-47
-2.076e-46
1.491e-45
-1.051e-44
7.277e-44
-4.947e-43
3.307e-42
-2.176e-41
1.412e-40
-9.051e-40
5.737e-39
-3.601e-38
2.242e-37
-1.386e-36
8.51e-36
-5.199e-35
3.161e-34
-1.913e-33
1.154e-32
-6.916e-32
4.125e-31
-2.448e-30
1.447e-29
-8.517e-29
4.994e-28
-2.918e-27
1.699e-26
-9.859e-26
5.705e-25
-3.292e-24
1.895e-23
-1.084e-22
6.388e-22
-2.796e-21
4.922e-20
1.589e-18
2.426e-17
3.262e-16
4.092e-15
4.785e-14
5.18e-13
5.15e-12
4.665e-11
3.815e-10
2.794e-09
1.815e-08
1.037e-07
5.172e-07
2.237e-06
8.339e-06
2.671e-05
7.332e-05
0.0001723
0.0003473
0.0006056
0.0009132
0.001205
0.001427
0.001503
0.001455
0.00134
0.001175
0.0009869
0.0007984
0.000625
0.0004752
0.0003524
0.0002558
0.0001825
0.0001285
8.975e-05
6.243e-05
4.346e-05
3.039e-05
2.143e-05
1.529e-05
1.106e-05
8.124e-06
6.073e-06
4.623e-06
3.586e-06
2.834e-06
2.284e-06
1.874e-06
1.567e-06
1.333e-06
1.154e-06
1.015e-06
9.064e-07
8.214e-07
7.547e-07
7.023e-07
6.615e-07
6.299e-07
6.061e-07
5.887e-07
5.77e-07
5.696e-07
5.67e-07
5.687e-07
5.733e-07
5.811e-07
5.921e-07
6.06e-07
6.229e-07
6.426e-07
6.651e-07
6.905e-07
7.188e-07
7.5e-07
7.843e-07
8.215e-07
8.62e-07
9.056e-07
9.526e-07
1.003e-06
1.057e-06
1.114e-06
1.175e-06
1.24e-06
1.305e-06
1.411e-06
2.629e-52
-2.587e-51
2.085e-50
-1.638e-49
1.248e-48
-9.227e-48
6.622e-47
-4.619e-46
3.139e-45
-2.082e-44
1.352e-43
-8.62e-43
5.413e-42
-3.359e-41
2.067e-40
-1.265e-39
7.726e-39
-4.72e-38
2.89e-37
-1.778e-36
1.099e-35
-6.839e-35
4.281e-34
-2.697e-33
1.709e-32
-1.079e-31
6.766e-31
-4.221e-30
2.62e-29
-1.62e-28
9.978e-28
-6.127e-27
3.753e-26
-2.294e-25
1.4e-24
-8.539e-24
5.207e-23
-3.155e-22
2.026e-21
-7.041e-21
2.974e-19
7.641e-18
1.163e-16
1.598e-15
2.053e-14
2.454e-13
2.709e-12
2.738e-11
2.51e-10
2.066e-09
1.512e-08
9.73e-08
5.452e-07
2.635e-06
1.089e-05
3.832e-05
0.0001144
0.0002896
0.0006236
0.001154
0.001848
0.002556
0.003119
0.003484
0.003442
0.00326
0.002955
0.002578
0.002171
0.001767
0.001394
0.001069
0.000799
0.000584
0.000419
0.0002963
0.0002076
0.0001447
0.0001009
7.067e-05
4.99e-05
3.565e-05
2.583e-05
1.901e-05
1.425e-05
1.087e-05
8.454e-06
6.701e-06
5.413e-06
4.455e-06
3.734e-06
3.184e-06
2.762e-06
2.434e-06
2.178e-06
1.976e-06
1.818e-06
1.693e-06
1.595e-06
1.52e-06
1.462e-06
1.42e-06
1.391e-06
1.373e-06
1.364e-06
1.367e-06
1.376e-06
1.393e-06
1.417e-06
1.447e-06
1.485e-06
1.529e-06
1.579e-06
1.636e-06
1.699e-06
1.769e-06
1.845e-06
1.928e-06
2.018e-06
2.115e-06
2.218e-06
2.33e-06
2.448e-06
2.574e-06
2.708e-06
2.85e-06
2.991e-06
3.221e-06
-6.975e-52
6.478e-51
-5.021e-50
3.877e-49
-2.958e-48
2.225e-47
-1.647e-46
1.198e-45
-8.555e-45
5.996e-44
-4.126e-43
2.789e-42
-1.854e-41
1.212e-40
-7.814e-40
4.969e-39
-3.121e-38
1.94e-37
-1.194e-36
7.29e-36
-4.418e-35
2.661e-34
-1.594e-33
9.509e-33
-5.65e-32
3.338e-31
-1.965e-30
1.153e-29
-6.753e-29
3.95e-28
-2.309e-27
1.35e-26
-7.905e-26
4.637e-25
-2.727e-24
1.61e-23
-9.522e-23
5.851e-22
-2.595e-21
5.752e-20
1.956e-18
3.261e-17
4.866e-16
6.817e-15
8.938e-14
1.089e-12
1.221e-11
1.25e-10
1.154e-09
9.511e-09
6.91e-08
4.371e-07
2.377e-06
1.099e-05
4.276e-05
0.0001394
0.0003802
0.0008713
0.001694
0.002876
0.004168
0.005367
0.006026
0.006403
0.006128
0.005652
0.005146
0.004576
0.00392
0.003246
0.002608
0.002037
0.00155
0.001152
0.0008388
0.0006009
0.0004257
0.0002997
0.0002108
0.0001488
0.0001059
7.623e-05
5.564e-05
4.127e-05
3.114e-05
2.394e-05
1.875e-05
1.496e-05
1.217e-05
1.008e-05
8.494e-06
7.284e-06
6.349e-06
5.621e-06
5.05e-06
4.6e-06
4.245e-06
3.964e-06
3.744e-06
3.573e-06
3.443e-06
3.348e-06
3.281e-06
3.24e-06
3.22e-06
3.226e-06
3.247e-06
3.285e-06
3.338e-06
3.407e-06
3.491e-06
3.589e-06
3.702e-06
3.829e-06
3.969e-06
4.124e-06
4.294e-06
4.477e-06
4.675e-06
4.888e-06
5.116e-06
5.359e-06
5.617e-06
5.89e-06
6.178e-06
6.483e-06
6.786e-06
7.276e-06
-1.01e-51
9.916e-51
-8.023e-50
6.367e-49
-4.927e-48
3.716e-47
-2.731e-46
1.957e-45
-1.369e-44
9.367e-44
-6.276e-43
4.128e-42
-2.671e-41
1.705e-40
-1.075e-39
6.719e-39
-4.168e-38
2.572e-37
-1.581e-36
9.699e-36
-5.945e-35
3.645e-34
-2.238e-33
1.377e-32
-8.485e-32
5.219e-31
-3.197e-30
1.952e-29
-1.19e-28
7.246e-28
-4.414e-27
2.693e-26
-1.647e-25
1.01e-24
-6.231e-24
3.867e-23
-2.403e-22
1.595e-21
-5.704e-21
2.493e-19
7.002e-18
1.166e-16
1.771e-15
2.528e-14
3.373e-13
4.172e-12
4.74e-11
4.893e-10
4.536e-09
3.726e-08
2.674e-07
1.651e-06
8.637e-06
3.774e-05
0.0001362
0.0004048
0.0009932
0.002036
0.003553
0.005645
0.007316
0.01017
0.01035
0.01004
0.0102
0.01038
0.009901
0.007622
0.006189
0.005184
0.004249
0.003394
0.00264
0.002003
0.001487
0.001085
0.0007816
0.0005589
0.0003989
0.0002856
0.000206
0.0001502
0.000111
8.335e-05
6.367e-05
4.951e-05
3.921e-05
3.163e-05
2.599e-05
2.173e-05
1.848e-05
1.598e-05
1.404e-05
1.252e-05
1.132e-05