/*--------------------------------*- C++ -*----------------------------------*\
  =========                 |
  \\      /  F ield         | OpenFOAM: The Open Source CFD Toolbox
   \\    /   O peration     | Website:  https://openfoam.org
    \\  /    A nd           | Version:  7
     \\/     M anipulation  |
\*---------------------------------------------------------------------------*/
FoamFile
{
    version     2.0;
    format      ascii;
    class       volScalarField;
    location    "779.999473410820883";
    object      p;
}
// * * * * * * * * * * * * * * * * * * * * * * * * * * * * * * * * * * * * * //

dimensions      [0 2 -2 0 0 0 0];

internalField   nonuniform List<scalar> 
4096
(
0.0006413
0.0004704
0.0003861
0.000344
0.0003206
0.0003067
0.0002978
0.0002918
0.0002874
0.0002841
0.0002816
0.0002796
0.0002779
0.0002766
0.0002754
0.0002744
0.0002735
0.0002727
0.000272
0.0002714
0.0002708
0.0002702
0.0002696
0.0002691
0.0002686
0.0002681
0.0002676
0.0002671
0.0002666
0.0002661
0.0002656
0.000265
0.0002645
0.0002639
0.0002632
0.0002625
0.0002617
0.0002609
0.0002599
0.0002589
0.0002577
0.0002564
0.0002548
0.0002531
0.0002512
0.000249
0.0002465
0.0002438
0.0002406
0.0002371
0.0002333
0.0002289
0.0002242
0.000219
0.0002133
0.0002072
0.0002006
0.0001936
0.0001862
0.0001784
0.0001704
0.000162
0.0001536
0.000145
0.0001364
0.0001278
0.0001194
0.0001112
0.0001032
9.554e-05
8.823e-05
8.131e-05
7.48e-05
6.871e-05
6.305e-05
5.782e-05
5.302e-05
4.863e-05
4.464e-05
4.104e-05
3.779e-05
3.488e-05
3.227e-05
2.995e-05
2.789e-05
2.605e-05
2.442e-05
2.297e-05
2.169e-05
2.054e-05
1.951e-05
1.858e-05
1.774e-05
1.698e-05
1.628e-05
1.563e-05
1.502e-05
1.445e-05
1.39e-05
1.338e-05
1.287e-05
1.238e-05
1.19e-05
1.143e-05
1.096e-05
1.049e-05
1.003e-05
9.563e-06
9.099e-06
8.634e-06
8.167e-06
7.698e-06
7.226e-06
6.751e-06
6.273e-06
5.792e-06
5.307e-06
4.818e-06
4.326e-06
3.83e-06
3.331e-06
2.829e-06
2.326e-06
1.824e-06
1.327e-06
8.421e-07
3.86e-07
5.173e-08
0.0004968
0.0004331
0.0003833
0.0003513
0.0003303
0.0003161
0.000306
0.0002987
0.0002932
0.000289
0.0002857
0.000283
0.0002808
0.000279
0.0002775
0.0002761
0.000275
0.0002739
0.000273
0.0002722
0.0002714
0.0002707
0.00027
0.0002693
0.0002687
0.000268
0.0002674
0.0002668
0.0002662
0.0002655
0.0002649
0.0002642
0.0002635
0.0002627
0.0002619
0.0002611
0.0002602
0.0002592
0.0002581
0.0002568
0.0002555
0.000254
0.0002523
0.0002505
0.0002484
0.0002461
0.0002435
0.0002406
0.0002374
0.0002338
0.0002299
0.0002256
0.0002209
0.0002158
0.0002102
0.0002042
0.0001979
0.0001911
0.000184
0.0001766
0.0001689
0.000161
0.0001529
0.0001447
0.0001366
0.0001284
0.0001204
0.0001126
0.000105
9.763e-05
9.061e-05
8.393e-05
7.762e-05
7.169e-05
6.616e-05
6.102e-05
5.626e-05
5.189e-05
4.789e-05
4.424e-05
4.093e-05
3.793e-05
3.523e-05
3.279e-05
3.06e-05
2.863e-05
2.686e-05
2.527e-05
2.384e-05
2.256e-05
2.139e-05
2.033e-05
1.936e-05
1.847e-05
1.765e-05
1.689e-05
1.617e-05
1.55e-05
1.486e-05
1.425e-05
1.367e-05
1.31e-05
1.255e-05
1.201e-05
1.149e-05
1.097e-05
1.046e-05
9.949e-06
9.445e-06
8.943e-06
8.444e-06
7.945e-06
7.447e-06
6.948e-06
6.449e-06
5.949e-06
5.448e-06
4.945e-06
4.441e-06
3.936e-06
3.429e-06
2.922e-06
2.415e-06
1.911e-06
1.412e-06
9.23e-07
4.532e-07
7.957e-08
0.0004133
0.0003917
0.0003662
0.0003455
0.0003299
0.0003182
0.0003093
0.0003022
0.0002967
0.0002922
0.0002886
0.0002856
0.0002831
0.000281
0.0002792
0.0002776
0.0002762
0.000275
0.0002739
0.0002729
0.000272
0.0002711
0.0002702
0.0002695
0.0002687
0.0002679
0.0002672
0.0002665
0.0002657
0.000265
0.0002642
0.0002634
0.0002625
0.0002617
0.0002607
0.0002597
0.0002587
0.0002575
0.0002563
0.0002549
0.0002535
0.0002518
0.00025
0.000248
0.0002458
0.0002434
0.0002407
0.0002377
0.0002344
0.0002309
0.0002269
0.0002226
0.000218
0.0002129
0.0002075
0.0002017
0.0001955
0.000189
0.0001821
0.000175
0.0001676
0.00016
0.0001523
0.0001445
0.0001367
0.0001289
0.0001213
0.0001138
0.0001065
9.942e-05
9.266e-05
8.621e-05
8.009e-05
7.432e-05
6.891e-05
6.386e-05
5.916e-05
5.482e-05
5.082e-05
4.715e-05
4.379e-05
4.072e-05
3.794e-05
3.541e-05
3.311e-05
3.103e-05
2.915e-05
2.744e-05
2.588e-05
2.447e-05
2.318e-05
2.2e-05
2.091e-05
1.991e-05
1.898e-05
1.812e-05
1.73e-05
1.654e-05
1.581e-05
1.512e-05
1.446e-05
1.382e-05
1.32e-05
1.26e-05
1.202e-05
1.145e-05
1.089e-05
1.034e-05
9.795e-06
9.258e-06
8.726e-06
8.198e-06
7.673e-06
7.151e-06
6.631e-06
6.112e-06
5.594e-06
5.077e-06
4.561e-06
4.044e-06
3.529e-06
3.014e-06
2.5e-06
1.989e-06
1.481e-06
9.801e-07
4.885e-07
8.399e-08
0.0003686
0.0003615
0.0003482
0.000335
0.0003242
0.0003154
0.0003083
0.0003024
0.0002975
0.0002934
0.0002899
0.000287
0.0002844
0.0002822
0.0002803
0.0002786
0.0002771
0.0002758
0.0002745
0.0002734
0.0002724
0.0002714
0.0002704
0.0002695
0.0002687
0.0002678
0.000267
0.0002661
0.0002653
0.0002644
0.0002636
0.0002626
0.0002617
0.0002607
0.0002597
0.0002586
0.0002574
0.0002561
0.0002548
0.0002533
0.0002517
0.00025
0.0002481
0.000246
0.0002437
0.0002412
0.0002384
0.0002354
0.0002321
0.0002284
0.0002245
0.0002202
0.0002156
0.0002107
0.0002053
0.0001997
0.0001936
0.0001873
0.0001807
0.0001737
0.0001666
0.0001593
0.0001518
0.0001443
0.0001368
0.0001293
0.0001219
0.0001147
0.0001076
0.0001008
9.425e-05
8.798e-05
8.203e-05
7.639e-05
7.109e-05
6.612e-05
6.148e-05
5.717e-05
5.318e-05
4.95e-05
4.612e-05
4.302e-05
4.018e-05
3.759e-05
3.522e-05
3.306e-05
3.108e-05
2.928e-05
2.763e-05
2.612e-05
2.474e-05
2.346e-05
2.228e-05
2.118e-05
2.016e-05
1.921e-05
1.831e-05
1.746e-05
1.666e-05
1.59e-05
1.517e-05
1.447e-05
1.38e-05
1.314e-05
1.251e-05
1.189e-05
1.129e-05
1.07e-05
1.012e-05
9.552e-06
8.99e-06
8.435e-06
7.886e-06
7.342e-06
6.802e-06
6.266e-06
5.733e-06
5.202e-06
4.673e-06
4.146e-06
3.62e-06
3.096e-06
2.573e-06
2.052e-06
1.533e-06
1.017e-06
5.046e-07
8.036e-08
0.0003417
0.0003407
0.0003337
0.0003251
0.0003174
0.0003108
0.0003053
0.0003006
0.0002966
0.000293
0.00029
0.0002872
0.0002849
0.0002827
0.0002808
0.0002792
0.0002776
0.0002762
0.0002749
0.0002737
0.0002726
0.0002716
0.0002705
0.0002696
0.0002686
0.0002677
0.0002668
0.0002658
0.0002649
0.000264
0.000263
0.000262
0.000261
0.0002599
0.0002588
0.0002576
0.0002563
0.000255
0.0002535
0.0002519
0.0002503
0.0002484
0.0002464
0.0002443
0.0002419
0.0002394
0.0002366
0.0002335
0.0002302
0.0002266
0.0002226
0.0002184
0.0002138
0.0002089
0.0002037
0.0001981
0.0001922
0.000186
0.0001795
0.0001728
0.0001658
0.0001587
0.0001514
0.0001441
0.0001368
0.0001295
0.0001223
0.0001153
0.0001084
0.0001018
9.543e-05
8.931e-05
8.349e-05
7.797e-05
7.275e-05
6.786e-05
6.328e-05
5.901e-05
5.504e-05
5.137e-05
4.798e-05
4.486e-05
4.199e-05
3.935e-05
3.694e-05
3.472e-05
3.268e-05
3.081e-05
2.91e-05
2.751e-05
2.605e-05
2.47e-05
2.344e-05
2.227e-05
2.118e-05
2.015e-05
1.918e-05
1.827e-05
1.741e-05
1.659e-05
1.58e-05
1.505e-05
1.432e-05
1.362e-05
1.295e-05
1.229e-05
1.165e-05
1.102e-05
1.041e-05
9.816e-06
9.228e-06
8.649e-06
8.079e-06
7.515e-06
6.958e-06
6.406e-06
5.858e-06
5.315e-06
4.774e-06
4.237e-06
3.701e-06
3.167e-06
2.635e-06
2.104e-06
1.573e-06
1.044e-06
5.145e-07
7.622e-08
0.0003243
0.0003258
0.0003225
0.0003168
0.0003111
0.0003061
0.0003017
0.000298
0.0002947
0.0002918
0.0002891
0.0002868
0.0002846
0.0002827
0.0002809
0.0002793
0.0002778
0.0002764
0.0002751
0.0002739
0.0002727
0.0002716
0.0002706
0.0002695
0.0002685
0.0002675
0.0002665
0.0002656
0.0002646
0.0002636
0.0002625
0.0002615
0.0002604
0.0002592
0.000258
0.0002568
0.0002554
0.000254
0.0002525
0.0002509
0.0002491
0.0002472
0.0002452
0.000243
0.0002406
0.000238
0.0002351
0.0002321
0.0002287
0.0002251
0.0002212
0.000217
0.0002125
0.0002076
0.0002025
0.000197
0.0001912
0.0001851
0.0001787
0.0001721
0.0001652
0.0001582
0.0001511
0.000144
0.0001368
0.0001297
0.0001226
0.0001157
0.000109
0.0001025
9.626e-05
9.026e-05
8.454e-05
7.911e-05
7.397e-05
6.914e-05
6.46e-05
6.037e-05
5.643e-05
5.278e-05
4.939e-05
4.627e-05
4.338e-05
4.073e-05
3.828e-05
3.603e-05
3.395e-05
3.204e-05
3.027e-05
2.864e-05
2.712e-05
2.571e-05
2.44e-05
2.317e-05
2.202e-05
2.094e-05
1.992e-05
1.895e-05
1.804e-05
1.717e-05
1.633e-05
1.554e-05
1.477e-05
1.403e-05
1.332e-05
1.263e-05
1.196e-05
1.13e-05
1.067e-05
1.004e-05
9.434e-06
8.835e-06
8.246e-06
7.666e-06
7.094e-06
6.528e-06
5.968e-06
5.413e-06
4.862e-06
4.315e-06
3.771e-06
3.228e-06
2.687e-06
2.147e-06
1.607e-06
1.066e-06
5.224e-07
7.321e-08
0.0003124
0.0003149
0.0003136
0.0003099
0.0003058
0.0003018
0.0002983
0.0002952
0.0002925
0.0002901
0.0002878
0.0002858
0.0002839
0.0002822
0.0002805
0.000279
0.0002776
0.0002763
0.000275
0.0002738
0.0002727
0.0002716
0.0002705
0.0002694
0.0002684
0.0002674
0.0002663
0.0002653
0.0002643
0.0002632
0.0002621
0.000261
0.0002599
0.0002587
0.0002574
0.0002561
0.0002547
0.0002533
0.0002517
0.00025
0.0002482
0.0002463
0.0002442
0.000242
0.0002396
0.000237
0.0002341
0.0002311
0.0002277
0.0002241
0.0002203
0.0002161
0.0002116
0.0002068
0.0002017
0.0001962
0.0001905
0.0001844
0.0001781
0.0001716
0.0001648
0.0001579
0.0001509
0.0001438
0.0001367
0.0001297
0.0001227
0.0001159
0.0001093
0.0001029
9.677e-05
9.086e-05
8.521e-05
7.985e-05
7.477e-05
6.999e-05
6.55e-05
6.13e-05
5.739e-05
5.376e-05
5.039e-05
4.727e-05
4.439e-05
4.173e-05
3.927e-05
3.7e-05
3.491e-05
3.297e-05
3.117e-05
2.95e-05
2.795e-05
2.65e-05
2.515e-05
2.388e-05
2.269e-05
2.156e-05
2.05e-05
1.95e-05
1.854e-05
1.763e-05
1.677e-05
1.593e-05
1.513e-05
1.437e-05
1.362e-05
1.291e-05
1.221e-05
1.153e-05
1.088e-05
1.023e-05
9.604e-06
8.988e-06
8.384e-06
7.79e-06
7.205e-06
6.628e-06
6.058e-06
5.494e-06
4.935e-06
4.38e-06
3.828e-06
3.278e-06
2.73e-06
2.182e-06
1.634e-06
1.084e-06
5.299e-07
7.198e-08
0.0003038
0.0003065
0.0003064
0.0003042
0.0003011
0.000298
0.0002952
0.0002926
0.0002903
0.0002882
0.0002863
0.0002846
0.000283
0.0002814
0.00028
0.0002786
0.0002773
0.000276
0.0002748
0.0002736
0.0002725
0.0002714
0.0002703
0.0002693
0.0002682
0.0002672
0.0002661
0.0002651
0.000264
0.0002629
0.0002618
0.0002607
0.0002595
0.0002583
0.000257
0.0002557
0.0002542
0.0002527
0.0002511
0.0002495
0.0002476
0.0002457
0.0002436
0.0002414
0.000239
0.0002363
0.0002335
0.0002305
0.0002271
0.0002236
0.0002197
0.0002155
0.0002111
0.0002063
0.0002012
0.0001958
0.0001901
0.0001841
0.0001778
0.0001713
0.0001646
0.0001577
0.0001507
0.0001436
0.0001366
0.0001296
0.0001227
0.000116
0.0001094
0.0001031
9.699e-05
9.114e-05
8.554e-05
8.022e-05
7.519e-05
7.044e-05
6.598e-05
6.182e-05
5.793e-05
5.432e-05
5.098e-05
4.788e-05
4.501e-05
4.236e-05
3.991e-05
3.765e-05
3.555e-05
3.36e-05
3.179e-05
3.011e-05
2.853e-05
2.707e-05
2.569e-05
2.439e-05
2.318e-05
2.203e-05
2.094e-05
1.99e-05
1.892e-05
1.799e-05
1.709e-05
1.623e-05
1.541e-05
1.462e-05
1.386e-05
1.312e-05
1.24e-05
1.171e-05
1.103e-05
1.038e-05
9.733e-06
9.105e-06
8.49e-06
7.885e-06
7.291e-06
6.705e-06
6.127e-06
5.556e-06
4.99e-06
4.429e-06
3.872e-06
3.317e-06
2.764e-06
2.211e-06
1.657e-06
1.1e-06
5.379e-07
7.282e-08
0.0002973
0.0003
0.0003006
0.0002993
0.0002972
0.0002947
0.0002924
0.0002902
0.0002882
0.0002865
0.0002848
0.0002833
0.0002819
0.0002805
0.0002792
0.000278
0.0002767
0.0002756
0.0002744
0.0002733
0.0002723
0.0002712
0.0002701
0.0002691
0.0002681
0.000267
0.000266
0.0002649
0.0002638
0.0002627
0.0002616
0.0002605
0.0002593
0.000258
0.0002567
0.0002554
0.0002539
0.0002524
0.0002508
0.0002491
0.0002473
0.0002454
0.0002433
0.0002411
0.0002387
0.0002361
0.0002333
0.0002302
0.0002269
0.0002234
0.0002195
0.0002154
0.0002109
0.0002062
0.0002011
0.0001957
0.00019
0.000184
0.0001777
0.0001712
0.0001644
0.0001575
0.0001505
0.0001435
0.0001364
0.0001294
0.0001226
0.0001159
0.0001093
0.000103
9.693e-05
9.11e-05
8.553e-05
8.023e-05
7.522e-05
7.05e-05
6.607e-05
6.193e-05
5.807e-05
5.449e-05
5.118e-05
4.811e-05
4.527e-05
4.265e-05
4.022e-05
3.797e-05
3.589e-05
3.395e-05
3.214e-05
3.046e-05
2.889e-05
2.741e-05
2.602e-05
2.472e-05
2.349e-05
2.232e-05
2.122e-05
2.017e-05
1.917e-05
1.822e-05
1.731e-05
1.643e-05
1.56e-05
1.479e-05
1.401e-05
1.326e-05
1.253e-05
1.182e-05
1.114e-05
1.047e-05
9.82e-06
9.183e-06
8.56e-06
7.948e-06
7.348e-06
6.756e-06
6.173e-06
5.598e-06
5.028e-06
4.463e-06
3.903e-06
3.345e-06
2.788e-06
2.232e-06
1.675e-06
1.114e-06
5.469e-07
7.592e-08
0.0002922
0.0002948
0.0002957
0.0002952
0.0002937
0.0002918
0.0002899
0.0002881
0.0002864
0.0002848
0.0002834
0.000282
0.0002808
0.0002796
0.0002784
0.0002773
0.0002762
0.0002751
0.000274
0.000273
0.000272
0.0002709
0.0002699
0.0002689
0.0002679
0.0002669
0.0002658
0.0002648
0.0002637
0.0002626
0.0002615
0.0002603
0.0002591
0.0002579
0.0002566
0.0002552
0.0002538
0.0002523
0.0002507
0.000249
0.0002473
0.0002453
0.0002433
0.0002411
0.0002387
0.0002361
0.0002334
0.0002304
0.0002271
0.0002236
0.0002198
0.0002156
0.0002112
0.0002064
0.0002013
0.0001959
0.0001902
0.0001841
0.0001778
0.0001712
0.0001645
0.0001575
0.0001504
0.0001433
0.0001362
0.0001292
0.0001223
0.0001155
0.000109
0.0001027
9.659e-05
9.075e-05
8.517e-05
7.987e-05
7.487e-05
7.015e-05
6.574e-05
6.163e-05
5.781e-05
5.427e-05
5.099e-05
4.797e-05
4.517e-05
4.259e-05
4.02e-05
3.798e-05
3.593e-05
3.402e-05
3.223e-05
3.057e-05
2.901e-05
2.754e-05
2.616e-05
2.486e-05
2.363e-05
2.246e-05
2.135e-05
2.03e-05
1.929e-05
1.833e-05
1.741e-05
1.653e-05
1.569e-05
1.487e-05
1.409e-05
1.333e-05
1.259e-05
1.188e-05
1.119e-05
1.052e-05
9.861e-06
9.22e-06
8.593e-06
7.978e-06
7.375e-06
6.781e-06
6.196e-06
5.618e-06
5.047e-06
4.481e-06
3.92e-06
3.361e-06
2.804e-06
2.247e-06
1.688e-06
1.126e-06
5.569e-07
8.144e-08
0.0002882
0.0002905
0.0002917
0.0002916
0.0002907
0.0002893
0.0002877
0.0002862
0.0002847
0.0002833
0.000282
0.0002808
0.0002797
0.0002786
0.0002776
0.0002766
0.0002756
0.0002746
0.0002736
0.0002726
0.0002716
0.0002707
0.0002697
0.0002687
0.0002677
0.0002667
0.0002657
0.0002647
0.0002637
0.0002626
0.0002615
0.0002603
0.0002591
0.0002579
0.0002566
0.0002553
0.0002539
0.0002524
0.0002509
0.0002492
0.0002474
0.0002456
0.0002436
0.0002414
0.0002391
0.0002366
0.0002338
0.0002309
0.0002277
0.0002242
0.0002204
0.0002163
0.0002119
0.0002071
0.000202
0.0001965
0.0001907
0.0001846
0.0001782
0.0001715
0.0001646
0.0001576
0.0001504
0.0001432
0.0001359
0.0001288
0.0001218
0.000115
0.0001084
0.0001021
9.594e-05
9.006e-05
8.445e-05
7.913e-05
7.411e-05
6.94e-05
6.501e-05
6.092e-05
5.714e-05
5.364e-05
5.042e-05
4.745e-05
4.471e-05
4.219e-05
3.985e-05
3.769e-05
3.568e-05
3.381e-05
3.207e-05
3.043e-05
2.89e-05
2.746e-05
2.61e-05
2.481e-05
2.359e-05
2.244e-05
2.134e-05
2.029e-05
1.929e-05
1.833e-05
1.741e-05
1.653e-05
1.569e-05
1.487e-05
1.409e-05
1.333e-05
1.259e-05
1.188e-05
1.119e-05
1.051e-05
9.858e-06
9.217e-06
8.589e-06
7.975e-06
7.372e-06
6.778e-06
6.194e-06
5.618e-06
5.048e-06
4.483e-06
3.923e-06
3.366e-06
2.81e-06
2.254e-06
1.697e-06
1.136e-06
5.684e-07
8.946e-08
0.0002849
0.0002871
0.0002883
0.0002886
0.000288
0.000287
0.0002858
0.0002845
0.0002832
0.000282
0.0002808
0.0002798
0.0002787
0.0002778
0.0002768
0.0002759
0.000275
0.000274
0.0002731
0.0002722
0.0002713
0.0002704
0.0002695
0.0002686
0.0002676
0.0002667
0.0002657
0.0002647
0.0002637
0.0002626
0.0002615
0.0002604
0.0002593
0.0002581
0.0002568
0.0002555
0.0002541
0.0002527
0.0002512
0.0002496
0.0002479
0.0002461
0.0002441
0.000242
0.0002398
0.0002373
0.0002347
0.0002318
0.0002286
0.0002252
0.0002215
0.0002174
0.000213
0.0002082
0.000203
0.0001975
0.0001916
0.0001854
0.0001788
0.000172
0.000165
0.0001578
0.0001504
0.000143
0.0001356
0.0001284
0.0001212
0.0001143
0.0001076
0.0001012
9.495e-05
8.9e-05
8.333e-05
7.797e-05
7.293e-05
6.821e-05
6.383e-05
5.978e-05
5.604e-05
5.261e-05
4.945e-05
4.656e-05
4.39e-05
4.145e-05
3.919e-05
3.71e-05
3.516e-05
3.335e-05
3.166e-05
3.007e-05
2.858e-05
2.718e-05
2.585e-05
2.459e-05
2.339e-05
2.226e-05
2.118e-05
2.014e-05
1.916e-05
1.821e-05
1.731e-05
1.643e-05
1.56e-05
1.479e-05
1.401e-05
1.326e-05
1.253e-05
1.182e-05
1.113e-05
1.046e-05
9.81e-06
9.172e-06
8.549e-06
7.938e-06
7.339e-06
6.749e-06
6.169e-06
5.596e-06
5.029e-06
4.469e-06
3.912e-06
3.359e-06
2.807e-06
2.256e-06
1.702e-06
1.145e-06
5.812e-07
1e-07
0.0002821
0.0002842
0.0002855
0.0002859
0.0002857
0.000285
0.000284
0.0002829
0.0002818
0.0002808
0.0002798
0.0002788
0.0002779
0.000277
0.0002761
0.0002752
0.0002744
0.0002736
0.0002727
0.0002719
0.000271
0.0002702
0.0002693
0.0002684
0.0002675
0.0002666
0.0002657
0.0002647
0.0002637
0.0002627
0.0002617
0.0002606
0.0002595
0.0002584
0.0002572
0.0002559
0.0002546
0.0002532
0.0002517
0.0002502
0.0002485
0.0002468
0.0002449
0.0002429
0.0002408
0.0002384
0.0002359
0.0002331
0.00023
0.0002267
0.000223
0.000219
0.0002146
0.0002098
0.0002046
0.0001989
0.0001929
0.0001866
0.0001799
0.0001729
0.0001656
0.0001582
0.0001506
0.0001429
0.0001353
0.0001278
0.0001204
0.0001133
0.0001065
9.99e-05
9.356e-05
8.75e-05
8.175e-05
7.633e-05
7.126e-05
6.654e-05
6.218e-05
5.817e-05
5.45e-05
5.115e-05
4.809e-05
4.53e-05
4.274e-05
4.039e-05
3.822e-05
3.622e-05
3.436e-05
3.263e-05
3.101e-05
2.949e-05
2.805e-05
2.67e-05
2.542e-05
2.42e-05
2.304e-05
2.194e-05
2.088e-05
1.987e-05
1.891e-05
1.799e-05
1.71e-05
1.624e-05
1.542e-05
1.463e-05
1.386e-05
1.312e-05
1.24e-05
1.17e-05
1.102e-05
1.036e-05
9.718e-06
9.089e-06
8.473e-06
7.869e-06
7.277e-06
6.694e-06
6.12e-06
5.553e-06
4.993e-06
4.439e-06
3.888e-06
3.341e-06
2.796e-06
2.251e-06
1.704e-06
1.153e-06
5.954e-07
1.131e-07
0.0002799
0.0002817
0.000283
0.0002836
0.0002836
0.0002832
0.0002824
0.0002816
0.0002807
0.0002797
0.0002788
0.0002779
0.0002771
0.0002763
0.0002755
0.0002747
0.0002739
0.0002731
0.0002724
0.0002716
0.0002708
0.00027
0.0002692
0.0002683
0.0002675
0.0002666
0.0002657
0.0002648
0.0002639
0.0002629
0.000262
0.0002609
0.0002599
0.0002588
0.0002576
0.0002564
0.0002552
0.0002538
0.0002525
0.000251
0.0002494
0.0002478
0.000246
0.0002441
0.0002421
0.0002399
0.0002374
0.0002348
0.0002318
0.0002286
0.000225
0.0002211
0.0002167
0.0002119
0.0002067
0.000201
0.0001948
0.0001883
0.0001813
0.0001741
0.0001666
0.0001588
0.0001508
0.0001428
0.0001348
0.000127
0.0001194
0.000112
0.000105
9.818e-05
9.167e-05
8.548e-05
7.963e-05
7.415e-05
6.904e-05
6.433e-05
6.002e-05
5.608e-05
5.25e-05
4.926e-05
4.632e-05
4.365e-05
4.122e-05
3.9e-05
3.695e-05
3.506e-05
3.331e-05
3.167e-05
3.014e-05
2.87e-05
2.733e-05
2.604e-05
2.482e-05
2.365e-05
2.254e-05
2.147e-05
2.046e-05
1.949e-05
1.855e-05
1.766e-05
1.679e-05
1.596e-05
1.516e-05
1.439e-05
1.364e-05
1.292e-05
1.221e-05
1.153e-05
1.087e-05
1.022e-05
9.586e-06
8.968e-06
8.363e-06
7.77e-06
7.187e-06
6.614e-06
6.049e-06
5.491e-06
4.94e-06
4.394e-06
3.852e-06
3.313e-06
2.776e-06
2.239e-06
1.701e-06
1.159e-06
6.111e-07
1.286e-07
0.0002779
0.0002797
0.000281
0.0002816
0.0002818
0.0002816
0.000281
0.0002804
0.0002796
0.0002788
0.000278
0.0002772
0.0002764
0.0002756
0.0002749
0.0002742
0.0002735
0.0002728
0.000272
0.0002713
0.0002706
0.0002698
0.0002691
0.0002683
0.0002675
0.0002667
0.0002659
0.000265
0.0002641
0.0002632
0.0002623
0.0002613
0.0002603
0.0002593
0.0002582
0.0002571
0.0002559
0.0002547
0.0002534
0.000252
0.0002506
0.000249
0.0002474
0.0002456
0.0002437
0.0002416
0.0002394
0.0002369
0.0002341
0.000231
0.0002276
0.0002237
0.0002195
0.0002147
0.0002095
0.0002037
0.0001974
0.0001907
0.0001835
0.0001759
0.000168
0.0001598
0.0001513
0.0001427
0.0001343
0.000126
0.0001179
0.0001103
0.0001029
9.586e-05
8.915e-05
8.28e-05
7.686e-05
7.132e-05
6.621e-05
6.154e-05
5.729e-05
5.346e-05
5.002e-05
4.692e-05
4.414e-05
4.164e-05
3.936e-05
3.729e-05
3.54e-05
3.364e-05
3.201e-05
3.049e-05
2.906e-05
2.771e-05
2.643e-05
2.522e-05
2.406e-05
2.295e-05
2.19e-05
2.089e-05
1.992e-05
1.899e-05
1.809e-05
1.723e-05
1.64e-05
1.56e-05
1.483e-05
1.408e-05
1.336e-05
1.266e-05
1.197e-05
1.131e-05
1.066e-05
1.003e-05
9.416e-06
8.813e-06
8.222e-06
7.642e-06
7.072e-06
6.511e-06
5.957e-06
5.411e-06
4.87e-06
4.335e-06
3.804e-06
3.275e-06
2.749e-06
2.222e-06
1.695e-06
1.164e-06
6.281e-07
1.464e-07
0.0002763
0.0002779
0.0002792
0.0002799
0.0002802
0.0002801
0.0002798
0.0002793
0.0002786
0.0002779
0.0002772
0.0002765
0.0002758
0.0002751
0.0002744
0.0002738
0.0002731
0.0002725
0.0002718
0.0002711
0.0002704
0.0002697
0.000269
0.0002683
0.0002676
0.0002668
0.000266
0.0002653
0.0002644
0.0002636
0.0002627
0.0002618
0.0002609
0.0002599
0.0002589
0.0002579
0.0002568
0.0002556
0.0002544
0.0002532
0.0002519
0.0002505
0.000249
0.0002474
0.0002456
0.0002437
0.0002417
0.0002394
0.0002368
0.0002339
0.0002307
0.000227
0.0002229
0.0002183
0.0002131
0.0002073
0.0002009
0.000194
0.0001865
0.0001785
0.0001702
0.0001614
0.0001521
0.0001428
0.0001336
0.0001246
0.0001159
0.0001078
0.0001001
9.272e-05
8.578e-05
7.93e-05
7.329e-05
6.774e-05
6.268e-05
5.809e-05
5.397e-05
5.03e-05
4.703e-05
4.414e-05
4.156e-05
3.925e-05
3.718e-05
3.529e-05
3.357e-05
3.198e-05
3.049e-05
2.91e-05
2.779e-05
2.655e-05
2.537e-05
2.424e-05
2.316e-05
2.213e-05
2.114e-05
2.019e-05
1.927e-05
1.839e-05
1.754e-05
1.672e-05
1.593e-05
1.517e-05
1.443e-05
1.371e-05
1.302e-05
1.234e-05
1.168e-05
1.104e-05
1.042e-05
9.809e-06
9.211e-06
8.626e-06
8.052e-06
7.488e-06
6.933e-06
6.387e-06
5.847e-06
5.314e-06
4.787e-06
4.264e-06
3.745e-06
3.229e-06
2.714e-06
2.201e-06
1.686e-06
1.168e-06
6.463e-07
1.662e-07
0.0002749
0.0002764
0.0002776
0.0002784
0.0002788
0.0002789
0.0002787
0.0002783
0.0002778
0.0002772
0.0002766
0.0002759
0.0002753
0.0002747
0.0002741
0.0002734
0.0002728
0.0002722
0.0002716
0.000271
0.0002703
0.0002697
0.0002691
0.0002684
0.0002677
0.000267
0.0002663
0.0002656
0.0002648
0.000264
0.0002632
0.0002624
0.0002615
0.0002606
0.0002597
0.0002588
0.0002578
0.0002567
0.0002557
0.0002545
0.0002533
0.0002521
0.0002508
0.0002493
0.0002478
0.0002461
0.0002443
0.0002423
0.00024
0.0002374
0.0002344
0.000231
0.0002271
0.0002227
0.0002176
0.000212
0.0002056
0.0001985
0.0001908
0.0001824
0.0001735
0.0001639
0.0001536
0.000143
0.0001326
0.0001225
0.0001129
0.0001041
9.602e-05
8.84e-05
8.129e-05
7.476e-05
6.877e-05
6.33e-05
5.836e-05
5.393e-05
5.001e-05
4.657e-05
4.355e-05
4.091e-05
3.859e-05
3.653e-05
3.469e-05
3.303e-05
3.15e-05
3.009e-05
2.877e-05
2.753e-05
2.635e-05
2.523e-05
2.416e-05
2.313e-05
2.214e-05
2.119e-05
2.027e-05
1.939e-05
1.853e-05
1.771e-05
1.691e-05
1.614e-05
1.54e-05
1.467e-05
1.397e-05
1.329e-05
1.263e-05
1.198e-05
1.135e-05
1.074e-05
1.014e-05
9.552e-06
8.977e-06
8.413e-06
7.858e-06
7.312e-06
6.775e-06
6.244e-06
5.721e-06
5.203e-06
4.69e-06
4.182e-06
3.677e-06
3.174e-06
2.674e-06
2.174e-06
1.674e-06
1.172e-06
6.655e-07
1.877e-07
0.0002737
0.0002751
0.0002763
0.0002771
0.0002776
0.0002778
0.0002777
0.0002774
0.000277
0.0002765
0.000276
0.0002755
0.0002749
0.0002743
0.0002737
0.0002732
0.0002726
0.000272
0.0002715
0.0002709
0.0002703
0.0002697
0.0002691
0.0002685
0.0002679
0.0002672
0.0002666
0.0002659
0.0002652
0.0002645
0.0002638
0.000263
0.0002622
0.0002614
0.0002606
0.0002598
0.0002589
0.0002579
0.000257
0.000256
0.000255
0.0002539
0.0002527
0.0002515
0.0002502
0.0002488
0.0002472
0.0002455
0.0002435
0.0002413
0.0002386
0.0002356
0.0002321
0.000228
0.0002232
0.0002179
0.0002117
0.0002048
0.0001969
0.0001883
0.0001791
0.0001685
0.0001562
0.0001434
0.0001309
0.000119
0.000108
9.85e-05
9.019e-05
8.246e-05
7.535e-05
6.896e-05
6.317e-05
5.791e-05
5.32e-05
4.905e-05
4.543e-05
4.229e-05
3.96e-05
3.727e-05
3.526e-05
3.35e-05
3.193e-05
3.052e-05
2.923e-05
2.802e-05
2.689e-05
2.581e-05
2.478e-05
2.379e-05
2.283e-05
2.191e-05
2.102e-05
2.015e-05
1.932e-05
1.85e-05
1.772e-05
1.696e-05
1.622e-05
1.55e-05
1.48e-05
1.412e-05
1.346e-05
1.282e-05
1.219e-05
1.158e-05
1.099e-05
1.04e-05
9.83e-06
9.269e-06
8.718e-06
8.176e-06
7.643e-06
7.117e-06
6.599e-06
6.087e-06
5.581e-06
5.08e-06
4.583e-06
4.09e-06
3.601e-06
3.113e-06
2.628e-06
2.144e-06
1.66e-06
1.174e-06
6.856e-07
2.107e-07
0.0002727
0.0002741
0.0002752
0.000276
0.0002765
0.0002768
0.0002768
0.0002766
0.0002763
0.000276
0.0002755
0.000275
0.0002745
0.000274
0.0002735
0.000273
0.0002724
0.0002719
0.0002714
0.0002709
0.0002703
0.0002698
0.0002692
0.0002687
0.0002681
0.0002675
0.0002669
0.0002663
0.0002657
0.000265
0.0002644
0.0002637
0.000263
0.0002623
0.0002616
0.0002608
0.00026
0.0002592
0.0002584
0.0002576
0.0002567
0.0002558
0.0002548
0.0002538
0.0002528
0.0002516
0.0002504
0.000249
0.0002474
0.0002456
0.0002434
0.0002408
0.0002378
0.0002342
0.00023
0.0002251
0.0002196
0.0002131
0.0002056
0.0001973
0.0001884
0.0001772
0.0001614
0.0001441
0.0001277
0.0001125
9.929e-05
8.972e-05
8.179e-05
7.432e-05
6.758e-05
6.173e-05
5.641e-05
5.155e-05
4.723e-05
4.347e-05
4.025e-05
3.752e-05
3.522e-05
3.328e-05
3.164e-05
3.022e-05
2.896e-05
2.783e-05
2.679e-05
2.581e-05
2.487e-05
2.397e-05
2.309e-05
2.224e-05
2.141e-05
2.06e-05
1.981e-05
1.904e-05
1.829e-05
1.756e-05
1.684e-05
1.614e-05
1.547e-05
1.48e-05
1.416e-05
1.353e-05
1.292e-05
1.232e-05
1.173e-05
1.115e-05
1.059e-05
1.004e-05
9.497e-06
8.963e-06
8.439e-06
7.921e-06
7.411e-06
6.908e-06
6.41e-06
5.918e-06
5.43e-06
4.947e-06
4.467e-06
3.991e-06
3.518e-06
3.047e-06
2.578e-06
2.111e-06
1.643e-06
1.176e-06
7.062e-07
2.349e-07
0.0002719
0.0002731
0.0002743
0.0002751
0.0002756
0.0002759
0.000276
0.000276
0.0002758
0.0002755
0.0002751
0.0002747
0.0002742
0.0002738
0.0002733
0.0002728
0.0002723
0.0002718
0.0002714
0.0002709
0.0002704
0.0002699
0.0002694
0.0002689
0.0002684
0.0002678
0.0002673
0.0002667
0.0002662
0.0002656
0.000265
0.0002644
0.0002638
0.0002632
0.0002626
0.0002619
0.0002613
0.0002606
0.0002599
0.0002592
0.0002585
0.0002578
0.000257
0.0002562
0.0002554
0.0002546
0.0002537
0.0002527
0.0002515
0.0002502
0.0002485
0.0002465
0.0002441
0.0002411
0.0002376
0.0002337
0.0002292
0.0002239
0.0002176
0.0002095
0.0002016
0.0001922
0.0001712
0.0001448
0.0001218
0.0001017
8.634e-05
7.801e-05
7.073e-05
6.346e-05
5.771e-05
5.297e-05
4.855e-05
4.434e-05
4.056e-05
3.732e-05
3.46e-05
3.235e-05
3.051e-05
2.902e-05
2.779e-05
2.675e-05
2.584e-05
2.501e-05
2.424e-05
2.349e-05
2.277e-05
2.205e-05
2.134e-05
2.063e-05
1.993e-05
1.924e-05
1.855e-05
1.788e-05
1.721e-05
1.656e-05
1.592e-05
1.529e-05
1.468e-05
1.407e-05
1.349e-05
1.291e-05
1.234e-05
1.178e-05
1.124e-05
1.07e-05
1.018e-05
9.657e-06
9.146e-06
8.643e-06
8.145e-06
7.654e-06
7.168e-06
6.688e-06
6.212e-06
5.74e-06
5.272e-06
4.807e-06
4.346e-06
3.887e-06
3.431e-06
2.978e-06
2.526e-06
2.075e-06
1.626e-06
1.177e-06
7.271e-07
2.597e-07
0.0002711
0.0002724
0.0002734
0.0002743
0.0002748
0.0002752
0.0002754
0.0002754
0.0002752
0.000275
0.0002747
0.0002744
0.000274
0.0002736
0.0002731
0.0002727
0.0002723
0.0002718
0.0002714
0.0002709
0.0002705
0.00027
0.0002696
0.0002691
0.0002686
0.0002682
0.0002677
0.0002672
0.0002667
0.0002662
0.0002657
0.0002652
0.0002647
0.0002642
0.0002636
0.0002631
0.0002625
0.000262
0.0002614
0.0002609
0.0002603
0.0002598
0.0002592
0.0002587
0.0002582
0.0002576
0.0002571
0.0002565
0.0002558
0.0002549
0.0002538
0.0002524
0.0002506
0.0002484
0.0002459
0.000243
0.0002401
0.0002368
0.0002306
0.0002245
0.000217
0.0002017
0.0001504
0.0001373
0.0001325
0.0001187
7.508e-05
6.283e-05
5.826e-05
5.22e-05
4.611e-05
4.299e-05
3.994e-05
3.654e-05
3.344e-05
3.08e-05
2.864e-05
2.693e-05
2.561e-05
2.461e-05
2.383e-05
2.32e-05
2.265e-05
2.214e-05
2.164e-05
2.114e-05
2.062e-05
2.009e-05
1.954e-05
1.898e-05
1.841e-05
1.784e-05
1.726e-05
1.668e-05
1.611e-05
1.554e-05
1.497e-05
1.442e-05
1.387e-05
1.333e-05
1.279e-05
1.227e-05
1.175e-05
1.124e-05
1.074e-05
1.024e-05
9.749e-06
9.265e-06
8.787e-06
8.313e-06
7.844e-06
7.379e-06
6.919e-06
6.461e-06
6.008e-06
5.557e-06
5.109e-06
4.664e-06
4.221e-06
3.78e-06
3.342e-06
2.905e-06
2.471e-06
2.038e-06
1.607e-06
1.177e-06
7.481e-07
2.849e-07
0.0002705
0.0002717
0.0002727
0.0002736
0.0002742
0.0002746
0.0002748
0.0002748
0.0002748
0.0002746
0.0002744
0.0002741
0.0002738
0.0002734
0.000273
0.0002726
0.0002722
0.0002718
0.0002714
0.000271
0.0002706
0.0002702
0.0002698
0.0002694
0.000269
0.0002685
0.0002681
0.0002677
0.0002673
0.0002669
0.0002664
0.000266
0.0002656
0.0002651
0.0002647
0.0002642
0.0002638
0.0002634
0.0002629
0.0002625
0.0002621
0.0002618
0.0002614
0.0002611
0.0002608
0.0002606
0.0002604
0.0002602
0.0002599
0.0002596
0.0002591
0.0002583
0.0002571
0.0002556
0.0002538
0.000252
0.00025
0.0002497
0.000244
0.0002038
0.0001689
0.0001687
0.0001255
0.0001319
0.0001417
0.0001418
0.0001054
0.0001071
8.453e-05
4.007e-05
3.362e-05
3.475e-05
3.146e-05
2.871e-05
2.623e-05
2.421e-05
2.261e-05
2.144e-05
2.066e-05
2.017e-05
1.986e-05
1.965e-05
1.947e-05
1.928e-05
1.906e-05
1.88e-05
1.849e-05
1.814e-05
1.775e-05
1.733e-05
1.689e-05
1.643e-05
1.596e-05
1.548e-05
1.5e-05
1.451e-05
1.402e-05
1.353e-05
1.305e-05
1.257e-05
1.209e-05
1.162e-05
1.115e-05
1.069e-05
1.023e-05
9.772e-06
9.32e-06
8.87e-06
8.424e-06
7.981e-06
7.541e-06
7.103e-06
6.667e-06
6.234e-06
5.802e-06
5.373e-06
4.945e-06
4.519e-06
4.095e-06
3.672e-06
3.251e-06
2.833e-06
2.416e-06
2.001e-06
1.588e-06
1.177e-06
7.687e-07
3.099e-07
0.00027
0.0002711
0.0002721
0.000273
0.0002736
0.000274
0.0002743
0.0002744
0.0002744
0.0002743
0.0002741
0.0002739
0.0002736
0.0002733
0.0002729
0.0002726
0.0002722
0.0002719
0.0002715
0.0002711
0.0002707
0.0002704
0.00027
0.0002696
0.0002693
0.0002689
0.0002686
0.0002682
0.0002678
0.0002675
0.0002671
0.0002668
0.0002664
0.0002661
0.0002657
0.0002654
0.000265
0.0002647
0.0002644
0.0002642
0.0002639
0.0002637
0.0002636
0.0002635
0.0002634
0.0002635
0.0002636
0.0002637
0.0002639
0.000264
0.000264
0.0002638
0.0002631
0.000262
0.0002605
0.000259
0.0002581
0.000252
0.0002101
0.0001519
0.0001111
-5.555e-05
-6.745e-06
0.0001058
0.0001781
0.0002857
0.0002456
0.0001535
0.0001283
7.926e-05
4.362e-05
2.824e-05
2.478e-05
2.138e-05
1.935e-05
1.785e-05
1.674e-05
1.609e-05
1.584e-05
1.586e-05
1.603e-05
1.623e-05
1.641e-05
1.652e-05
1.656e-05
1.652e-05
1.641e-05
1.623e-05
1.6e-05
1.572e-05
1.54e-05
1.505e-05
1.468e-05
1.43e-05
1.39e-05
1.349e-05
1.308e-05
1.266e-05
1.225e-05
1.182e-05
1.14e-05
1.098e-05
1.056e-05
1.015e-05
9.728e-06
9.311e-06
8.895e-06
8.481e-06
8.067e-06
7.654e-06
7.241e-06
6.83e-06
6.419e-06
6.009e-06
5.599e-06
5.191e-06
4.783e-06
4.376e-06
3.97e-06
3.565e-06
3.162e-06
2.76e-06
2.361e-06
1.963e-06
1.568e-06
1.177e-06
7.888e-07
3.344e-07
0.0002696
0.0002707
0.0002716
0.0002724
0.0002731
0.0002735
0.0002738
0.000274
0.0002741
0.000274
0.0002739
0.0002737
0.0002735
0.0002732
0.0002729
0.0002726
0.0002722
0.0002719
0.0002716