/*--------------------------------*- C++ -*----------------------------------*\
  =========                 |
  \\      /  F ield         | OpenFOAM: The Open Source CFD Toolbox
   \\    /   O peration     | Website:  https://openfoam.org
    \\  /    A nd           | Version:  7
     \\/     M anipulation  |
\*---------------------------------------------------------------------------*/
FoamFile
{
    version     2.0;
    format      ascii;
    class       surfaceScalarField;
    location    "779.999473410820883";
    object      phi;
}
// * * * * * * * * * * * * * * * * * * * * * * * * * * * * * * * * * * * * * //

dimensions      [0 3 -1 0 0 0 0];

internalField   nonuniform List<scalar> 
8032
(
6.857e-10
2.518e-10
4.804e-10
2.053e-10
3.48e-10
1.324e-10
2.643e-10
8.372e-11
2.101e-10
5.415e-11
1.738e-10
3.636e-11
1.483e-10
2.548e-11
1.297e-10
1.863e-11
1.155e-10
1.411e-11
1.046e-10
1.1e-11
9.579e-11
8.76e-12
8.87e-11
7.093e-12
8.289e-11
5.811e-12
7.809e-11
4.8e-12
7.41e-11
3.984e-12
7.079e-11
3.312e-12
6.804e-11
2.75e-12
6.577e-11
2.27e-12
6.392e-11
1.856e-12
6.243e-11
1.491e-12
6.126e-11
1.166e-12
6.039e-11
8.723e-13
5.978e-11
6.017e-13
5.944e-11
3.491e-13
5.933e-11
1.096e-13
5.945e-11
-1.21e-13
5.979e-11
-3.461e-13
6.036e-11
-5.688e-13
6.115e-11
-7.918e-13
6.217e-11
-1.018e-12
6.342e-11
-1.248e-12
6.49e-11
-1.485e-12
6.663e-11
-1.731e-12
6.862e-11
-1.985e-12
7.087e-11
-2.251e-12
7.34e-11
-2.527e-12
7.621e-11
-2.815e-12
7.933e-11
-3.114e-12
8.275e-11
-3.423e-12
8.649e-11
-3.742e-12
9.056e-11
-4.068e-12
9.496e-11
-4.399e-12
9.969e-11
-4.731e-12
1.048e-10
-5.061e-12
1.101e-10
-5.382e-12
1.158e-10
-5.689e-12
1.218e-10
-5.974e-12
1.28e-10
-6.229e-12
1.345e-10
-6.447e-12
1.411e-10
-6.616e-12
1.478e-10
-6.728e-12
1.546e-10
-6.773e-12
1.613e-10
-6.741e-12
1.68e-10
-6.623e-12
1.744e-10
-6.412e-12
1.805e-10
-6.104e-12
1.862e-10
-5.693e-12
1.913e-10
-5.181e-12
1.959e-10
-4.572e-12
1.998e-10
-3.872e-12
2.029e-10
-3.092e-12
2.051e-10
-2.248e-12
2.065e-10
-1.358e-12
2.069e-10
-4.43e-13
2.065e-10
4.753e-13
2.051e-10
1.375e-12
2.028e-10
2.236e-12
1.998e-10
3.041e-12
1.96e-10
3.777e-12
1.916e-10
4.431e-12
1.866e-10
4.999e-12
1.811e-10
5.476e-12
1.753e-10
5.861e-12
1.691e-10
6.157e-12
1.627e-10
6.366e-12
1.562e-10
6.494e-12
1.497e-10
6.547e-12
1.432e-10
6.531e-12
1.367e-10
6.454e-12
1.304e-10
6.325e-12
1.242e-10
6.15e-12
1.183e-10
5.938e-12
1.126e-10
5.696e-12
1.072e-10
5.432e-12
1.02e-10
5.152e-12
9.715e-11
4.862e-12
9.258e-11
4.567e-12
8.831e-11
4.271e-12
8.433e-11
3.979e-12
8.064e-11
3.693e-12
7.722e-11
3.416e-12
7.407e-11
3.15e-12
7.118e-11
2.896e-12
6.852e-11
2.656e-12
6.609e-11
2.429e-12
6.388e-11
2.216e-12
6.186e-11
2.017e-12
6.003e-11
1.833e-12
5.837e-11
1.662e-12
5.686e-11
1.504e-12
5.55e-11
1.358e-12
5.428e-11
1.225e-12
5.318e-11
1.103e-12
5.218e-11
9.913e-13
5.13e-11
8.896e-13
5.05e-11
7.971e-13
4.978e-11
7.132e-13
4.915e-11
6.371e-13
4.858e-11
5.684e-13
4.807e-11
5.063e-13
4.762e-11
4.505e-13
4.722e-11
4.003e-13
4.687e-11
3.555e-13
4.655e-11
3.155e-13
4.627e-11
2.801e-13
4.602e-11
2.491e-13
4.58e-11
2.221e-13
4.56e-11
1.993e-13
4.542e-11
1.805e-13
4.525e-11
1.659e-13
4.51e-11
1.559e-13
4.495e-11
1.512e-13
4.479e-11
1.531e-13
4.463e-11
1.643e-13
4.444e-11
1.893e-13
4.42e-11
2.361e-13
4.389e-11
3.137e-13
4.076e-13
9.523e-10
2.37e-10
8.501e-10
3.075e-10
7.275e-10
2.55e-10
6.183e-10
1.929e-10
5.294e-10
1.43e-10
4.593e-10
1.064e-10
4.044e-10
8.047e-11
3.609e-10
6.206e-11
3.262e-10
4.881e-11
2.982e-10
3.905e-11
2.752e-10
3.17e-11
2.563e-10
2.602e-11
2.406e-10
2.154e-11
2.274e-10
1.793e-11
2.165e-10
1.497e-11
2.073e-10
1.251e-11
1.996e-10
1.043e-11
1.932e-10
8.637e-12
1.88e-10
7.079e-12
1.838e-10
5.704e-12
1.805e-10
4.471e-12
1.78e-10
3.352e-12
1.763e-10
2.319e-12
1.753e-10
1.353e-12
1.75e-10
4.36e-13
1.753e-10
-4.47e-13
1.762e-10
-1.309e-12
1.778e-10
-2.161e-12
1.801e-10
-3.013e-12
1.829e-10
-3.874e-12
1.864e-10
-4.752e-12
1.906e-10
-5.652e-12
1.954e-10
-6.581e-12
2.01e-10
-7.543e-12
2.073e-10
-8.541e-12
2.143e-10
-9.578e-12
2.222e-10
-1.065e-11
2.308e-10
-1.177e-11
2.403e-10
-1.292e-11
2.507e-10
-1.41e-11
2.619e-10
-1.53e-11
2.74e-10
-1.651e-11
2.87e-10
-1.773e-11
3.009e-10
-1.892e-11
3.156e-10
-2.009e-11
3.311e-10
-2.119e-11
3.473e-10
-2.221e-11
3.642e-10
-2.311e-11
3.816e-10
-2.387e-11
3.994e-10
-2.445e-11
4.175e-10
-2.481e-11
4.357e-10
-2.493e-11
4.537e-10
-2.477e-11
4.714e-10
-2.43e-11
4.885e-10
-2.349e-11
5.047e-10
-2.232e-11
5.198e-10
-2.08e-11
5.335e-10
-1.891e-11
5.456e-10
-1.667e-11
5.559e-10
-1.412e-11
5.641e-10
-1.128e-11
5.7e-10
-8.215e-12
5.737e-10
-4.988e-12
5.749e-10
-1.671e-12
5.737e-10
1.659e-12
5.701e-10
4.926e-12
5.643e-10
8.06e-12
5.564e-10
1.1e-11
5.464e-10
1.369e-11
5.348e-10
1.61e-11
5.216e-10
1.82e-11
5.071e-10
1.998e-11
4.915e-10
2.143e-11
4.751e-10
2.256e-11
4.581e-10
2.337e-11
4.407e-10
2.389e-11
4.231e-10
2.413e-11
4.055e-10
2.413e-11
3.881e-10
2.389e-11
3.709e-10
2.346e-11
3.542e-10
2.286e-11
3.38e-10
2.212e-11
3.225e-10
2.126e-11
3.076e-10
2.032e-11
2.934e-10
1.931e-11
2.8e-10
1.826e-11
2.674e-10
1.719e-11
2.556e-10
1.611e-11
2.445e-10
1.504e-11
2.342e-10
1.399e-11
2.247e-10
1.296e-11
2.158e-10
1.198e-11
2.077e-10
1.103e-11
2.002e-10
1.014e-11
1.934e-10
9.288e-12
1.871e-10
8.491e-12
1.814e-10
7.744e-12
1.761e-10
7.049e-12
1.714e-10
6.403e-12
1.671e-10
5.806e-12
1.632e-10
5.254e-12
1.597e-10
4.747e-12
1.565e-10
4.282e-12
1.536e-10
3.857e-12
1.511e-10
3.468e-12
1.487e-10
3.114e-12
1.467e-10
2.792e-12
1.448e-10
2.499e-12
1.431e-10
2.234e-12
1.416e-10
1.995e-12
1.403e-10
1.779e-12
1.391e-10
1.585e-12
1.381e-10
1.411e-12
1.371e-10
1.256e-12
1.363e-10
1.118e-12
1.356e-10
9.973e-13
1.349e-10
8.921e-13
1.343e-10
8.022e-13
1.337e-10
7.277e-13
1.332e-10
6.689e-13
1.328e-10
6.266e-13
1.323e-10
6.027e-13
1.319e-10
5.997e-13
1.314e-10
6.219e-13
1.309e-10
6.754e-13
1.304e-10
7.673e-13
1.298e-10
8.963e-13
1.018e-12
9.779e-10
1.966e-10
9.637e-10
3.217e-10
9.013e-10
3.174e-10
8.213e-10
2.73e-10
7.411e-10
2.232e-10
6.682e-10
1.793e-10
6.049e-10
1.437e-10
5.512e-10
1.158e-10
5.058e-10
9.414e-11
4.677e-10
7.72e-11
4.356e-10
6.382e-11
4.085e-10
5.313e-11
3.855e-10
4.446e-11
3.661e-10
3.734e-11
3.497e-10
3.139e-11
3.358e-10
2.637e-11
3.242e-10
2.208e-11
3.145e-10
1.836e-11
3.065e-10
1.509e-11
3e-10
1.219e-11
2.949e-10
9.569e-12
2.91e-10
7.181e-12
2.884e-10
4.971e-12
2.868e-10
2.897e-12
2.864e-10
9.244e-13
2.869e-10
-9.781e-13
2.884e-10
-2.837e-12
2.909e-10
-4.675e-12
2.944e-10
-6.512e-12
2.989e-10
-8.367e-12
3.044e-10
-1.026e-11
3.11e-10
-1.219e-11
3.186e-10
-1.418e-11
3.273e-10
-1.624e-11
3.371e-10
-1.838e-11
3.481e-10
-2.059e-11
3.603e-10
-2.288e-11
3.738e-10
-2.525e-11
3.886e-10
-2.768e-11
4.047e-10
-3.018e-11
4.221e-10
-3.271e-11
4.408e-10
-3.527e-11
4.609e-10
-3.782e-11
4.823e-10
-4.032e-11
5.05e-10
-4.274e-11
5.288e-10
-4.503e-11
5.538e-10
-4.714e-11
5.797e-10
-4.9e-11
6.063e-10
-5.055e-11
6.336e-10
-5.172e-11
6.612e-10
-5.243e-11
6.889e-10
-5.263e-11
7.164e-10
-5.223e-11
7.433e-10
-5.119e-11
7.692e-10
-4.944e-11
7.939e-10
-4.696e-11
8.168e-10
-4.372e-11
8.376e-10
-3.974e-11
8.56e-10
-3.503e-11
8.715e-10
-2.966e-11
8.84e-10
-2.371e-11
8.93e-10
-1.729e-11
8.986e-10
-1.054e-11
9.005e-10
-3.594e-12
8.988e-10
3.378e-12
8.935e-10
1.022e-11
8.848e-10
1.68e-11
8.728e-10
2.297e-11
8.578e-10
2.864e-11
8.402e-10
3.373e-11
8.203e-10
3.818e-11
7.983e-10
4.196e-11
7.747e-10
4.506e-11
7.497e-10
4.748e-11
7.238e-10
4.926e-11
6.973e-10
5.041e-11
6.705e-10
5.099e-11
6.436e-10
5.104e-11
6.168e-10
5.061e-11
5.905e-10
4.976e-11
5.649e-10
4.855e-11
5.399e-10
4.703e-11
5.159e-10
4.528e-11
4.929e-10
4.333e-11
4.71e-10
4.123e-11
4.502e-10
3.904e-11
4.306e-10
3.68e-11
4.122e-10
3.453e-11
3.949e-10
3.228e-11
3.789e-10
3.006e-11
3.639e-10
2.79e-11
3.501e-10
2.581e-11
3.373e-10
2.381e-11
3.255e-10
2.19e-11
3.147e-10
2.01e-11
3.048e-10
1.84e-11
2.958e-10
1.68e-11
2.875e-10
1.531e-11
2.8e-10
1.393e-11
2.731e-10
1.265e-11
2.669e-10
1.146e-11
2.613e-10
1.037e-11
2.562e-10
9.365e-12
2.517e-10
8.446e-12
2.475e-10
7.605e-12
2.438e-10
6.838e-12
2.404e-10
6.14e-12
2.374e-10
5.505e-12
2.347e-10
4.929e-12
2.323e-10
4.409e-12
2.302e-10
3.938e-12
2.282e-10
3.515e-12
2.265e-10
3.135e-12
2.25e-10
2.795e-12
2.236e-10
2.493e-12
2.224e-10
2.227e-12
2.213e-10
1.994e-12
2.203e-10
1.795e-12
2.194e-10
1.628e-12
2.186e-10
1.494e-12
2.178e-10
1.394e-12
2.171e-10
1.329e-12
2.164e-10
1.303e-12
2.157e-10
1.319e-12
2.15e-10
1.38e-12
2.142e-10
1.488e-12
2.135e-10
1.627e-12
1.739e-12
9.752e-10
1.589e-10
9.93e-10
3.038e-10
9.729e-10
3.376e-10
9.27e-10
3.188e-10
8.692e-10
2.81e-10
8.088e-10
2.398e-10
7.508e-10
2.017e-10
6.978e-10
1.689e-10
6.506e-10
1.414e-10
6.091e-10
1.187e-10
5.729e-10
9.997e-11
5.416e-10
8.446e-11
5.145e-10
7.151e-11
4.913e-10
6.061e-11
4.713e-10
5.135e-11
4.543e-10
4.341e-11
4.398e-10
3.652e-11
4.277e-10
3.048e-11
4.177e-10
2.514e-11
4.095e-10
2.034e-11
4.031e-10
1.6e-11
3.982e-10
1.201e-11
3.949e-10
8.297e-12
3.93e-10
4.802e-12
3.925e-10
1.467e-12
3.932e-10
-1.757e-12
3.953e-10
-4.911e-12
3.987e-10
-8.033e-12
4.033e-10
-1.116e-11
4.093e-10
-1.431e-11
4.165e-10
-1.751e-11
4.251e-10
-2.08e-11
4.351e-10
-2.418e-11
4.465e-10
-2.767e-11
4.594e-10
-3.127e-11
4.739e-10
-3.501e-11
4.898e-10
-3.887e-11
5.074e-10
-4.285e-11
5.267e-10
-4.694e-11
5.476e-10
-5.112e-11
5.703e-10
-5.536e-11
5.946e-10
-5.962e-11
6.207e-10
-6.387e-11
6.484e-10
-6.803e-11
6.777e-10
-7.205e-11
7.085e-10
-7.583e-11
7.407e-10
-7.93e-11
7.74e-10
-8.236e-11
8.084e-10
-8.488e-11
8.434e-10
-8.677e-11
8.789e-10
-8.79e-11
9.144e-10
-8.816e-11
9.496e-10
-8.744e-11
9.841e-10
-8.564e-11
1.017e-09
-8.267e-11
1.049e-09
-7.849e-11
1.078e-09
-7.306e-11
1.105e-09
-6.638e-11
1.128e-09
-5.852e-11
1.148e-09
-4.956e-11
1.164e-09
-3.964e-11
1.176e-09
-2.894e-11
1.183e-09
-1.769e-11
1.185e-09
-6.12e-12
1.183e-09
5.497e-12
1.177e-09
1.691e-11
1.166e-09
2.787e-11
1.15e-09
3.818e-11
1.131e-09
4.766e-11
1.109e-09
5.618e-11
1.083e-09
6.364e-11
1.055e-09
7.001e-11
1.025e-09
7.525e-11
9.933e-10
7.937e-11
9.601e-10
8.241e-11
9.261e-10
8.442e-11
8.917e-10
8.547e-11
8.571e-10
8.563e-11
8.227e-10
8.5e-11
7.888e-10
8.365e-11
7.556e-10
8.171e-11
7.234e-10
7.924e-11
6.923e-10
7.636e-11
6.625e-10
7.315e-11
6.34e-10
6.97e-11
6.07e-10
6.607e-11
5.815e-10
6.234e-11
5.574e-10
5.857e-11
5.349e-10
5.481e-11
5.139e-10
5.11e-11
4.943e-10
4.748e-11
4.761e-10
4.397e-11
4.593e-10
4.061e-11
4.438e-10
3.74e-11
4.296e-10
3.436e-11
4.165e-10
3.148e-11
4.045e-10
2.879e-11
3.935e-10
2.627e-11
3.836e-10
2.392e-11
3.745e-10
2.174e-11
3.662e-10
1.973e-11
3.587e-10
1.787e-11
3.519e-10
1.616e-11
3.458e-10
1.459e-11
3.402e-10
1.315e-11
3.352e-10
1.184e-11
3.307e-10
1.064e-11
3.267e-10
9.556e-12
3.23e-10
8.568e-12
3.198e-10
7.673e-12
3.168e-10
6.863e-12
3.142e-10
6.133e-12
3.119e-10
5.478e-12
3.098e-10
4.891e-12
3.079e-10
4.368e-12
3.062e-10
3.906e-12
3.047e-10
3.501e-12
3.034e-10
3.152e-12
3.021e-10
2.856e-12
3.01e-10
2.615e-12
3e-10
2.427e-12
2.99e-10
2.294e-12
2.981e-10
2.219e-12
2.972e-10
2.203e-12
2.963e-10
2.244e-12
2.955e-10
2.337e-12
2.947e-10
2.459e-12
2.553e-12
9.668e-10
1.296e-10
9.945e-10
2.762e-10
9.98e-10
3.341e-10
9.783e-10
3.385e-10
9.429e-10
3.164e-10
8.991e-10
2.835e-10
8.525e-10
2.483e-10
8.065e-10
2.149e-10
7.631e-10
1.849e-10
7.231e-10
1.586e-10
6.871e-10
1.36e-10
6.55e-10
1.166e-10
6.267e-10
9.986e-11
6.018e-10
8.547e-11
5.802e-10
7.299e-11
5.615e-10
6.21e-11
5.455e-10
5.253e-11
5.319e-10
4.403e-11
5.206e-10
3.642e-11
5.114e-10
2.954e-11
5.042e-10
2.325e-11
4.987e-10
1.744e-11
4.95e-10
1.201e-11
4.93e-10
6.865e-12
4.925e-10
1.938e-12
4.936e-10
-2.838e-12
4.962e-10
-7.52e-12
5.003e-10
-1.216e-11
5.06e-10
-1.681e-11
5.132e-10
-2.15e-11
5.219e-10
-2.628e-11
5.323e-10
-3.116e-11
5.443e-10
-3.619e-11
5.58e-10
-4.137e-11
5.734e-10
-4.672e-11
5.907e-10
-5.226e-11
6.098e-10
-5.797e-11
6.308e-10
-6.386e-11
6.538e-10
-6.989e-11
6.787e-10
-7.605e-11
7.056e-10
-8.229e-11
7.346e-10
-8.856e-11
7.655e-10
-9.479e-11
7.983e-10
-1.009e-10
8.331e-10
-1.068e-10
8.695e-10
-1.123e-10
9.075e-10
-1.173e-10
9.469e-10
-1.218e-10
9.875e-10
-1.254e-10
1.029e-09
-1.281e-10
1.071e-09
-1.297e-10
1.113e-09
-1.3e-10
1.154e-09
-1.289e-10
1.195e-09
-1.262e-10
1.234e-09
-1.218e-10
1.271e-09
-1.156e-10
1.305e-09
-1.076e-10
1.337e-09
-9.777e-11
1.364e-09
-8.619e-11
1.388e-09
-7.301e-11
1.407e-09
-5.843e-11
1.42e-09
-4.27e-11
1.429e-09
-2.616e-11
1.432e-09
-9.154e-12
1.43e-09
7.926e-12
1.422e-09
2.47e-11
1.409e-09
4.083e-11
1.391e-09
5.6e-11
1.369e-09
6.996e-11
1.342e-09
8.251e-11
1.312e-09
9.353e-11
1.279e-09
1.029e-10
1.244e-09
1.107e-10
1.206e-09
1.169e-10
1.167e-09
1.214e-10
1.127e-09
1.245e-10
1.087e-09
1.261e-10
1.046e-09
1.264e-10
1.005e-09
1.256e-10
9.653e-10
1.237e-10
9.26e-10
1.209e-10
8.879e-10
1.174e-10
8.51e-10
1.132e-10
8.156e-10
1.086e-10
7.818e-10
1.035e-10
7.496e-10
9.823e-11
7.192e-10
9.277e-11
6.905e-10
8.724e-11
6.636e-10
8.172e-11
6.384e-10
7.626e-11
6.15e-10
7.093e-11
5.932e-10
6.576e-11
5.73e-10
6.079e-11
5.544e-10
5.604e-11
5.372e-10
5.153e-11
5.214e-10
4.727e-11
5.069e-10
4.327e-11
4.937e-10
3.952e-11
4.816e-10
3.602e-11
4.705e-10
3.278e-11
4.605e-10
2.977e-11
4.514e-10
2.699e-11
4.431e-10
2.443e-11
4.356e-10
2.209e-11
4.288e-10
1.993e-11
4.227e-10
1.796e-11
4.172e-10
1.617e-11
4.122e-10
1.453e-11
4.077e-10
1.304e-11
4.037e-10
1.169e-11
4.001e-10
1.047e-11
3.969e-10
9.368e-12
3.94e-10
8.376e-12
3.914e-10
7.487e-12
3.891e-10
6.693e-12
3.87e-10
5.989e-12
3.851e-10
5.371e-12
3.834e-10
4.834e-12
3.819e-10
4.376e-12
3.805e-10
3.995e-12
3.793e-10
3.691e-12
3.781e-10
3.462e-12
3.77e-10
3.31e-12
3.76e-10
3.234e-12
3.75e-10
3.228e-12
3.74e-10
3.282e-12
3.731e-10
3.369e-12
3.439e-12
9.592e-10
1.079e-10
9.876e-10
2.477e-10
1.003e-09
3.188e-10
1e-09
3.41e-10
9.83e-10
3.338e-10
9.551e-10
3.113e-10
9.213e-10
2.821e-10
8.849e-10
2.513e-10
8.483e-10
2.214e-10
8.13e-10
1.939e-10
7.8e-10
1.69e-10
7.497e-10
1.469e-10
7.223e-10
1.273e-10
6.977e-10
1.1e-10
6.76e-10
9.471e-11
6.57e-10
8.111e-11
6.406e-10
6.897e-11
6.265e-10
5.806e-11
6.148e-10
4.818e-11
6.052e-10
3.916e-11
5.976e-10
3.084e-11
5.919e-10
2.31e-11
5.881e-10
1.581e-11
5.861e-10
8.88e-12
5.858e-10
2.212e-12
5.873e-10
-4.273e-12
5.904e-10
-1.065e-11
5.952e-10
-1.698e-11
6.017e-10
-2.333e-11
6.1e-10
-2.975e-11
6.2e-10
-3.627e-11
6.318e-10
-4.296e-11
6.454e-10
-4.982e-11
6.609e-10
-5.691e-11
6.784e-10
-6.422e-11
6.979e-10
-7.176e-11
7.195e-10
-7.955e-11
7.432e-10
-8.756e-11
7.691e-10
-9.577e-11
7.972e-10
-1.041e-10
8.275e-10
-1.126e-10
8.6e-10
-1.211e-10
8.948e-10
-1.295e-10
9.317e-10
-1.378e-10
9.706e-10
-1.457e-10
1.011e-09
-1.532e-10
1.054e-09
-1.6e-10
1.098e-09
-1.659e-10
1.144e-09
-1.708e-10
1.19e-09
-1.744e-10
1.237e-09
-1.765e-10
1.284e-09
-1.769e-10
1.33e-09
-1.754e-10
1.376e-09
-1.716e-10
1.419e-09
-1.656e-10
1.461e-09
-1.572e-10
1.5e-09
-1.463e-10
1.535e-09
-1.33e-10
1.566e-09
-1.172e-10
1.592e-09
-9.935e-11
1.613e-09
-7.954e-11
1.629e-09
-5.818e-11
1.638e-09
-3.57e-11
1.642e-09
-1.26e-11
1.639e-09
1.061e-11
1.63e-09
3.34e-11
1.616e-09
5.531e-11
1.596e-09
7.591e-11
1.571e-09
9.488e-11
1.542e-09
1.119e-10
1.508e-09
1.269e-10
1.471e-09
1.398e-10
1.432e-09
1.504e-10
1.39e-09
1.588e-10
1.346e-09
1.65e-10
1.301e-09
1.693e-10
1.256e-09
1.716e-10
1.21e-09
1.721e-10
1.165e-09
1.711e-10
1.12e-09
1.687e-10
1.076e-09
1.65e-10
1.033e-09
1.602e-10
9.916e-10
1.547e-10
9.518e-10
1.484e-10
9.137e-10
1.416e-10
8.775e-10
1.345e-10
8.432e-10
1.271e-10
8.108e-10
1.196e-10
7.804e-10
1.121e-10
7.519e-10
1.047e-10
7.254e-10
9.748e-11
7.007e-10
9.045e-11
6.778e-10
8.369e-11
6.566e-10
7.722e-11
6.371e-10
7.106e-11
6.191e-10
6.525e-11
6.026e-10
5.977e-11
5.875e-10
5.464e-11
5.736e-10
4.986e-11
5.61e-10
4.54e-11
5.495e-10
4.128e-11
5.39e-10
3.746e-11
5.295e-10
3.394e-11
5.209e-10
3.071e-11
5.131e-10
2.774e-11
5.06e-10
2.503e-11
4.996e-10
2.254e-11
4.939e-10
2.028e-11
4.887e-10
1.822e-11
4.84e-10
1.635e-11
4.798e-10
1.466e-11
4.761e-10
1.313e-11
4.727e-10
1.175e-11
4.697e-10
1.051e-11
4.67e-10
9.405e-12
4.645e-10
8.421e-12
4.624e-10
7.553e-12
4.604e-10
6.796e-12
4.586e-10
6.144e-12
4.57e-10
5.595e-12
4.556e-10
5.146e-12
4.542e-10
4.796e-12
4.53e-10
4.541e-12
4.519e-10
4.378e-12
4.508e-10
4.302e-12
4.498e-10
4.297e-12
4.488e-10
4.337e-12
4.379e-12
9.536e-10
9.18e-11
9.796e-10
2.218e-10
9.998e-10
2.986e-10
1.008e-09
3.329e-10
1.003e-09
3.384e-10
9.885e-10
3.261e-10
9.665e-10
3.041e-10
9.401e-10
2.777e-10
9.116e-10
2.5e-10
8.826e-10
2.229e-10
8.543e-10
1.973e-10
8.274e-10
1.737e-10
8.025e-10
1.523e-10
7.797e-10
1.328e-10
7.592e-10
1.152e-10
7.41e-10
9.931e-11
7.251e-10
8.489e-11
7.114e-10
7.176e-11
6.998e-10
5.972e-11
6.904e-10
4.862e-11
6.829e-10
3.83e-11
6.774e-10
2.861e-11
6.738e-10
1.944e-11
6.72e-10
1.066e-11
6.72e-10
2.176e-12
6.739e-10
-6.106e-12
6.775e-10
-1.427e-11
6.829e-10
-2.241e-11
6.902e-10
-3.057e-11
6.992e-10
-3.883e-11
7.102e-10
-4.724e-11
7.231e-10
-5.585e-11
7.38e-10
-6.47e-11
7.549e-10
-7.382e-11
7.739e-10
-8.324e-11
7.951e-10
-9.295e-11
8.185e-10
-1.03e-10
8.442e-10
-1.133e-10
8.722e-10
-1.238e-10
9.027e-10
-1.345e-10
9.354e-10
-1.454e-10
9.706e-10
-1.563e-10
1.008e-09
-1.671e-10
1.048e-09
-1.776e-10
1.09e-09
-1.878e-10
1.134e-09
-1.973e-10
1.18e-09
-2.06e-10
1.228e-09
-2.136e-10
1.277e-09
-2.198e-10
1.327e-09
-2.244e-10
1.377e-09
-2.271e-10
1.428e-09
-2.276e-10
1.478e-09
-2.255e-10
1.527e-09
-2.208e-10
1.575e-09
-2.131e-10
1.62e-09
-2.022e-10
1.662e-09
-1.883e-10
1.7e-09
-1.711e-10
1.734e-09
-1.509e-10
1.762e-09
-1.28e-10
1.785e-09
-1.025e-10
1.802e-09
-7.501e-11
1.813e-09
-4.609e-11
1.816e-09
-1.636e-11
1.813e-09
1.351e-11
1.804e-09
4.283e-11
1.788e-09
7.1e-11
1.767e-09
9.748e-11
1.74e-09
1.218e-10
1.708e-09
1.438e-10
1.672e-09
1.63e-10
1.632e-09
1.795e-10
1.589e-09
1.932e-10
1.544e-09
2.04e-10
1.497e-09
2.121e-10
1.449e-09
2.176e-10
1.399e-09
2.207e-10
1.35e-09
2.215e-10
1.301e-09
2.203e-10
1.252e-09
2.172e-10
1.205e-09
2.125e-10
1.159e-09
2.066e-10
1.114e-09
1.995e-10
1.071e-09
1.915e-10
1.029e-09
1.828e-10
9.901e-10
1.737e-10
9.529e-10
1.643e-10
9.178e-10
1.547e-10
8.848e-10
1.451e-10
8.539e-10
1.357e-10
8.25e-10
1.264e-10
7.981e-10
1.173e-10
7.732e-10
1.086e-10
7.501e-10
1.003e-10
7.288e-10
9.239e-11
7.091e-10
8.489e-11
6.911e-10
7.783e-11
6.745e-10
7.121e-11
6.593e-10
6.502e-11
6.455e-10
5.926e-11
6.328e-10
5.392e-11
6.213e-10
4.898e-11
6.108e-10
4.442e-11
6.013e-10
4.022e-11
5.927e-10
3.636e-11
5.849e-10
3.283e-11
5.778e-10
2.96e-11
5.715e-10
2.665e-11
5.657e-10
2.397e-11
5.605e-10
2.153e-11
5.559e-10
1.932e-11
5.517e-10
1.732e-11
5.479e-10
1.551e-11
5.446e-10
1.389e-11
5.415e-10
1.243e-11
5.388e-10
1.114e-11
5.364e-10
9.989e-12
5.342e-10
8.983e-12
5.322e-10
8.112e-12
5.305e-10
7.37e-12
5.288e-10
6.752e-12
5.274e-10
6.256e-12
5.261e-10
5.876e-12
5.248e-10
5.607e-12
5.237e-10
5.44e-12
5.226e-10
5.36e-12
5.216e-10
5.345e-12
5.357e-12
9.498e-10
7.949e-11
9.726e-10
1.99e-10
9.941e-10
2.771e-10
1.008e-09
3.19e-10
1.012e-09
3.341e-10
1.008e-09
3.309e-10
9.955e-10
3.162e-10
9.783e-10
2.949e-10
9.578e-10
2.705e-10
9.355e-10
2.451e-10
9.127e-10
2.201e-10
8.903e-10
1.961e-10
8.689e-10
1.737e-10
8.489e-10
1.528e-10
8.305e-10
1.336e-10
8.14e-10
1.159e-10
7.993e-10
9.953e-11
7.866e-10
8.446e-11
7.759e-10
7.049e-11
7.67e-10
5.746e-11
7.601e-10
4.524e-11
7.55e-10
3.368e-11
7.518e-10
2.265e-11
7.504e-10
1.204e-11
7.508e-10
1.74e-12
7.531e-10
-8.362e-12
7.572e-10
-1.836e-11
7.631e-10
-2.833e-11
7.709e-10
-3.837e-11
7.806e-10
-4.854e-11
7.923e-10
-5.89e-11
8.059e-10
-6.951e-11
8.216e-10
-8.042e-11
8.395e-10
-9.167e-11
8.595e-10
-1.033e-10
8.818e-10
-1.152e-10
9.065e-10
-1.276e-10
9.335e-10
-1.403e-10
9.629e-10
-1.532e-10
9.948e-10
-1.664e-10
1.029e-09
-1.798e-10
1.066e-09
-1.932e-10
1.105e-09
-2.064e-10
1.147e-09
-2.194e-10
1.191e-09
-2.319e-10
1.238e-09
-2.436e-10
1.286e-09
-2.542e-10
1.336e-09
-2.636e-10
1.387e-09
-2.713e-10
1.44e-09
-2.769e-10
1.493e-09
-2.802e-10
1.546e-09
-2.808e-10
1.599e-09
-2.784e-10
1.651e-09
-2.725e-10
1.701e-09
-2.63e-10
1.748e-09
-2.498e-10
1.793e-09
-2.326e-10
1.833e-09
-2.115e-10
1.869e-09
-1.866e-10
1.899e-09
-1.583e-10
1.923e-09
-1.268e-10
1.941e-09
-9.286e-11
1.952e-09
-5.71e-11
1.956e-09
-2.032e-11
1.953e-09
1.661e-11
1.943e-09
5.285e-11
1.926e-09
8.763e-11
1.904e-09
1.203e-10
1.875e-09
1.503e-10
1.842e-09
1.773e-10
1.804e-09
2.01e-10
1.762e-09
2.213e-10
1.717e-09
2.382e-10
1.669e-09
2.515e-10
1.62e-09
2.616e-10
1.569e-09
2.684e-10
1.517e-09
2.723e-10
1.466e-09
2.733e-10
1.414e-09
2.719e-10
1.363e-09
2.682e-10
1.313e-09
2.625e-10
1.264e-09
2.552e-10
1.217e-09
2.465e-10
1.172e-09
2.368e-10
1.129e-09
2.262e-10
1.087e-09
2.15e-10
1.048e-09
2.034e-10
1.011e-09
1.917e-10
9.765e-10
1.799e-10
9.44e-10
1.682e-10
9.135e-10
1.568e-10
8.852e-10
1.457e-10
8.589e-10
1.35e-10
8.345e-10
1.247e-10
8.119e-10
1.149e-10
7.912e-10
1.057e-10
7.72e-10
9.695e-11
7.545e-10
8.876e-11
7.384e-10
8.111e-11
7.237e-10
7.398e-11
7.103e-10
6.736e-11
6.98e-10
6.123e-11
6.869e-10
5.557e-11
6.767e-10
5.036e-11
6.675e-10
4.556e-11
6.592e-10
4.117e-11
6.516e-10
3.715e-11
6.448e-10
3.348e-11
6.387e-10
3.013e-11
6.331e-10
2.709e-11
6.281e-10
2.432e-11
6.236e-10
2.182e-11
6.195e-10
1.956e-11
6.159e-10
1.752e-11
6.127e-10
1.569e-11
6.097e-10
1.406e-11
6.071e-10
1.261e-11
6.047e-10
1.134e-11
6.026e-10
1.023e-11
6.007e-10
9.271e-12
5.99e-10
8.466e-12
5.975e-10
7.804e-12
5.961e-10
7.281e-12
5.948e-10
6.888e-12
5.936e-10
6.617e-12
5.925e-10
6.452e-12
5.915e-10
6.373e-12
6.352e-12
9.472e-10
6.979e-11
9.67e-10
1.793e-10
9.881e-10
2.559e-10
1.005e-09
3.021e-10
1.015e-09
3.241e-10
1.018e-09
3.283e-10
1.014e-09
3.202e-10
1.004e-09
3.042e-10
9.91e-10
2.837e-10
9.753e-10
2.608e-10
9.582e-10
2.372e-10
9.406e-10
2.137e-10
9.232e-10
1.911e-10
9.065e-10
1.695e-10
8.909e-10
1.492e-10
8.766e-10
1.302e-10
8.638e-10
1.123e-10
8.526e-10
9.568e-11
8.43e-10
8.004e-11
8.352e-10
6.531e-11
8.291e-10
5.136e-11
8.247e-10
3.806e-11
8.221e-10
2.528e-11
8.212e-10
1.292e-11
8.221e-10
8.433e-13
8.248e-10
-1.104e-11
8.293e-10
-2.284e-11
8.356e-10
-3.465e-11
8.438e-10
-4.656e-11
8.539e-10
-5.864e-11
8.659e-10
-7.097e-11
8.8e-10
-8.36e-11
8.962e-10
-9.66e-11
9.145e-10
-1.1e-10
9.351e-10
-1.238e-10
9.579e-10
-1.381e-10
9.831e-10
-1.528e-10
1.011e-09
-1.679e-10
1.041e-09
-1.833e-10
1.073e-09
-1.991e-10
1.109e-09
-2.15e-10
1.146e-09
-2.309e-10
1.187e-09
-2.467e-10
1.229e-09
-2.621e-10
1.274e-09
-2.77e-10
1.322e-09
-2.909e-10
1.371e-09
-3.037e-10
1.422e-09
-3.148e-10
1.475e-09
-3.24e-10
1.529e-09
-3.308e-10
1.584e-09
-3.348e-10
1.638e-09
-3.356e-10
1.693e-09
-3.327e-10
1.746e-09
-3.258e-10
1.797e-09
-3.146e-10
1.847e-09
-2.988e-10
1.892e-09
-2.784e-10
1.934e-09
-2.533e-10
1.971e-09
-2.236e-10
2.003e-09
-1.897e-10
2.028e-09
-1.521e-10
2.046e-09
-1.114e-10
2.058e-09
-6.848e-11
2.062e-09
-2.437e-11
2.058e-09
1.991e-11
2.048e-09
6.333e-11
2.031e-09
1.049e-10
2.007e-09
1.44e-10
1.978e-09
1.798e-10
1.943e-09
2.119e-10
1.904e-09
2.402e-10
1.861e-09
2.644e-10
1.814e-09
2.844e-10
1.766e-09
3.004e-10
1.715e-09
3.124e-10
1.663e-09
3.205e-10
1.61e-09
3.251e-10
1.557e-09
3.265e-10
1.504e-09
3.248e-10
1.452e-09
3.204e-10
1.4e-09
3.137e-10
1.35e-09
3.051e-10
1.302e-09
2.948e-10
1.256e-09
2.832e-10
1.211e-09
2.706e-10
1.169e-09
2.573e-10
1.129e-09
2.435e-10
1.091e-09
2.296e-10
1.055e-09
2.155e-10
1.022e-09
2.016e-10
9.908e-10
1.88e-10
9.617e-10
1.748e-10
9.347e-10
1.62e-10
9.096e-10
1.498e-10
8.864e-10
1.381e-10
8.651e-10
1.271e-10
8.454e-10
1.166e-10
8.273e-10
1.068e-10
8.107e-10
9.77e-11
7.955e-10
8.917e-11
7.816e-10
8.124e-11
7.69e-10
7.389e-11
7.574e-10
6.711e-11
7.469e-10
6.085e-11
7.374e-10
5.51e-11
7.287e-10
4.982e-11
7.209e-10
4.499e-11
7.138e-10
4.057e-11
7.074e-10
3.654e-11
7.016e-10
3.287e-11
6.964e-10
2.954e-11
6.917e-10
2.652e-11
6.875e-10
2.378e-11
6.837e-10
2.132e-11
6.803e-10
1.91e-11
6.772e-10
1.712e-11
6.745e-10
1.536e-11
6.72e-10
1.38e-11
6.698e-10
1.243e-11
6.678e-10
1.125e-11
6.66e-10
1.024e-11
6.644e-10
9.403e-12
6.63e-10
8.723e-12
6.617e-10
8.195e-12
6.605e-10
7.808e-12
6.594e-10
7.55e-12
6.584e-10
7.404e-12
7.348e-12
9.454e-10
6.192e-11
9.626e-10
1.621e-10
9.827e-10
2.358e-10
1.001e-09
2.84e-10
1.014e-09
3.107e-10
1.022e-09
3.206e-10
1.024e-09
3.181e-10
1.021e-09
3.071e-10
1.014e-09
2.905e-10
1.005e-09
2.705e-10
9.931e-10
2.488e-10
9.804e-10
2.265e-10
9.672e-10
2.042e-10
9.541e-10
1.826e-10
9.416e-10
1.617e-10
9.299e-10
1.419e-10
9.192e-10
1.23e-10
9.098e-10
1.051e-10
9.018e-10
8.808e-11
8.952e-10
7.19e-11
8.901e-10
5.643e-11
8.866e-10
4.157e-11
8.847e-10
2.72e-11
8.844e-10
1.32e-11
8.858e-10
-5.375e-13
8.889e-10
-1.412e-11
8.937e-10
-2.765e-11
9.003e-10
-4.123e-11
9.087e-10
-5.496e-11
9.189e-10
-6.891e-11
9.311e-10
-8.316e-11
9.453e-10
-9.779e-11
9.616e-10
-1.128e-10
9.799e-10
-1.284e-10
1.001e-09
-1.444e-10
1.023e-09
-1.609e-10
1.049e-09
-1.78e-10
1.076e-09
-1.955e-10
1.106e-09
-2.134e-10
1.139e-09
-2.316e-10
1.174e-09
-2.501e-10
1.212e-09
-2.686e-10
1.252e-09
-2.869e-10
1.294e-09
-3.048e-10
1.34e-09
-3.221e-10
1.387e-09
-3.383e-10
1.436e-09
-3.531e-10
1.488e-09
-3.661e-10
1.541e-09
-3.769e-10
1.595e-09
-3.849e-10
1.649e-09
-3.896e-10
1.705e-09
-3.906e-10
1.759e-09
-3.874e-10
1.813e-09
-3.795e-10
1.865e-09
-3.667e-10
1.915e-09
-3.485e-10
1.961e-09
-3.248e-10
2.003e-09
-2.956e-10
2.041e-09
-2.611e-10
2.073e-09
-2.216e-10
2.099e-09
-1.777e-10
2.117e-09
-1.302e-10
2.129e-09
-8e-11
2.133e-09
-2.837e-11
2.129e-09
2.342e-11
2.119e-09
7.414e-11
2.101e-09
1.227e-10
2.077e-09
1.68e-10
2.047e-09
2.096e-10
2.012e-09
2.47e-10
1.972e-09
2.797e-10
1.929e-09
3.077e-10
1.883e-09
3.309e-10
1.834e-09
3.494e-10
1.783e-09
3.633e-10
1.73e-09
3.729e-10
1.677e-09
3.782e-10
1.624e-09
3.798e-10
1.571e-09
3.779e-10
1.518e-09
3.728e-10
1.467e-09
3.651e-10
1.417e-09
3.551e-10
1.369e-09
3.431e-10
1.322e-09
3.297e-10
1.278e-09
3.151e-10
1.235e-09
2.997e-10
1.195e-09
2.837e-10
1.157e-09
2.675e-10
1.121e-09
2.512e-10
1.088e-09
2.351e-10
1.057e-09
2.193e-10
1.028e-09
2.039e-10
1.001e-09
1.891e-10
9.754e-10
1.749e-10
9.522e-10
1.613e-10
9.307e-10
1.485e-10
9.109e-10
1.364e-10
8.928e-10
1.25e-10
8.761e-10
1.144e-10
8.608e-10
1.044e-10
8.469e-10
9.521e-11
8.341e-10
8.665e-11
8.225e-10
7.874e-11
8.119e-10
7.145e-11
8.022e-10
6.473e-11
7.935e-10
5.857e-11
7.856e-10
5.292e-11
7.784e-10
4.775e-11
7.719e-10
4.304e-11
7.66e-10
3.874e-11
7.607e-10
3.483e-11
7.559e-10
3.129e-11
7.517e-10
2.808e-11
7.478e-10
2.518e-11
7.443e-10
2.257e-11
7.412e-10
2.023e-11
7.384e-10
1.815e-11
7.359e-10
1.63e-11
7.337e-10
1.467e-11
7.317e-10
1.325e-11
7.299e-10
1.204e-11
7.283e-10
1.101e-11
7.268e-10
1.017e-11
7.255e-10
9.497e-12
7.243e-10
8.988e-12
7.233e-10
8.632e-12
7.222e-10
8.416e-12
8.324e-12
9.441e-10
5.536e-11
9.592e-10
1.47e-10
9.779e-10
2.17e-10
9.964e-10
2.655e-10
1.012e-09
2.951e-10
1.023e-09
3.093e-10
1.03e-09
3.115e-10
1.032e-09
3.048e-10
1.031e-09
2.919e-10
1.026e-09
2.75e-10
1.02e-09
2.555e-10
1.011e-09
2.347e-10
1.002e-09
2.133e-10
9.93e-10
1.92e-10
9.836e-10
1.711e-10
9.746e-10
1.508e-10
9.664e-10
1.313e-10
9.59e-10
1.125e-10
9.526e-10
9.442e-11
9.475e-10
7.706e-11
9.436e-10
6.032e-11
9.41e-10
4.411e-11
9.399e-10
2.833e-11
9.402e-10
1.286e-11
9.421e-10
-2.391e-12
9.455e-10
-1.754e-11
9.505e-10
-3.269e-11
9.572e-10
-4.794e-11
9.657e-10
-6.338e-11
9.759e-10
-7.911e-11
9.879e-10
-9.521e-11
1.002e-09
-1.117e-10
1.018e-09
-1.288e-10
1.036e-09
-1.463e-10
1.056e-09
-1.645e-10
1.078e-09
-1.832e-10
1.103e-09
-2.025e-10
1.13e-09
-2.224e-10
1.159e-09
-2.427e-10
1.191e-09
-2.634e-10
1.225e-09
-2.843e-10
1.262e-09
-3.053e-10
1.301e-09
-3.262e-10
1.343e-09
-3.465e-10
1.387e-09
-3.662e-10
1.433e-09
-3.847e-10
1.482e-09
-4.016e-10
1.532e-09
-4.165e-10
1.584e-09
-4.288e-10
1.637e-09
-4.38e-10
1.691e-09
-4.435e-10
1.745e-09
-4.448e-10
1.799e-09
-4.414e-10
1.852e-09
-4.326e-10
1.904e-09
-4.181e-10
1.953e-09
-3.976e-10
1.999e-09
-3.708e-10
2.041e-09
-3.377e-10
2.078e-09
-2.984e-10
2.11e-09
-2.534e-10
2.135e-09
-2.033e-10
2.154e-09
-1.489e-10
2.165e-09
-9.136e-11
2.169e-09
-3.218e-11
2.165e-09
2.714e-11
2.154e-09
8.512e-11
2.137e-09
1.404e-10
2.113e-09
1.921e-10
2.083e-09
2.393e-10
2.048e-09
2.816e-10
2.009e-09
3.186e-10
1.967e-09
3.503e-10
1.921e-09
3.766e-10
1.873e-09
3.976e-10
1.823e-09
4.134e-10
1.772e-09
4.242e-10
1.719e-09
4.303e-10
1.667e-09
4.321e-10
1.615e-09
4.299e-10
1.564e-09
4.243e-10
1.513e-09
4.155e-10
1.464e-09
4.041e-10
1.417e-09
3.905e-10
1.371e-09
3.753e-10
1.328e-09
3.587e-10
1.286e-09
3.411e-10
1.247e-09
3.23e-10
1.21e-09
3.046e-10
1.175e-09
2.861e-10
1.142e-09
2.678e-10
1.111e-09
2.499e-10
1.083e-09
2.324e-10
1.056e-09
2.156e-10
1.032e-09
1.995e-10
1.009e-09
1.841e-10
9.881e-10
1.695e-10
9.688e-10
1.557e-10
9.509e-10
1.428e-10
9.346e-10
1.307e-10
9.196e-10
1.194e-10
9.059e-10
1.089e-10
8.934e-10
9.919e-11
8.819e-10
9.018e-11
8.715e-10
8.187e-11
8.62e-10
7.422e-11
8.534e-10
6.719e-11
8.456e-10
6.074e-11
8.385e-10
5.484e-11
8.321e-10
4.946e-11
8.263e-10
4.454e-11
8.21e-10
4.007e-11
8.163e-10
3.601e-11
8.12e-10
3.233e-11
8.082e-10
2.901e-11
8.048e-10
2.601e-11
8.017e-10
2.332e-11
7.989e-10
2.092e-11
7.964e-10
1.878e-11
7.942e-10
1.689e-11
7.922e-10
1.524e-11
7.905e-10
1.381e-11
7.889e-10
1.259e-11
7.875e-10
1.158e-11
7.862e-10
1.076e-11
7.851e-10
1.013e-11
7.84e-10
9.677e-12
7.831e-10
9.389e-12
9.262e-12
9.431e-10
4.976e-11
9.565e-10
1.336e-10
9.739e-10
1.995e-10
9.922e-10
2.473e-10
1.009e-09
2.785e-10
1.022e-09
2.956e-10
1.032e-09
3.014e-10
1.039e-09
2.985e-10
1.042e-09
2.89e-10
1.042e-09
2.749e-10
1.039e-09
2.578e-10
1.035e-09
2.387e-10
1.03e-09
2.185e-10
1.024e-09
1.979e-10
1.018e-09
1.773e-10
1.012e-09
1.57e-10
1.006e-09
1.371e-10
1.001e-09
1.178e-10
9.961e-10
9.898e-11
9.925e-10
8.073e-11
9.898e-10
6.298e-11
9.883e-10
4.565e-11
9.88e-10
2.866e-11
9.889e-10
1.192e-11
9.912e-10
-4.673e-12
9.949e-10
-2.122e-11
1e-09
-3.783e-11
1.007e-09
-5.46e-11
1.015e-09
-7.163e-11
1.025e-09
-8.9e-11
1.036e-09
-1.068e-10
1.05e-09
-1.251e-10
1.065e-09
-1.44e-10
1.082e-09
-1.635e-10
1.101e-09
-1.837e-10
1.123e-09
-2.045e-10
1.146e-09
-2.259e-10
1.172e-09
-2.48e-10
1.2e-09
-2.706e-10
1.23e-09
-2.937e-10
1.262e-09
-3.17e-10
1.297e-09
-3.404e-10
1.335e-09
-3.636e-10
1.375e-09
-3.864e-10
1.417e-09
-4.083e-10
1.461e-09
-4.29e-10
1.508e-09
-4.479e-10
1.556e-09
-4.647e-10
1.606e-09
-4.785e-10
1.657e-09
-4.89e-10
1.708e-09
-4.953e-10
1.76e-09
-4.97e-10
1.812e-09
-4.933e-10
1.863e-09
-4.837e-10
1.913e-09