/*--------------------------------*- C++ -*----------------------------------*\
  =========                 |
  \\      /  F ield         | OpenFOAM: The Open Source CFD Toolbox
   \\    /   O peration     | Website:  https://openfoam.org
    \\  /    A nd           | Version:  7
     \\/     M anipulation  |
\*---------------------------------------------------------------------------*/
FoamFile
{
    version     2.0;
    format      ascii;
    class       volVectorField;
    location    "779.999473410820883";
    object      U;
}
// * * * * * * * * * * * * * * * * * * * * * * * * * * * * * * * * * * * * * //

dimensions      [0 1 -1 0 0 0 0];

internalField   nonuniform List<vector> 
4096
(
(0.001039 0.0001611 0)
(0.0007463 0.0001314 0)
(0.0005302 8.474e-05 0)
(0.0003919 5.358e-05 0)
(0.0003036 3.466e-05 0)
(0.0002457 2.327e-05 0)
(0.0002061 1.631e-05 0)
(0.0001779 1.192e-05 0)
(0.0001569 9.03e-06 0)
(0.0001409 7.038e-06 0)
(0.0001282 5.606e-06 0)
(0.0001181 4.539e-06 0)
(0.0001098 3.719e-06 0)
(0.000103 3.072e-06 0)
(9.74e-05 2.55e-06 0)
(9.273e-05 2.12e-06 0)
(8.885e-05 1.76e-06 0)
(8.564e-05 1.453e-06 0)
(8.3e-05 1.188e-06 0)
(8.086e-05 9.545e-07 0)
(7.916e-05 7.465e-07 0)
(7.785e-05 5.582e-07 0)
(7.691e-05 3.851e-07 0)
(7.63e-05 2.234e-07 0)
(7.601e-05 7.013e-08 0)
(7.601e-05 -7.742e-08 0)
(7.631e-05 -2.215e-07 0)
(7.69e-05 -3.64e-07 0)
(7.777e-05 -5.067e-07 0)
(7.893e-05 -6.512e-07 0)
(8.038e-05 -7.987e-07 0)
(8.213e-05 -9.505e-07 0)
(8.419e-05 -1.108e-06 0)
(8.656e-05 -1.271e-06 0)
(8.927e-05 -1.44e-06 0)
(9.233e-05 -1.617e-06 0)
(9.575e-05 -1.801e-06 0)
(9.954e-05 -1.993e-06 0)
(0.0001037 -2.191e-06 0)
(0.0001083 -2.395e-06 0)
(0.0001133 -2.604e-06 0)
(0.0001187 -2.815e-06 0)
(0.0001246 -3.028e-06 0)
(0.0001308 -3.239e-06 0)
(0.0001375 -3.444e-06 0)
(0.0001446 -3.641e-06 0)
(0.0001521 -3.823e-06 0)
(0.0001599 -3.987e-06 0)
(0.000168 -4.126e-06 0)
(0.0001764 -4.234e-06 0)
(0.0001849 -4.306e-06 0)
(0.0001935 -4.335e-06 0)
(0.0002022 -4.314e-06 0)
(0.0002107 -4.239e-06 0)
(0.0002191 -4.104e-06 0)
(0.0002271 -3.906e-06 0)
(0.0002346 -3.644e-06 0)
(0.0002416 -3.316e-06 0)
(0.0002478 -2.926e-06 0)
(0.0002532 -2.478e-06 0)
(0.0002577 -1.979e-06 0)
(0.0002611 -1.439e-06 0)
(0.0002634 -8.692e-07 0)
(0.0002646 -2.835e-07 0)
(0.0002646 3.042e-07 0)
(0.0002634 8.801e-07 0)
(0.0002611 1.431e-06 0)
(0.0002577 1.947e-06 0)
(0.0002533 2.417e-06 0)
(0.0002481 2.836e-06 0)
(0.000242 3.199e-06 0)
(0.0002353 3.504e-06 0)
(0.0002281 3.751e-06 0)
(0.0002204 3.94e-06 0)
(0.0002124 4.074e-06 0)
(0.0002041 4.156e-06 0)
(0.0001958 4.19e-06 0)
(0.0001874 4.18e-06 0)
(0.0001791 4.131e-06 0)
(0.0001709 4.048e-06 0)
(0.000163 3.936e-06 0)
(0.0001552 3.8e-06 0)
(0.0001478 3.646e-06 0)
(0.0001406 3.477e-06 0)
(0.0001339 3.297e-06 0)
(0.0001275 3.112e-06 0)
(0.0001214 2.923e-06 0)
(0.0001158 2.734e-06 0)
(0.0001105 2.546e-06 0)
(0.0001056 2.364e-06 0)
(0.000101 2.186e-06 0)
(9.683e-05 2.016e-06 0)
(9.296e-05 1.854e-06 0)
(8.941e-05 1.7e-06 0)
(8.615e-05 1.554e-06 0)
(8.318e-05 1.418e-06 0)
(8.047e-05 1.291e-06 0)
(7.801e-05 1.173e-06 0)
(7.577e-05 1.064e-06 0)
(7.375e-05 9.624e-07 0)
(7.191e-05 8.694e-07 0)
(7.026e-05 7.84e-07 0)
(6.877e-05 7.058e-07 0)
(6.743e-05 6.344e-07 0)
(6.623e-05 5.693e-07 0)
(6.515e-05 5.102e-07 0)
(6.418e-05 4.564e-07 0)
(6.332e-05 4.078e-07 0)
(6.255e-05 3.638e-07 0)
(6.186e-05 3.24e-07 0)
(6.125e-05 2.883e-07 0)
(6.07e-05 2.562e-07 0)
(6.022e-05 2.275e-07 0)
(5.979e-05 2.019e-07 0)
(5.941e-05 1.793e-07 0)
(5.907e-05 1.594e-07 0)
(5.877e-05 1.422e-07 0)
(5.85e-05 1.275e-07 0)
(5.825e-05 1.155e-07 0)
(5.803e-05 1.062e-07 0)
(5.783e-05 9.977e-08 0)
(5.763e-05 9.677e-08 0)
(5.743e-05 9.801e-08 0)
(5.723e-05 1.051e-07 0)
(5.701e-05 1.211e-07 0)
(5.673e-05 1.511e-07 0)
(5.638e-05 2.007e-07 0)
(5.592e-05 2.609e-07 0)
(0.001209 0.0003128 0)
(0.001154 0.0003282 0)
(0.00101 0.000248 0)
(0.0008613 0.000177 0)
(0.0007345 0.0001262 0)
(0.0006328 9.139e-05 0)
(0.0005528 6.781e-05 0)
(0.0004898 5.164e-05 0)
(0.0004398 4.027e-05 0)
(0.0003996 3.203e-05 0)
(0.000367 2.589e-05 0)
(0.0003402 2.119e-05 0)
(0.000318 1.75e-05 0)
(0.0002995 1.455e-05 0)
(0.0002841 1.213e-05 0)
(0.0002712 1.013e-05 0)
(0.0002604 8.432e-06 0)
(0.0002514 6.981e-06 0)
(0.000244 5.718e-06 0)
(0.0002379 4.605e-06 0)
(0.0002331 3.608e-06 0)
(0.0002294 2.703e-06 0)
(0.0002267 1.869e-06 0)
(0.000225 1.089e-06 0)
(0.0002242 3.492e-07 0)
(0.0002242 -3.635e-07 0)
(0.000225 -1.059e-06 0)
(0.0002266 -1.747e-06 0)
(0.0002291 -2.435e-06 0)
(0.0002323 -3.131e-06 0)
(0.0002364 -3.84e-06 0)
(0.0002413 -4.568e-06 0)
(0.0002471 -5.319e-06 0)
(0.0002537 -6.098e-06 0)
(0.0002613 -6.907e-06 0)
(0.0002698 -7.747e-06 0)
(0.0002794 -8.62e-06 0)
(0.0002899 -9.524e-06 0)
(0.0003015 -1.046e-05 0)
(0.0003142 -1.142e-05 0)
(0.0003281 -1.239e-05 0)
(0.000343 -1.338e-05 0)
(0.0003591 -1.437e-05 0)
(0.0003763 -1.535e-05 0)
(0.0003945 -1.63e-05 0)
(0.0004139 -1.72e-05 0)
(0.0004342 -1.803e-05 0)
(0.0004554 -1.878e-05 0)
(0.0004773 -1.94e-05 0)
(0.0004999 -1.988e-05 0)
(0.0005229 -2.019e-05 0)
(0.0005461 -2.029e-05 0)
(0.0005692 -2.017e-05 0)
(0.0005921 -1.979e-05 0)
(0.0006143 -1.914e-05 0)
(0.0006356 -1.819e-05 0)
(0.0006557 -1.695e-05 0)
(0.0006741 -1.542e-05 0)
(0.0006907 -1.36e-05 0)
(0.000705 -1.151e-05 0)
(0.0007168 -9.198e-06 0)
(0.0007258 -6.696e-06 0)
(0.000732 -4.061e-06 0)
(0.0007351 -1.353e-06 0)
(0.0007351 1.366e-06 0)
(0.0007321 4.033e-06 0)
(0.0007261 6.59e-06 0)
(0.0007172 8.986e-06 0)
(0.0007058 1.118e-05 0)
(0.000692 1.314e-05 0)
(0.0006761 1.485e-05 0)
(0.0006583 1.629e-05 0)
(0.0006391 1.747e-05 0)
(0.0006186 1.838e-05 0)
(0.0005972 1.903e-05 0)
(0.0005752 1.945e-05 0)
(0.0005528 1.964e-05 0)
(0.0005303 1.962e-05 0)
(0.0005079 1.942e-05 0)
(0.0004858 1.906e-05 0)
(0.0004641 1.857e-05 0)
(0.000443 1.796e-05 0)
(0.0004227 1.725e-05 0)
(0.0004032 1.648e-05 0)
(0.0003846 1.566e-05 0)
(0.000367 1.48e-05 0)
(0.0003504 1.392e-05 0)
(0.0003347 1.304e-05 0)
(0.00032 1.217e-05 0)
(0.0003064 1.131e-05 0)
(0.0002937 1.048e-05 0)
(0.0002819 9.681e-06 0)
(0.0002711 8.915e-06 0)
(0.0002611 8.187e-06 0)
(0.0002519 7.499e-06 0)
(0.0002435 6.852e-06 0)
(0.0002358 6.248e-06 0)
(0.0002288 5.684e-06 0)
(0.0002224 5.162e-06 0)
(0.0002166 4.678e-06 0)
(0.0002114 4.232e-06 0)
(0.0002066 3.822e-06 0)
(0.0002024 3.446e-06 0)
(0.0001985 3.103e-06 0)
(0.000195 2.789e-06 0)
(0.0001919 2.503e-06 0)
(0.0001891 2.243e-06 0)
(0.0001865 2.007e-06 0)
(0.0001843 1.794e-06 0)
(0.0001823 1.601e-06 0)
(0.0001805 1.427e-06 0)
(0.0001788 1.271e-06 0)
(0.0001774 1.131e-06 0)
(0.0001761 1.006e-06 0)
(0.000175 8.951e-07 0)
(0.000174 7.977e-07 0)
(0.0001731 7.131e-07 0)
(0.0001723 6.409e-07 0)
(0.0001715 5.812e-07 0)
(0.0001709 5.342e-07 0)
(0.0001702 5.008e-07 0)
(0.0001696 4.825e-07 0)
(0.0001691 4.818e-07 0)
(0.0001685 5.031e-07 0)
(0.0001679 5.534e-07 0)
(0.0001672 6.422e-07 0)
(0.0001665 7.744e-07 0)
(0.0001658 9.125e-07 0)
(0.001226 0.0002775 0)
(0.001243 0.0004027 0)
(0.001194 0.0003664 0)
(0.001102 0.0002982 0)
(0.0009999 0.0002344 0)
(0.0009019 0.0001829 0)
(0.0008148 0.0001435 0)
(0.0007399 0.0001139 0)
(0.0006765 9.149e-05 0)
(0.0006231 7.44e-05 0)
(0.0005781 6.113e-05 0)
(0.0005402 5.066e-05 0)
(0.0005082 4.224e-05 0)
(0.0004811 3.537e-05 0)
(0.0004581 2.967e-05 0)
(0.0004387 2.488e-05 0)
(0.0004224 2.08e-05 0)
(0.0004087 1.728e-05 0)
(0.0003974 1.419e-05 0)
(0.0003881 1.145e-05 0)
(0.0003807 8.986e-06 0)
(0.000375 6.741e-06 0)
(0.0003708 4.666e-06 0)
(0.0003682 2.72e-06 0)
(0.0003669 8.707e-07 0)
(0.0003669 -9.121e-07 0)
(0.0003682 -2.653e-06 0)
(0.0003708 -4.375e-06 0)
(0.0003746 -6.096e-06 0)
(0.0003797 -7.834e-06 0)
(0.0003861 -9.604e-06 0)
(0.0003939 -1.142e-05 0)
(0.0004029 -1.329e-05 0)
(0.0004133 -1.522e-05 0)
(0.0004252 -1.723e-05 0)
(0.0004385 -1.931e-05 0)
(0.0004534 -2.146e-05 0)
(0.0004699 -2.369e-05 0)
(0.0004879 -2.599e-05 0)
(0.0005077 -2.834e-05 0)
(0.0005291 -3.073e-05 0)
(0.0005523 -3.314e-05 0)
(0.0005771 -3.555e-05 0)
(0.0006037 -3.792e-05 0)
(0.0006319 -4.021e-05 0)
(0.0006617 -4.238e-05 0)
(0.0006929 -4.438e-05 0)
(0.0007254 -4.615e-05 0)
(0.000759 -4.763e-05 0)
(0.0007936 -4.875e-05 0)
(0.0008287 -4.944e-05 0)
(0.0008641 -4.964e-05 0)
(0.0008994 -4.928e-05 0)
(0.0009342 -4.831e-05 0)
(0.000968 -4.667e-05 0)
(0.001 -4.434e-05 0)
(0.001031 -4.129e-05 0)
(0.001059 -3.753e-05 0)
(0.001084 -3.309e-05 0)
(0.001106 -2.802e-05 0)
(0.001124 -2.239e-05 0)
(0.001137 -1.632e-05 0)
(0.001147 -9.936e-06 0)
(0.001151 -3.37e-06 0)
(0.001152 3.224e-06 0)
(0.001147 9.696e-06 0)
(0.001138 1.591e-05 0)
(0.001125 2.174e-05 0)
(0.001108 2.709e-05 0)
(0.001087 3.189e-05 0)
(0.001063 3.608e-05 0)
(0.001036 3.964e-05 0)
(0.001007 4.255e-05 0)
(0.0009756 4.483e-05 0)
(0.0009431 4.649e-05 0)
(0.0009095 4.756e-05 0)
(0.0008754 4.808e-05 0)
(0.000841 4.81e-05 0)
(0.0008067 4.768e-05 0)
(0.0007727 4.686e-05 0)
(0.0007395 4.57e-05 0)
(0.0007071 4.426e-05 0)
(0.0006758 4.259e-05 0)
(0.0006457 4.073e-05 0)
(0.0006169 3.875e-05 0)
(0.0005896 3.668e-05 0)
(0.0005637 3.455e-05 0)
(0.0005394 3.241e-05 0)
(0.0005166 3.028e-05 0)
(0.0004952 2.819e-05 0)
(0.0004754 2.615e-05 0)
(0.000457 2.418e-05 0)
(0.0004399 2.23e-05 0)
(0.0004242 2.05e-05 0)
(0.0004098 1.881e-05 0)
(0.0003965 1.721e-05 0)
(0.0003844 1.571e-05 0)
(0.0003733 1.431e-05 0)
(0.0003632 1.301e-05 0)
(0.000354 1.181e-05 0)
(0.0003457 1.07e-05 0)
(0.0003381 9.674e-06 0)
(0.0003312 8.734e-06 0)
(0.000325 7.874e-06 0)
(0.0003195 7.087e-06 0)
(0.0003144 6.369e-06 0)
(0.0003099 5.716e-06 0)
(0.0003058 5.123e-06 0)
(0.0003022 4.585e-06 0)
(0.0002989 4.098e-06 0)
(0.000296 3.659e-06 0)
(0.0002934 3.264e-06 0)
(0.000291 2.909e-06 0)
(0.000289 2.593e-06 0)
(0.0002871 2.311e-06 0)
(0.0002854 2.063e-06 0)
(0.0002839 1.847e-06 0)
(0.0002826 1.662e-06 0)
(0.0002814 1.508e-06 0)
(0.0002803 1.384e-06 0)
(0.0002793 1.293e-06 0)
(0.0002783 1.236e-06 0)
(0.0002774 1.217e-06 0)
(0.0002765 1.242e-06 0)
(0.0002756 1.316e-06 0)
(0.0002747 1.443e-06 0)
(0.0002738 1.615e-06 0)
(0.0002728 1.765e-06 0)
(0.001224 0.0002275 0)
(0.00126 0.0004003 0)
(0.001258 0.0004192 0)
(0.001216 0.0003787 0)
(0.00115 0.0003227 0)
(0.001074 0.0002682 0)
(0.0009982 0.0002211 0)
(0.0009271 0.0001822 0)
(0.000863 0.0001507 0)
(0.0008062 0.0001254 0)
(0.0007565 0.0001048 0)
(0.0007133 8.806e-05 0)
(0.0006759 7.422e-05 0)
(0.0006437 6.268e-05 0)
(0.000616 5.296e-05 0)
(0.0005924 4.466e-05 0)
(0.0005722 3.75e-05 0)
(0.0005552 3.126e-05 0)
(0.000541 2.574e-05 0)
(0.0005294 2.082e-05 0)
(0.00052 1.636e-05 0)
(0.0005128 1.228e-05 0)
(0.0005076 8.492e-06 0)
(0.0005043 4.928e-06 0)
(0.0005027 1.53e-06 0)
(0.0005029 -1.75e-06 0)
(0.0005047 -4.959e-06 0)
(0.0005082 -8.133e-06 0)
(0.0005133 -1.131e-05 0)
(0.0005201 -1.451e-05 0)
(0.0005285 -1.777e-05 0)
(0.0005387 -2.111e-05 0)
(0.0005506 -2.455e-05 0)
(0.0005643 -2.81e-05 0)
(0.0005798 -3.178e-05 0)
(0.0005973 -3.558e-05 0)
(0.0006168 -3.952e-05 0)
(0.0006383 -4.358e-05 0)
(0.0006618 -4.776e-05 0)
(0.0006876 -5.203e-05 0)
(0.0007155 -5.637e-05 0)
(0.0007455 -6.073e-05 0)
(0.0007778 -6.508e-05 0)
(0.0008122 -6.935e-05 0)
(0.0008487 -7.347e-05 0)
(0.0008872 -7.736e-05 0)
(0.0009275 -8.092e-05 0)
(0.0009694 -8.407e-05 0)
(0.001013 -8.668e-05 0)
(0.001057 -8.863e-05 0)
(0.001102 -8.982e-05 0)
(0.001148 -9.011e-05 0)
(0.001193 -8.939e-05 0)
(0.001238 -8.757e-05 0)
(0.001281 -8.455e-05 0)
(0.001322 -8.029e-05 0)
(0.001361 -7.474e-05 0)
(0.001397 -6.792e-05 0)
(0.001429 -5.987e-05 0)
(0.001457 -5.07e-05 0)
(0.00148 -4.054e-05 0)
(0.001498 -2.959e-05 0)
(0.00151 -1.806e-05 0)
(0.001516 -6.217e-06 0)
(0.001516 5.68e-06 0)
(0.00151 1.736e-05 0)
(0.001499 2.859e-05 0)
(0.001482 3.914e-05 0)
(0.00146 4.883e-05 0)
(0.001434 5.754e-05 0)
(0.001403 6.516e-05 0)
(0.001369 7.166e-05 0)
(0.001332 7.699e-05 0)
(0.001292 8.119e-05 0)
(0.00125 8.427e-05 0)
(0.001207 8.63e-05 0)
(0.001163 8.733e-05 0)
(0.001119 8.747e-05 0)
(0.001075 8.679e-05 0)
(0.001031 8.538e-05 0)
(0.0009884 8.336e-05 0)
(0.0009466 8.082e-05 0)
(0.0009061 7.785e-05 0)
(0.0008671 7.455e-05 0)
(0.0008298 7.099e-05 0)
(0.0007943 6.727e-05 0)
(0.0007606 6.345e-05 0)
(0.0007289 5.959e-05 0)
(0.0006991 5.574e-05 0)
(0.0006712 5.194e-05 0)
(0.0006452 4.824e-05 0)
(0.0006211 4.466e-05 0)
(0.0005987 4.123e-05 0)
(0.000578 3.795e-05 0)
(0.000559 3.485e-05 0)
(0.0005415 3.192e-05 0)
(0.0005254 2.918e-05 0)
(0.0005108 2.661e-05 0)
(0.0004973 2.422e-05 0)
(0.0004851 2.201e-05 0)
(0.000474 1.996e-05 0)
(0.0004639 1.807e-05 0)
(0.0004548 1.633e-05 0)
(0.0004465 1.474e-05 0)
(0.000439 1.328e-05 0)
(0.0004323 1.195e-05 0)
(0.0004262 1.074e-05 0)
(0.0004207 9.639e-06 0)
(0.0004158 8.638e-06 0)
(0.0004114 7.732e-06 0)
(0.0004074 6.913e-06 0)
(0.0004039 6.175e-06 0)
(0.0004007 5.512e-06 0)
(0.0003979 4.919e-06 0)
(0.0003953 4.391e-06 0)
(0.000393 3.925e-06 0)
(0.000391 3.517e-06 0)
(0.0003892 3.166e-06 0)
(0.0003875 2.87e-06 0)
(0.000386 2.629e-06 0)
(0.0003846 2.445e-06 0)
(0.0003833 2.319e-06 0)
(0.0003821 2.254e-06 0)
(0.000381 2.253e-06 0)
(0.0003799 2.32e-06 0)
(0.0003788 2.448e-06 0)
(0.0003777 2.615e-06 0)
(0.0003766 2.747e-06 0)
(0.001219 0.0001846 0)
(0.001255 0.0003712 0)
(0.001275 0.0004299 0)
(0.001265 0.0004207 0)
(0.00123 0.0003823 0)
(0.001179 0.0003349 0)
(0.001121 0.000288 0)
(0.001062 0.0002456 0)
(0.001005 0.0002088 0)
(0.0009512 0.0001775 0)
(0.0009026 0.000151 0)
(0.000859 0.0001286 0)
(0.0008203 0.0001097 0)
(0.0007862 9.349e-05 0)
(0.0007565 7.958e-05 0)
(0.0007306 6.753e-05 0)
(0.0007084 5.699e-05 0)
(0.0006895 4.769e-05 0)
(0.0006736 3.94e-05 0)
(0.0006605 3.193e-05 0)
(0.00065 2.512e-05 0)
(0.0006419 1.885e-05 0)
(0.000636 1.3e-05 0)
(0.0006323 7.467e-06 0)
(0.0006307 2.179e-06 0)
(0.0006311 -2.941e-06 0)
(0.0006334 -7.956e-06 0)
(0.0006378 -1.293e-05 0)
(0.000644 -1.79e-05 0)
(0.0006522 -2.292e-05 0)
(0.0006624 -2.803e-05 0)
(0.0006747 -3.325e-05 0)
(0.000689 -3.863e-05 0)
(0.0007055 -4.418e-05 0)
(0.0007241 -4.992e-05 0)
(0.000745 -5.585e-05 0)
(0.0007683 -6.198e-05 0)
(0.000794 -6.829e-05 0)
(0.0008221 -7.477e-05 0)
(0.0008528 -8.139e-05 0)
(0.000886 -8.81e-05 0)
(0.0009217 -9.484e-05 0)
(0.00096 -0.0001015 0)
(0.001001 -0.0001081 0)
(0.001044 -0.0001144 0)
(0.00109 -0.0001204 0)
(0.001137 -0.0001258 0)
(0.001187 -0.0001306 0)
(0.001238 -0.0001346 0)
(0.00129 -0.0001375 0)
(0.001344 -0.0001393 0)
(0.001397 -0.0001397 0)
(0.001451 -0.0001385 0)
(0.001503 -0.0001356 0)
(0.001554 -0.0001309 0)
(0.001603 -0.0001242 0)
(0.001649 -0.0001156 0)
(0.001691 -0.0001051 0)
(0.001729 -9.262e-05 0)
(0.001761 -7.845e-05 0)
(0.001789 -6.276e-05 0)
(0.001809 -4.585e-05 0)
(0.001824 -2.806e-05 0)
(0.001831 -9.775e-06 0)
(0.001831 8.591e-06 0)
(0.001825 2.663e-05 0)
(0.001812 4.397e-05 0)
(0.001792 6.027e-05 0)
(0.001766 7.527e-05 0)
(0.001735 8.876e-05 0)
(0.001699 0.0001006 0)
(0.001659 0.0001107 0)
(0.001615 0.000119 0)
(0.001568 0.0001256 0)
(0.001519 0.0001305 0)
(0.001469 0.0001337 0)
(0.001417 0.0001354 0)
(0.001365 0.0001357 0)
(0.001313 0.0001348 0)
(0.001261 0.0001327 0)
(0.00121 0.0001297 0)
(0.001161 0.0001259 0)
(0.001113 0.0001213 0)
(0.001067 0.0001163 0)
(0.001022 0.0001109 0)
(0.0009801 0.0001052 0)
(0.00094 9.927e-05 0)
(0.0009022 9.332e-05 0)
(0.0008666 8.738e-05 0)
(0.0008333 8.151e-05 0)
(0.0008022 7.578e-05 0)
(0.0007732 7.023e-05 0)
(0.0007464 6.49e-05 0)
(0.0007215 5.98e-05 0)
(0.0006986 5.497e-05 0)
(0.0006775 5.04e-05 0)
(0.0006581 4.611e-05 0)
(0.0006404 4.21e-05 0)
(0.0006242 3.836e-05 0)
(0.0006094 3.489e-05 0)
(0.0005959 3.168e-05 0)
(0.0005836 2.871e-05 0)
(0.0005725 2.598e-05 0)
(0.0005624 2.347e-05 0)
(0.0005532 2.117e-05 0)
(0.000545 1.907e-05 0)
(0.0005375 1.716e-05 0)
(0.0005308 1.541e-05 0)
(0.0005248 1.383e-05 0)
(0.0005193 1.239e-05 0)
(0.0005145 1.109e-05 0)
(0.0005101 9.921e-06 0)
(0.0005061 8.866e-06 0)
(0.0005026 7.921e-06 0)
(0.0004995 7.079e-06 0)
(0.0004967 6.333e-06 0)
(0.0004941 5.678e-06 0)
(0.0004919 5.111e-06 0)
(0.0004898 4.629e-06 0)
(0.000488 4.23e-06 0)
(0.0004863 3.915e-06 0)
(0.0004847 3.684e-06 0)
(0.0004833 3.539e-06 0)
(0.0004819 3.479e-06 0)
(0.0004806 3.502e-06 0)
(0.0004794 3.596e-06 0)
(0.0004782 3.73e-06 0)
(0.000477 3.834e-06 0)
(0.001214 0.000152 0)
(0.001246 0.0003353 0)
(0.001274 0.0004179 0)
(0.001282 0.0004349 0)
(0.001269 0.0004161 0)
(0.00124 0.0003807 0)
(0.001201 0.0003395 0)
(0.001156 0.0002983 0)
(0.001109 0.00026 0)
(0.001063 0.0002256 0)
(0.00102 0.0001952 0)
(0.000979 0.0001686 0)
(0.0009421 0.0001454 0)
(0.0009088 0.0001251 0)
(0.0008792 0.0001073 0)
(0.0008531 9.166e-05 0)
(0.0008304 7.776e-05 0)
(0.0008109 6.534e-05 0)
(0.0007944 5.414e-05 0)
(0.0007808 4.397e-05 0)
(0.0007697 3.462e-05 0)
(0.0007613 2.594e-05 0)
(0.0007552 1.78e-05 0)
(0.0007515 1.008e-05 0)
(0.00075 2.656e-06 0)
(0.0007508 -4.551e-06 0)
(0.0007537 -1.163e-05 0)
(0.0007588 -1.865e-05 0)
(0.000766 -2.569e-05 0)
(0.0007755 -3.28e-05 0)
(0.0007872 -4.003e-05 0)
(0.0008011 -4.744e-05 0)
(0.0008174 -5.505e-05 0)
(0.0008361 -6.29e-05 0)
(0.0008572 -7.1e-05 0)
(0.0008809 -7.937e-05 0)
(0.0009072 -8.801e-05 0)
(0.0009362 -9.691e-05 0)
(0.0009679 -0.000106 0)
(0.001002 -0.0001153 0)
(0.00104 -0.0001247 0)
(0.00108 -0.0001342 0)
(0.001123 -0.0001436 0)
(0.001169 -0.0001527 0)
(0.001217 -0.0001616 0)
(0.001269 -0.0001699 0)
(0.001322 -0.0001775 0)
(0.001378 -0.0001841 0)
(0.001435 -0.0001896 0)
(0.001493 -0.0001936 0)
(0.001553 -0.000196 0)
(0.001613 -0.0001965 0)
(0.001673 -0.0001947 0)
(0.001732 -0.0001906 0)
(0.001789 -0.000184 0)
(0.001843 -0.0001746 0)
(0.001895 -0.0001625 0)
(0.001942 -0.0001477 0)
(0.001984 -0.0001302 0)
(0.002021 -0.0001103 0)
(0.002052 -8.83e-05 0)
(0.002075 -6.456e-05 0)
(0.002091 -3.959e-05 0)
(0.002099 -1.392e-05 0)
(0.0021 1.186e-05 0)
(0.002093 3.719e-05 0)
(0.002078 6.153e-05 0)
(0.002056 8.442e-05 0)
(0.002027 0.0001055 0)
(0.001992 0.0001244 0)
(0.001952 0.0001411 0)
(0.001907 0.0001553 0)
(0.001858 0.0001671 0)
(0.001806 0.0001764 0)
(0.001751 0.0001833 0)
(0.001695 0.000188 0)
(0.001637 0.0001905 0)
(0.001578 0.0001911 0)
(0.00152 0.0001899 0)
(0.001462 0.0001871 0)
(0.001405 0.000183 0)
(0.00135 0.0001777 0)
(0.001296 0.0001714 0)
(0.001244 0.0001644 0)
(0.001194 0.0001569 0)
(0.001146 0.0001489 0)
(0.001101 0.0001407 0)
(0.001059 0.0001324 0)
(0.001018 0.0001241 0)
(0.0009807 0.0001158 0)
(0.0009455 0.0001078 0)
(0.0009127 9.998e-05 0)
(0.0008822 9.246e-05 0)
(0.000854 8.528e-05 0)
(0.000828 7.846e-05 0)
(0.0008039 7.201e-05 0)
(0.0007819 6.594e-05 0)
(0.0007616 6.026e-05 0)
(0.0007431 5.496e-05 0)
(0.0007262 5.004e-05 0)
(0.0007107 4.547e-05 0)
(0.0006966 4.125e-05 0)
(0.0006839 3.736e-05 0)
(0.0006722 3.379e-05 0)
(0.0006617 3.051e-05 0)
(0.0006522 2.751e-05 0)
(0.0006436 2.477e-05 0)
(0.0006358 2.228e-05 0)
(0.0006288 2.001e-05 0)
(0.0006225 1.795e-05 0)
(0.0006169 1.608e-05 0)
(0.0006118 1.44e-05 0)
(0.0006072 1.288e-05 0)
(0.0006031 1.152e-05 0)
(0.0005995 1.03e-05 0)
(0.0005962 9.223e-06 0)
(0.0005932 8.271e-06 0)
(0.0005906 7.443e-06 0)
(0.0005882 6.733e-06 0)
(0.000586 6.138e-06 0)
(0.0005841 5.656e-06 0)
(0.0005823 5.285e-06 0)
(0.0005806 5.025e-06 0)
(0.0005791 4.872e-06 0)
(0.0005777 4.819e-06 0)
(0.0005764 4.85e-06 0)
(0.0005751 4.932e-06 0)
(0.0005739 5.004e-06 0)
(0.00121 0.0001278 0)
(0.001237 0.0003005 0)
(0.001267 0.0003951 0)
(0.001285 0.0004313 0)
(0.001287 0.0004302 0)
(0.001275 0.000408 0)
(0.001251 0.0003752 0)
(0.00122 0.0003385 0)
(0.001185 0.0003017 0)
(0.001148 0.0002667 0)
(0.001112 0.0002344 0)
(0.001076 0.0002052 0)
(0.001043 0.0001789 0)
(0.001013 0.0001554 0)
(0.0009849 0.0001343 0)
(0.0009601 0.0001155 0)
(0.0009383 9.847e-05 0)
(0.0009193 8.308e-05 0)
(0.0009032 6.906e-05 0)
(0.0008897 5.618e-05 0)
(0.0008789 4.425e-05 0)
(0.0008706 3.309e-05 0)
(0.0008648 2.256e-05 0)
(0.0008613 1.251e-05 0)
(0.0008602 2.809e-06 0)
(0.0008614 -6.643e-06 0)
(0.0008649 -1.595e-05 0)
(0.0008707 -2.521e-05 0)
(0.0008788 -3.45e-05 0)
(0.0008892 -4.389e-05 0)
(0.000902 -5.345e-05 0)
(0.0009173 -6.324e-05 0)
(0.0009351 -7.33e-05 0)
(0.0009554 -8.367e-05 0)
(0.0009784 -9.437e-05 0)
(0.001004 -0.0001054 0)
(0.001033 -0.0001168 0)
(0.001064 -0.0001285 0)
(0.001099 -0.0001405 0)
(0.001136 -0.0001528 0)
(0.001176 -0.0001651 0)
(0.00122 -0.0001775 0)
(0.001266 -0.0001898 0)
(0.001316 -0.0002019 0)
(0.001368 -0.0002134 0)
(0.001424 -0.0002243 0)
(0.001481 -0.0002342 0)
(0.001541 -0.0002429 0)
(0.001603 -0.00025 0)
(0.001666 -0.0002553 0)
(0.001731 -0.0002583 0)
(0.001796 -0.0002589 0)
(0.00186 -0.0002566 0)
(0.001924 -0.0002511 0)
(0.001985 -0.0002424 0)
(0.002045 -0.00023 0)
(0.0021 -0.0002141 0)
(0.002152 -0.0001946 0)
(0.002198 -0.0001716 0)
(0.002237 -0.0001455 0)
(0.00227 -0.0001165 0)
(0.002296 -8.524e-05 0)
(0.002313 -5.235e-05 0)
(0.002322 -1.853e-05 0)
(0.002323 1.543e-05 0)
(0.002315 4.879e-05 0)
(0.002299 8.084e-05 0)
(0.002275 0.000111 0)
(0.002244 0.0001387 0)
(0.002206 0.0001636 0)
(0.002163 0.0001856 0)
(0.002114 0.0002043 0)
(0.002062 0.0002199 0)
(0.002005 0.0002322 0)
(0.001946 0.0002414 0)
(0.001885 0.0002476 0)
(0.001823 0.0002511 0)
(0.00176 0.0002519 0)
(0.001697 0.0002505 0)
(0.001634 0.0002469 0)
(0.001573 0.0002416 0)
(0.001513 0.0002347 0)
(0.001454 0.0002266 0)
(0.001398 0.0002175 0)
(0.001344 0.0002076 0)
(0.001293 0.0001972 0)
(0.001244 0.0001865 0)
(0.001197 0.0001756 0)
(0.001154 0.0001646 0)
(0.001113 0.0001538 0)
(0.001074 0.0001433 0)
(0.001039 0.000133 0)
(0.001006 0.0001231 0)
(0.0009749 0.0001136 0)
(0.0009465 0.0001046 0)
(0.0009202 9.609e-05 0)
(0.0008961 8.807e-05 0)
(0.0008739 8.055e-05 0)
(0.0008536 7.352e-05 0)
(0.0008351 6.699e-05 0)
(0.0008181 6.093e-05 0)
(0.0008026 5.532e-05 0)
(0.0007886 5.015e-05 0)
(0.0007758 4.539e-05 0)
(0.0007642 4.103e-05 0)
(0.0007537 3.703e-05 0)
(0.0007441 3.337e-05 0)
(0.0007355 3.004e-05 0)
(0.0007278 2.7e-05 0)
(0.0007208 2.425e-05 0)
(0.0007145 2.175e-05 0)
(0.0007088 1.949e-05 0)
(0.0007038 1.745e-05 0)
(0.0006992 1.562e-05 0)
(0.0006951 1.398e-05 0)
(0.0006914 1.252e-05 0)
(0.0006881 1.123e-05 0)
(0.0006852 1.01e-05 0)
(0.0006825 9.124e-06 0)
(0.0006801 8.298e-06 0)
(0.000678 7.615e-06 0)
(0.000676 7.073e-06 0)
(0.0006742 6.667e-06 0)
(0.0006726 6.39e-06 0)
(0.000671 6.235e-06 0)
(0.0006696 6.18e-06 0)
(0.0006683 6.196e-06 0)
(0.000667 6.231e-06 0)
(0.001208 0.0001096 0)
(0.00123 0.0002693 0)
(0.001259 0.0003684 0)
(0.001281 0.0004172 0)
(0.001293 0.0004304 0)
(0.001293 0.0004205 0)
(0.001282 0.000397 0)
(0.001263 0.0003665 0)
(0.001239 0.0003331 0)
(0.001212 0.0002995 0)
(0.001183 0.0002671 0)
(0.001154 0.0002367 0)
(0.001126 0.0002086 0)
(0.001099 0.0001828 0)
(0.001075 0.0001592 0)
(0.001052 0.0001377 0)
(0.001033 0.000118 0)
(0.001015 9.998e-05 0)
(0.001 8.334e-05 0)
(0.0009874 6.789e-05 0)
(0.0009773 5.346e-05 0)
(0.0009696 3.987e-05 0)
(0.0009643 2.694e-05 0)
(0.0009614 1.453e-05 0)
(0.0009608 2.506e-06 0)
(0.0009625 -9.26e-06 0)
(0.0009666 -2.088e-05 0)
(0.000973 -3.247e-05 0)
(0.0009818 -4.412e-05 0)
(0.000993 -5.591e-05 0)
(0.001007 -6.793e-05 0)
(0.001023 -8.023e-05 0)
(0.001042 -9.288e-05 0)
(0.001063 -0.0001059 0)
(0.001087 -0.0001194 0)
(0.001114 -0.0001332 0)
(0.001144 -0.0001476 0)
(0.001178 -0.0001623 0)
(0.001214 -0.0001773 0)
(0.001253 -0.0001926 0)
(0.001295 -0.0002081 0)
(0.001341 -0.0002237 0)
(0.00139 -0.0002391 0)
(0.001442 -0.0002541 0)
(0.001497 -0.0002686 0)
(0.001555 -0.0002821 0)
(0.001615 -0.0002945 0)
(0.001678 -0.0003054 0)
(0.001743 -0.0003143 0)
(0.001809 -0.0003209 0)
(0.001877 -0.0003247 0)
(0.001945 -0.0003254 0)
(0.002013 -0.0003225 0)
(0.00208 -0.0003157 0)
(0.002145 -0.0003047 0)
(0.002207 -0.0002893 0)
(0.002266 -0.0002693 0)
(0.00232 -0.0002449 0)
(0.002369 -0.000216 0)
(0.002411 -0.0001832 0)
(0.002446 -0.0001468 0)
(0.002473 -0.0001074 0)
(0.002492 -6.604e-05 0)
(0.002501 -2.347e-05 0)
(0.002502 1.927e-05 0)
(0.002493 6.124e-05 0)
(0.002476 0.0001015 0)
(0.002451 0.0001394 0)
(0.002418 0.0001742 0)
(0.002379 0.0002055 0)
(0.002333 0.000233 0)
(0.002282 0.0002565 0)
(0.002226 0.000276 0)
(0.002167 0.0002916 0)
(0.002105 0.0003032 0)
(0.002041 0.0003111 0)
(0.001975 0.0003155 0)
(0.001909 0.0003167 0)
(0.001843 0.000315 0)
(0.001777 0.0003106 0)
(0.001713 0.000304 0)
(0.00165 0.0002955 0)
(0.001588 0.0002854 0)
(0.001529 0.0002741 0)
(0.001472 0.0002618 0)
(0.001418 0.0002488 0)
(0.001367 0.0002353 0)
(0.001318 0.0002217 0)
(0.001272 0.000208 0)
(0.001229 0.0001945 0)
(0.001189 0.0001812 0)
(0.001151 0.0001683 0)
(0.001116 0.0001559 0)
(0.001084 0.000144 0)
(0.001054 0.0001327 0)
(0.001026 0.000122 0)
(0.001 0.0001119 0)
(0.000977 0.0001024 0)
(0.0009555 9.352e-05 0)
(0.0009357 8.528e-05 0)
(0.0009177 7.762e-05 0)
(0.0009013 7.053e-05 0)
(0.0008863 6.399e-05 0)
(0.0008727 5.797e-05 0)
(0.0008603 5.243e-05 0)
(0.0008491 4.736e-05 0)
(0.0008389 4.272e-05 0)
(0.0008297 3.848e-05 0)
(0.0008214 3.462e-05 0)
(0.0008139 3.111e-05 0)
(0.0008072 2.793e-05 0)
(0.0008011 2.505e-05 0)
(0.0007956 2.244e-05 0)
(0.0007907 2.01e-05 0)
(0.0007863 1.8e-05 0)
(0.0007823 1.613e-05 0)
(0.0007788 1.446e-05 0)
(0.0007756 1.301e-05 0)
(0.0007727 1.174e-05 0)
(0.0007702 1.065e-05 0)
(0.0007678 9.74e-06 0)
(0.0007658 8.998e-06 0)
(0.0007639 8.42e-06 0)
(0.0007621 7.997e-06 0)
(0.0007606 7.716e-06 0)
(0.0007591 7.56e-06 0)
(0.0007578 7.5e-06 0)
(0.0007565 7.494e-06 0)
(0.001206 9.554e-05 0)
(0.001225 0.0002421 0)
(0.001251 0.0003411 0)
(0.001276 0.0003975 0)
(0.001293 0.0004213 0)
(0.001301 0.0004219 0)
(0.0013 0.0004073 0)
(0.001291 0.0003835 0)
(0.001277 0.0003547 0)
(0.001258 0.0003238 0)
(0.001237 0.0002926 0)
(0.001215 0.0002623 0)
(0.001193 0.0002334 0)
(0.001171 0.0002063 0)
(0.00115 0.000181 0)
(0.001131 0.0001574 0)
(0.001114 0.0001356 0)
(0.001098 0.0001153 0)
(0.001085 9.634e-05 0)
(0.001074 7.858e-05 0)
(0.001065 6.182e-05 0)
(0.001058 4.591e-05 0)
(0.001054 3.068e-05 0)
(0.001052 1.597e-05 0)
(0.001052 1.653e-06 0)
(0.001054 -1.242e-05 0)
(0.001059 -2.637e-05 0)
(0.001065 -4.031e-05 0)
(0.001075 -5.435e-05 0)
(0.001086 -6.859e-05 0)
(0.001101 -8.311e-05 0)
(0.001117 -9.799e-05 0)
(0.001137 -0.0001133 0)
(0.001159 -0.0001291 0)
(0.001184 -0.0001453 0)
(0.001212 -0.0001621 0)
(0.001242 -0.0001794 0)
(0.001276 -0.0001972 0)
(0.001313 -0.0002154 0)
(0.001353 -0.0002339 0)
(0.001397 -0.0002527 0)
(0.001443 -0.0002714 0)
(0.001493 -0.00029 0)
(0.001546 -0.0003082 0)
(0.001602 -0.0003257 0)
(0.001662 -0.0003421 0)
(0.001724 -0.0003571 0)
(0.001788 -0.0003702 0)
(0.001854 -0.000381 0)
(0.001923 -0.0003889 0)
(0.001992 -0.0003936 0)
(0.002062 -0.0003945 0)
(0.002132 -0.0003911 0)
(0.002201 -0.0003829 0)
(0.002268 -0.0003697 0)
(0.002332 -0.0003511 0)
(0.002393 -0.000327 0)
(0.002449 -0.0002974 0)
(0.002499 -0.0002625 0)
(0.002543 -0.0002227 0)
(0.002579 -0.0001785 0)
(0.002607 -0.0001307 0)
(0.002627 -8.037e-05 0)
(0.002636 -2.86e-05 0)
(0.002637 2.337e-05 0)
(0.002628 7.435e-05 0)
(0.00261 0.0001232 0)
(0.002584 0.0001691 0)
(0.00255 0.0002112 0)
(0.002509 0.0002491 0)
(0.002462 0.0002824 0)
(0.002409 0.0003108 0)
(0.002352 0.0003344 0)
(0.002291 0.0003532 0)
(0.002228 0.0003673 0)
(0.002162 0.0003769 0)
(0.002094 0.0003823 0)
(0.002027 0.0003839 0)
(0.001959 0.0003818 0)
(0.001891 0.0003767 0)
(0.001825 0.0003688 0)
(0.001761 0.0003586 0)
(0.001698 0.0003465 0)
(0.001637 0.0003328 0)
(0.001579 0.0003179 0)
(0.001524 0.0003023 0)
(0.001471 0.0002861 0)
(0.001421 0.0002696 0)
(0.001374 0.0002531 0)
(0.00133 0.0002367 0)
(0.001288 0.0002207 0)
(0.00125 0.0002051 0)
(0.001214 0.0001901 0)
(0.00118 0.0001757 0)
(0.001149 0.0001619 0)
(0.001121 0.0001489 0)
(0.001095 0.0001367 0)
(0.001071 0.0001252 0)
(0.001048 0.0001144 0)
(0.001028 0.0001044 0)
(0.001009 9.51e-05 0)
(0.0009924 8.648e-05 0)
(0.0009769 7.851e-05 0)
(0.0009628 7.117e-05 0)
(0.00095 6.443e-05 0)
(0.0009383 5.824e-05 0)
(0.0009278 5.257e-05 0)
(0.0009182 4.739e-05 0)
(0.0009096 4.267e-05 0)
(0.0009018 3.837e-05 0)
(0.0008947 3.447e-05 0)
(0.0008884 3.093e-05 0)
(0.0008827 2.774e-05 0)
(0.0008775 2.486e-05 0)
(0.0008729 2.227e-05 0)
(0.0008688 1.996e-05 0)
(0.0008651 1.79e-05 0)
(0.0008617 1.609e-05 0)
(0.0008588 1.45e-05 0)
(0.0008561 1.313e-05 0)
(0.0008537 1.197e-05 0)
(0.0008515 1.101e-05 0)
(0.0008496 1.024e-05 0)
(0.0008478 9.653e-06 0)
(0.0008462 9.232e-06 0)
(0.0008447 8.961e-06 0)
(0.0008434 8.817e-06 0)
(0.0008421 8.768e-06 0)
(0.001205 8.43e-05 0)
(0.001221 0.0002184 0)
(0.001245 0.0003146 0)
(0.001269 0.0003751 0)
(0.00129 0.0004063 0)
(0.001303 0.0004153 0)
(0.00131 0.0004085 0)
(0.001309 0.0003913 0)
(0.001303 0.0003675 0)
(0.001292 0.0003401 0)
(0.001279 0.000311 0)
(0.001263 0.0002817 0)
(0.001246 0.000253 0)
(0.00123 0.0002253 0)
(0.001213 0.000199 0)
(0.001198 0.0001741 0)
(0.001183 0.0001506 0)
(0.001171 0.0001285 0)
(0.001159 0.0001076 0)
(0.00115 8.781e-05 0)
(0.001143 6.899e-05 0)
(0.001137 5.096e-05 0)
(0.001134 3.359e-05 0)
(0.001132 1.671e-05 0)
(0.001133 1.957e-07 0)
(0.001136 -1.61e-05 0)
(0.001141 -3.232e-05 0)
(0.001148 -4.857e-05 0)
(0.001158 -6.497e-05 0)
(0.00117 -8.163e-05 0)
(0.001184 -9.864e-05 0)
(0.001201 -0.0001161 0)
(0.00122 -0.000134 0)
(0.001243 -0.0001526 0)
(0.001267 -0.0001717 0)
(0.001295 -0.0001914 0)
(0.001326 -0.0002117 0)
(0.00136 -0.0002326 0)
(0.001397 -0.0002539 0)
(0.001437 -0.0002757 0)
(0.00148 -0.0002976 0)
(0.001527 -0.0003197 0)
(0.001576 -0.0003415 0)
(0.00163 -0.0003629 0)
(0.001686 -0.0003834 0)
(0.001745 -0.0004027 0)
(0.001807 -0.0004203 0)
(0.001871 -0.0004358 0)
(0.001938 -0.0004486 0)
(0.002007 -0.000458 0)
(0.002076 -0.0004636 0)
(0.002147 -0.0004647 0)
(0.002217 -0.0004609 0)
(0.002286 -0.0004514 0)
(0.002354 -0.000436 0)
(0.002419 -0.0004143 0)
(0.00248 -0.000386 0)
(0.002537 -0.0003513 0)
(0.002588 -0.0003102 0)
(0.002633 -0.0002633 0)
(0.00267 -0.0002111 0)
(0.002698 -0.0001546 0)
(0.002718 -9.503e-05 0)
(0.002728 -3.375e-05 0)
(0.002728 2.774e-05 0)
(0.002719 8.798e-05 0)
(0.002701 0.0001457 0)
(0.002674 0.0001997 0)
(0.002639 0.0002492 0)
(0.002598 0.0002937 0)
(0.00255 0.0003327 0)
(0.002497 0.0003661 0)
(0.002439 0.0003938 0)
(0.002378 0.0004159 0)
(0.002314 0.0004324 0)
(0.002248 0.0004438 0)
(0.002181 0.0004502 0)
(0.002113 0.000452 0)
(0.002045 0.0004497 0)
(0.001977 0.0004437 0)
(0.001911 0.0004345 0)
(0.001846 0.0004225 0)
(0.001783 0.0004083 0)
(0.001722 0.0003922 0)
(0.001664 0.0003748 0)