/*--------------------------------*- C++ -*----------------------------------*\
  =========                 |
  \\      /  F ield         | OpenFOAM: The Open Source CFD Toolbox
   \\    /   O peration     | Website:  https://openfoam.org
    \\  /    A nd           | Version:  7
     \\/     M anipulation  |
\*---------------------------------------------------------------------------*/
FoamFile
{
    version     2.0;
    format      ascii;
    class       volScalarField;
    location    "779.999473410820883";
    object      Y.K;
}
// * * * * * * * * * * * * * * * * * * * * * * * * * * * * * * * * * * * * * //

dimensions      [0 0 0 0 0 0 0];

internalField   nonuniform List<scalar> 
4096
(
1.034e-70
9.902e-69
-4.845e-69
8.732e-69
-4.252e-69
-1.624e-68
9.176e-69
1.242e-68
-1.683e-68
3.004e-67
-3.092e-66
5.173e-65
-7.309e-64
1.052e-62
-1.363e-61
1.686e-60
-1.942e-59
2.14e-58
-2.22e-57
2.216e-56
-2.079e-55
1.884e-54
-1.654e-53
1.385e-52
-1.106e-51
8.394e-51
-6.272e-50
4.857e-49
-3.806e-48
3.019e-47
-2.401e-46
1.896e-45
-1.446e-44
1.07e-43
-7.459e-43
4.834e-42
-2.721e-41
1.238e-40
-3.129e-40
-2.527e-39
4.559e-38
-4.682e-37
3.804e-36
-2.611e-35
1.594e-34
-8.484e-34
4.025e-33
-1.66e-32
5.821e-32
-1.442e-31
7.065e-32
4.405e-30
-1.878e-29
2.11e-28
-1.322e-28
3.656e-27
1.874e-26
5.315e-26
5.434e-25
2.045e-24
1.934e-23
6.599e-23
2.155e-22
1.529e-21
7.142e-21
9.365e-20
1.299e-18
3.937e-18
8.851e-18
1.767e-17
3.309e-17
5.932e-17
1.028e-16
1.731e-16
2.841e-16
4.553e-16
7.135e-16
1.095e-15
1.647e-15
2.431e-15
3.526e-15
5.026e-15
7.053e-15
9.747e-15
1.328e-14
1.785e-14
2.37e-14
3.109e-14
4.034e-14
5.181e-14
6.589e-14
8.304e-14
1.038e-13
1.287e-13
1.584e-13
1.937e-13
2.353e-13
2.842e-13
3.413e-13
4.078e-13
4.848e-13
5.739e-13
6.764e-13
7.94e-13
9.287e-13
1.082e-12
1.257e-12
1.456e-12
1.681e-12
1.936e-12
2.223e-12
2.546e-12
2.91e-12
3.318e-12
3.775e-12
4.285e-12
4.856e-12
5.491e-12
6.199e-12
6.985e-12
7.856e-12
8.82e-12
9.883e-12
1.105e-11
1.23e-11
1.362e-11
1.491e-11
1.592e-11
-3.203e-68
1.766e-67
-2.885e-67
6.183e-68
4.883e-67
-6.336e-67
-3.974e-68
8.119e-67
-7.932e-67
1.755e-65
-1.814e-64
2.835e-63
-4.206e-62
5.841e-61
-7.608e-60
9.306e-59
-1.073e-57
1.17e-56
-1.212e-55
1.196e-54
-1.128e-53
1.018e-52
-8.81e-52
7.302e-51
-5.837e-50
4.404e-49
-3.291e-48
2.517e-47
-1.963e-46
1.55e-45
-1.229e-44
9.652e-44
-7.41e-43
5.476e-42
-3.826e-41
2.467e-40
-1.406e-39
6.576e-39
-1.962e-38
-8.702e-38
2.018e-36
-2.171e-35
1.75e-34
-1.206e-33
7.413e-33
-3.949e-32
1.88e-31
-7.811e-31
2.837e-30
-7.282e-30
7.44e-30
1.954e-28
-6.209e-28
9.706e-27
1.767e-27
1.95e-25
8.991e-25
3.294e-24
2.637e-23
1.108e-22
8.726e-22
3.015e-21
9.483e-21
5.795e-20
2.148e-19
1.334e-18
3.891e-18
8.729e-18
1.752e-17
3.294e-17
5.917e-17
1.025e-16
1.722e-16
2.814e-16
4.483e-16
6.979e-16
1.063e-15
1.587e-15
2.325e-15
3.346e-15
4.736e-15
6.599e-15
9.062e-15
1.228e-14
1.642e-14
2.17e-14
2.836e-14
3.668e-14
4.698e-14
5.963e-14
7.503e-14
9.367e-14
1.161e-13
1.428e-13
1.746e-13
2.122e-13
2.563e-13
3.08e-13
3.683e-13
4.383e-13
5.193e-13
6.127e-13
7.2e-13
8.431e-13
9.839e-13
1.144e-12
1.327e-12
1.534e-12
1.768e-12
2.033e-12
2.332e-12
2.668e-12
3.046e-12
3.47e-12
3.944e-12
4.474e-12
5.066e-12
5.725e-12
6.459e-12
7.273e-12
8.176e-12
9.176e-12
1.028e-11
1.149e-11
1.282e-11
1.424e-11
1.572e-11
1.711e-11
6.841e-67
-4.974e-66
1.621e-65
-3.291e-65
3.629e-65
-7.555e-66
-3.422e-65
3.879e-65
-3.279e-65
1.019e-63
-9.733e-63
1.521e-61
-2.255e-60
3.124e-59
-4.051e-58
4.927e-57
-5.642e-56
6.108e-55
-6.277e-54
6.146e-53
-5.749e-52
5.148e-51
-4.418e-50
3.632e-49
-2.876e-48
2.152e-47
-1.599e-46
1.215e-45
-9.413e-45
7.39e-44
-5.828e-43
4.562e-42
-3.498e-41
2.588e-40
-1.817e-39
1.185e-38
-6.931e-38
3.388e-37
-1.304e-36
-8.834e-37
7.034e-35
-8.495e-34
7.111e-33
-4.996e-32
3.136e-31
-1.684e-30
8.114e-30
-3.439e-29
1.316e-28
-3.679e-28
6.217e-28
7.363e-27
-8.614e-27
4.215e-25
5.454e-25
1.082e-23
4.804e-23
1.912e-22
1.306e-21
5.854e-21
3.778e-20
1.281e-19
3.777e-19
1.806e-18
5.158e-18
1.163e-17
2.372e-17
4.546e-17
8.306e-17
1.458e-16
2.472e-16
4.056e-16
6.459e-16
1.001e-15
1.511e-15
2.229e-15
3.217e-15
4.549e-15
6.313e-15
8.614e-15
1.157e-14
1.532e-14
2.003e-14
2.588e-14
3.308e-14
4.187e-14
5.254e-14
6.539e-14
8.08e-14
9.919e-14
1.21e-13
1.468e-13
1.772e-13
2.128e-13
2.545e-13
3.03e-13
3.594e-13
4.247e-13
5e-13
5.869e-13
6.866e-13
8.008e-13
9.314e-13
1.08e-12
1.25e-12
1.442e-12
1.66e-12
1.907e-12
2.185e-12
2.499e-12
2.852e-12
3.248e-12
3.692e-12
4.189e-12
4.744e-12
5.364e-12
6.054e-12
6.821e-12
7.673e-12
8.618e-12
9.664e-12
1.082e-11
1.21e-11
1.35e-11
1.504e-11
1.672e-11
1.855e-11
2.057e-11
-9.667e-66
7.982e-65
-3.779e-64
1.297e-63
-2.996e-63
4.455e-63
-3.816e-63
9.98e-64
-1.614e-63
5.819e-62
-4.962e-61
7.724e-60
-1.142e-58
1.573e-57
-2.023e-56
2.437e-55
-2.762e-54
2.958e-53
-3.006e-52
2.911e-51
-2.693e-50
2.386e-49
-2.025e-48
1.647e-47
-1.288e-46
9.53e-46
-7.02e-45
5.279e-44
-4.046e-43
3.146e-42
-2.462e-41
1.919e-40
-1.471e-39
1.092e-38
-7.747e-38
5.144e-37
-3.125e-36
1.607e-35
-8.184e-35
1.276e-34
1.434e-33
-2.555e-32
2.362e-31
-1.735e-30
1.139e-29
-6.226e-29
3.068e-28
-1.343e-27
5.557e-27
-1.642e-26
3.905e-26
2.323e-25
5.117e-25
1.68e-23
5.684e-23
5.851e-22
2.516e-21
1.044e-20
6.045e-20
2.618e-19
1.291e-18
4.046e-18
1.004e-17
2.253e-17
4.725e-17
9.381e-17
1.774e-16
3.211e-16
5.576e-16
9.32e-16
1.503e-15
2.344e-15
3.544e-15
5.206e-15
7.445e-15
1.039e-14
1.418e-14
1.896e-14
2.487e-14
3.21e-14
4.079e-14
5.116e-14
6.34e-14
7.775e-14
9.447e-14
1.139e-13
1.363e-13
1.622e-13
1.92e-13
2.263e-13
2.656e-13
3.107e-13
3.624e-13
4.215e-13
4.892e-13
5.665e-13
6.548e-13
7.554e-13
8.7e-13
1e-12
1.148e-12
1.316e-12
1.507e-12
1.722e-12
1.965e-12
2.239e-12
2.548e-12
2.896e-12
3.286e-12
3.724e-12
4.214e-12
4.762e-12
5.374e-12
6.056e-12
6.815e-12
7.66e-12
8.597e-12
9.636e-12
1.079e-11
1.206e-11
1.346e-11
1.501e-11
1.671e-11
1.857e-11
2.062e-11
2.286e-11
2.533e-11
2.839e-11
9.476e-65
-8.364e-64
5.572e-63
-2.807e-62
1.001e-61
-2.45e-61
4.155e-61
-4.717e-61
7.643e-62
3.185e-60
-2.412e-59
3.731e-58
-5.465e-57
7.44e-56
-9.439e-55
1.12e-53
-1.249e-52
1.316e-51
-1.316e-50
1.255e-49
-1.144e-48
9.987e-48
-8.358e-47
6.701e-46
-5.161e-45
3.763e-44
-2.735e-43
2.025e-42
-1.526e-41
1.169e-40
-9.04e-40
6.995e-39
-5.353e-38
3.999e-37
-2.874e-36
1.957e-35
-1.24e-34
7.016e-34
-3.733e-33
1.258e-32
-1.432e-32
-4.106e-31
5.674e-30
-4.647e-29
3.375e-28
-1.903e-27
9.671e-27
-4.436e-26
2.043e-25
-6.153e-25
1.842e-24
9.707e-24
6.097e-23
6.213e-22
3.687e-21
2.928e-20
1.24e-19
4.708e-19
2.246e-18
7.424e-18
1.978e-17
4.768e-17
1.073e-16
2.275e-16
4.567e-16
8.706e-16
1.581e-15
2.74e-15
4.549e-15
7.249e-15
1.112e-14
1.647e-14
2.359e-14
3.28e-14
4.435e-14
5.847e-14
7.534e-14
9.51e-14
1.178e-13
1.436e-13
1.726e-13
2.049e-13
2.406e-13
2.8e-13
3.234e-13
3.712e-13
4.24e-13
4.823e-13
5.468e-13
6.185e-13
6.983e-13
7.873e-13
8.869e-13
9.984e-13
1.124e-12
1.264e-12
1.422e-12
1.6e-12
1.799e-12
2.024e-12
2.277e-12
2.561e-12
2.879e-12
3.237e-12
3.639e-12
4.089e-12
4.592e-12
5.156e-12
5.785e-12
6.486e-12
7.268e-12
8.138e-12
9.106e-12
1.018e-11
1.137e-11
1.269e-11
1.415e-11
1.576e-11
1.753e-11
1.949e-11
2.164e-11
2.4e-11
2.658e-11
2.941e-11
3.249e-11
3.585e-11
3.955e-11
4.449e-11
-3.279e-64
2.898e-63
-3.878e-62
3.965e-61
-2.106e-60
7.526e-60
-1.896e-59
3.482e-59
-4.639e-59
1.811e-58
-1.131e-57
1.715e-56
-2.468e-55
3.292e-54
-4.084e-53
4.734e-52
-5.156e-51
5.308e-50
-5.194e-49
4.851e-48
-4.336e-47
3.716e-46
-3.056e-45
2.408e-44
-1.821e-43
1.304e-42
-9.309e-42
6.738e-41
-4.955e-40
3.703e-39
-2.806e-38
2.14e-37
-1.628e-36
1.221e-35
-8.906e-35
6.239e-34
-4.14e-33
2.559e-32
-1.442e-31
6.978e-31
-2.777e-30
4.83e-30
4.111e-29
-7.127e-28
7.154e-27
-4.421e-26
2.345e-25
-1.161e-24
6.353e-24
-1.643e-23
8.139e-23
5.349e-22
3.8e-21
3.168e-20
1.91e-19
1.103e-18
4.27e-18
1.341e-17
3.81e-17
1.005e-16
2.48e-16
5.745e-16
1.252e-15
2.573e-15
4.993e-15
9.172e-15
1.599e-14
2.653e-14
4.202e-14
6.373e-14
9.281e-14
1.302e-13
1.765e-13
2.317e-13
2.957e-13
3.676e-13
4.466e-13
5.314e-13
6.209e-13
7.142e-13
8.107e-13
9.099e-13
1.012e-12
1.117e-12
1.226e-12
1.34e-12
1.46e-12
1.588e-12
1.725e-12
1.873e-12
2.035e-12
2.212e-12
2.407e-12
2.623e-12
2.863e-12
3.13e-12
3.428e-12
3.761e-12
4.133e-12
4.549e-12
5.014e-12
5.533e-12
6.114e-12
6.762e-12
7.485e-12
8.292e-12
9.19e-12
1.019e-11
1.13e-11
1.254e-11
1.391e-11
1.543e-11
1.711e-11
1.897e-11
2.103e-11
2.329e-11
2.579e-11
2.854e-11
3.155e-11
3.486e-11
3.849e-11
4.245e-11
4.677e-11
5.149e-11
5.661e-11
6.217e-11
6.823e-11
7.672e-11
-1.221e-62
1.275e-61
-1.557e-61
-2.291e-60
3.006e-59
-1.58e-58
5.588e-58
-1.422e-57
2.608e-57
3.261e-57
-4.721e-56
7.448e-55
-1.043e-53
1.348e-52
-1.618e-51
1.814e-50
-1.912e-49
1.909e-48
-1.815e-47
1.65e-46
-1.44e-45
1.207e-44
-9.724e-44
7.518e-43
-5.577e-42
3.915e-41
-2.736e-40
1.924e-39
-1.367e-38
9.831e-38
-7.177e-37
5.31e-36
-3.959e-35
2.95e-34
-2.171e-33
1.561e-32
-1.085e-31
7.219e-31
-4.546e-30
2.629e-29
-1.338e-28
6.592e-28
-2.058e-27
1.69e-27
3.729e-26
-3.605e-25
2.992e-24
-2.005e-23
1.584e-22
-1.916e-22
2.9e-21
2.544e-20
1.904e-19
1.251e-18
5.458e-18
1.95e-17
6.301e-17
1.885e-16
5.246e-16
1.362e-15
3.302e-15
7.487e-15
1.59e-14
3.169e-14
5.937e-14
1.049e-13
1.752e-13
2.775e-13
4.184e-13
6.025e-13
8.313e-13
1.103e-12
1.411e-12
1.748e-12
2.102e-12
2.462e-12
2.816e-12
3.155e-12
3.474e-12
3.769e-12
4.04e-12
4.288e-12
4.516e-12
4.73e-12
4.936e-12
5.138e-12
5.343e-12
5.556e-12
5.785e-12
6.035e-12
6.31e-12
6.616e-12
6.959e-12
7.345e-12
7.78e-12
8.27e-12
8.822e-12
9.444e-12
1.014e-11
1.092e-11
1.18e-11
1.278e-11
1.388e-11
1.511e-11
1.647e-11
1.799e-11
1.968e-11
2.156e-11
2.364e-11
2.594e-11
2.849e-11
3.131e-11
3.442e-11
3.785e-11
4.162e-11
4.577e-11
5.032e-11
5.532e-11
6.078e-11
6.676e-11
7.328e-11
8.038e-11
8.811e-11
9.65e-11
1.056e-10
1.154e-10
1.26e-10
1.414e-10
4.102e-61
-4.153e-60
2.124e-59
-2.618e-59
-1.84e-58
2.343e-57
-1.195e-56
4.252e-56
-1.163e-55
3.86e-55
-2.252e-54
3.058e-53
-4.068e-52
5.023e-51
-5.755e-50
6.164e-49
-6.225e-48
5.972e-47
-5.476e-46
4.823e-45
-4.09e-44
3.345e-43
-2.638e-42
2.001e-41
-1.459e-40
1.008e-39
-6.907e-39
4.715e-38
-3.212e-37
2.192e-36
-1.506e-35
1.047e-34
-7.386e-34
5.284e-33
-3.815e-32
2.761e-31
-1.992e-30
1.423e-29
-9.901e-29
6.541e-28
-3.979e-27
2.18e-26
-1.064e-25
4.67e-25
-1.798e-24
5.96e-24
-5.144e-24
-6.412e-23
2.15e-21
3.475e-21
1.206e-19
1.045e-18
5.342e-18
2.226e-17
8.366e-17
2.897e-16
9.292e-16
2.764e-15
7.627e-15
1.954e-14
4.654e-14
1.031e-13
2.129e-13
4.104e-13
7.404e-13
1.254e-12
2.002e-12
3.021e-12
4.326e-12
5.902e-12
7.699e-12
9.644e-12
1.163e-11
1.358e-11
1.536e-11
1.693e-11
1.822e-11
1.921e-11
1.993e-11
2.04e-11
2.067e-11
2.076e-11
2.072e-11
2.062e-11
2.047e-11
2.032e-11
2.019e-11
2.009e-11
2.009e-11
2.015e-11
2.029e-11
2.054e-11
2.09e-11
2.139e-11
2.2e-11
2.276e-11
2.367e-11
2.474e-11
2.598e-11
2.74e-11
2.903e-11
3.088e-11
3.297e-11
3.532e-11
3.794e-11
4.088e-11
4.414e-11
4.777e-11
5.18e-11
5.625e-11
6.117e-11
6.66e-11
7.258e-11
7.916e-11
8.638e-11
9.429e-11
1.03e-10
1.124e-10
1.228e-10
1.34e-10
1.463e-10
1.596e-10
1.741e-10
1.897e-10
2.066e-10
2.248e-10
2.442e-10
2.73e-10
-8.57e-60
8.743e-59
-5.219e-58
2.07e-57
-1.951e-57
-1.604e-56
1.829e-55
-8.987e-55
2.936e-54
5.87e-56
-6.926e-53
1.119e-51
-1.428e-50
1.656e-49
-1.783e-48
1.8e-47
-1.721e-46
1.572e-45
-1.381e-44
1.171e-43
-9.627e-43
7.671e-42
-5.925e-41
4.426e-40
-3.19e-39
2.192e-38
-1.49e-37
9.994e-37
-6.603e-36
4.295e-35
-2.754e-34
1.746e-33
-1.102e-32
6.989e-32
-4.498e-31
2.96e-30
-1.99e-29
1.348e-28
-9.619e-28
6.479e-27
-3.966e-26
2.39e-25
-1.39e-24
7.909e-24
-3.598e-23
2.409e-22
-1.017e-21
3.832e-21
3.929e-20
4.134e-19
3.39e-18
1.831e-17
8.248e-17
3.372e-16
1.269e-15
4.412e-15
1.415e-14
4.19e-14
1.145e-13
2.891e-13
6.745e-13
1.457e-12
2.916e-12
5.421e-12
9.391e-12
1.521e-11
2.314e-11
3.317e-11
4.5e-11
5.806e-11
7.148e-11
8.443e-11
9.585e-11
1.053e-10
1.119e-10
1.16e-10
1.173e-10
1.164e-10
1.141e-10
1.104e-10
1.058e-10
1.008e-10
9.551e-11
9.036e-11
8.549e-11
8.103e-11
7.704e-11
7.357e-11
7.063e-11
6.823e-11
6.634e-11
6.495e-11
6.405e-11
6.359e-11
6.372e-11
6.42e-11
6.511e-11
6.651e-11
6.837e-11
7.07e-11
7.352e-11
7.685e-11
8.071e-11
8.515e-11
9.019e-11
9.587e-11
1.023e-10
1.094e-10
1.173e-10
1.261e-10
1.358e-10
1.465e-10
1.583e-10
1.713e-10
1.855e-10
2.01e-10
2.18e-10
2.365e-10
2.567e-10
2.787e-10
3.024e-10
3.282e-10
3.561e-10
3.861e-10
4.185e-10
4.534e-10
4.901e-10
5.458e-10
1.454e-58
-1.487e-57
9.769e-57
-4.816e-56
1.67e-55
-1.135e-55
-1.456e-54
1.594e-53
-8.953e-53
5.331e-52
-3.539e-51
3.85e-50
-4.35e-49
4.623e-48
-4.584e-47
4.292e-46
-3.838e-45
3.309e-44
-2.767e-43
2.252e-42
-1.789e-41
1.388e-40
-1.052e-39
7.773e-39
-5.585e-38
3.88e-37
-2.668e-36
1.807e-35
-1.201e-34
7.792e-34
-4.918e-33
3e-32
-1.757e-31
9.816e-31
-5.192e-30
2.584e-29
-1.201e-28
5.404e-28
-3.096e-27
1.605e-26
-4.71e-26
1.14e-25
-1.527e-25
2.542e-24
8.789e-23
8.484e-22
-1.099e-21
1.499e-19
1.648e-18
1.064e-17
5.708e-17
2.779e-16
1.245e-15
5.134e-15
1.949e-14
6.798e-14
2.178e-13
6.409e-13
1.731e-12
4.295e-12
9.794e-12
2.055e-11
3.977e-11
7.111e-11
1.179e-10
1.82e-10
2.63e-10
3.572e-10
4.58e-10
5.58e-10
6.47e-10
7.201e-10
7.671e-10
7.932e-10
7.881e-10
7.69e-10
7.352e-10
6.902e-10
6.385e-10
5.843e-10
5.305e-10
4.794e-10
4.323e-10
3.899e-10
3.524e-10
3.197e-10
2.916e-10
2.677e-10
2.476e-10
2.309e-10
2.172e-10
2.061e-10
1.973e-10
1.906e-10
1.858e-10
1.828e-10
1.811e-10
1.814e-10
1.827e-10
1.854e-10
1.894e-10
1.947e-10
2.014e-10
2.094e-10
2.188e-10
2.297e-10
2.421e-10
2.561e-10
2.718e-10
2.893e-10
3.087e-10
3.302e-10
3.539e-10
3.798e-10
4.083e-10
4.395e-10
4.735e-10
5.105e-10
5.507e-10
5.944e-10
6.416e-10
6.927e-10
7.477e-10
8.07e-10
8.706e-10
9.389e-10
1.01e-09
1.12e-09
-2.112e-57
2.154e-56
-1.509e-55
8.606e-55
-3.904e-54
1.316e-53
-1.29e-53
-7.217e-53
7.241e-52
2.59e-51
-7.177e-50
9.91e-49
-1.065e-47
1.013e-46
-9.015e-46
7.699e-45
-6.38e-44
5.162e-43
-4.092e-42
3.184e-41
-2.437e-40
1.836e-39
-1.363e-38
9.965e-38
-7.166e-37
5.079e-36
-3.586e-35
2.514e-34
-1.745e-33
1.194e-32
-8.028e-32
5.269e-31
-3.349e-30
2.051e-29
-1.2e-28
6.644e-28
-3.408e-27
1.673e-26
-8.481e-26
2.062e-25
-6.822e-26
-4.755e-24
5.259e-23
-3.875e-22
4.376e-21
-2.841e-21
3.093e-19
3.661e-18
2.575e-17
1.526e-16
8.227e-16
4.077e-15
1.856e-14
7.751e-14
2.964e-13
1.036e-12
3.311e-12
9.658e-12
2.572e-11
6.253e-11
1.389e-10
2.825e-10
5.265e-10
9.019e-10
1.426e-09
2.091e-09
2.862e-09
3.673e-09
4.441e-09
5.108e-09
5.558e-09
5.827e-09
5.785e-09
5.613e-09
5.298e-09
4.877e-09
4.396e-09
3.898e-09
3.412e-09
2.96e-09
2.554e-09
2.197e-09
1.89e-09
1.629e-09
1.411e-09
1.229e-09
1.079e-09
9.548e-10
8.533e-10
7.702e-10
7.026e-10
6.478e-10
6.038e-10
5.687e-10
5.414e-10
5.206e-10
5.055e-10
4.957e-10
4.892e-10
4.894e-10
4.92e-10
4.98e-10
5.077e-10
5.209e-10
5.375e-10
5.576e-10
5.812e-10
6.084e-10
6.394e-10
6.743e-10
7.133e-10
7.566e-10
8.045e-10
8.572e-10
9.151e-10
9.784e-10
1.047e-09
1.122e-09
1.204e-09
1.292e-09
1.388e-09
1.491e-09
1.601e-09
1.72e-09
1.847e-09
1.984e-09
2.126e-09
2.346e-09
2.591e-56
-2.62e-55
1.921e-54
-1.22e-53
6.648e-53
-2.995e-52
9.973e-52
5.911e-52
-2.845e-50
3.291e-49
-2.945e-48
2.369e-47
-1.874e-46
1.477e-45
-1.164e-44
9.141e-44
-7.105e-43
5.447e-42
-4.112e-41
3.055e-40
-2.235e-39
1.614e-38
-1.152e-37
8.153e-37
-5.733e-36
4.024e-35
-2.838e-34
2.005e-33
-1.414e-32
9.904e-32
-6.947e-31
4.793e-30
-3.22e-29
2.123e-28
-1.37e-27
8.623e-27
-5.282e-26
3.14e-25
-1.806e-24
1.004e-23
-5.35e-23
2.806e-22
-1.366e-21
7.879e-21
2.181e-20
5.862e-19
6.983e-18
5.333e-17
3.494e-16
2.093e-15
1.153e-14
5.823e-14
2.692e-13
1.136e-12
4.367e-12
1.527e-11
4.851e-11
1.399e-10
3.662e-10
8.698e-10
1.877e-09
3.683e-09
6.587e-09
1.077e-08
1.617e-08
2.245e-08
2.901e-08
3.507e-08
4.001e-08
4.34e-08
4.391e-08
4.296e-08
4.064e-08
3.72e-08
3.31e-08
2.876e-08
2.451e-08
2.059e-08
1.711e-08
1.412e-08
1.161e-08
9.543e-09
7.859e-09
6.502e-09
5.414e-09
4.545e-09
3.852e-09
3.3e-09
2.858e-09
2.506e-09
2.224e-09
1.998e-09
1.818e-09
1.673e-09
1.559e-09
1.47e-09
1.4e-09
1.349e-09
1.312e-09
1.288e-09
1.274e-09
1.276e-09
1.284e-09
1.301e-09
1.327e-09
1.362e-09
1.405e-09
1.457e-09
1.517e-09
1.586e-09
1.665e-09
1.752e-09
1.849e-09
1.957e-09
2.075e-09
2.205e-09
2.346e-09
2.5e-09
2.667e-09
2.848e-09
3.043e-09
3.252e-09
3.478e-09
3.719e-09
3.978e-09
4.254e-09
4.539e-09
4.985e-09
-2.562e-55
2.509e-54
-1.902e-53
1.336e-52
-8.651e-52
5.176e-51
-2.865e-50
1.481e-49
-7.357e-49
3.73e-48
-2.274e-47
1.48e-46
-1.238e-45
1.073e-44
-9.147e-44
7.526e-43
-5.95e-42
4.53e-41
-3.331e-40
2.372e-39
-1.638e-38
1.097e-37
-7.132e-37
4.489e-36
-2.731e-35
1.627e-34
-9.659e-34
5.737e-33
-3.428e-32
2.065e-31
-1.303e-30
8.206e-30
-4.945e-29
2.998e-28
-1.824e-27
1.111e-26
-6.736e-26
4.05e-25
-2.398e-24
1.401e-23
-7.648e-23
5.174e-22
-2.218e-21
8.274e-20
1.291e-18
1.177e-17
9.246e-17
6.681e-16
4.458e-15
2.737e-14
1.541e-13
7.922e-13
3.71e-12
1.578e-11
6.082e-11
2.121e-10
6.68e-10
1.899e-09
4.866e-09
1.124e-08
2.346e-08
4.424e-08
7.561e-08
1.174e-07
1.667e-07
2.184e-07
2.658e-07
3.024e-07
3.271e-07
3.25e-07
3.129e-07
2.896e-07
2.584e-07
2.233e-07
1.879e-07
1.547e-07
1.252e-07
1e-07
7.926e-08
6.25e-08
4.921e-08
3.881e-08
3.074e-08
2.451e-08
1.971e-08
1.601e-08
1.315e-08
1.094e-08
9.225e-09
7.882e-09
6.829e-09
5.998e-09
5.341e-09
4.82e-09
4.408e-09
4.082e-09
3.826e-09
3.628e-09
3.478e-09
3.368e-09
3.293e-09
3.248e-09
3.234e-09
3.245e-09
3.276e-09
3.329e-09
3.403e-09
3.498e-09
3.613e-09
3.748e-09
3.903e-09
4.08e-09
4.278e-09
4.498e-09
4.74e-09
5.007e-09
5.298e-09
5.616e-09
5.96e-09
6.332e-09
6.733e-09
7.165e-09
7.628e-09
8.123e-09
8.652e-09
9.216e-09
9.795e-09
1.071e-08
1.382e-54
-1.314e-53
1.013e-52
-7.587e-52
5.545e-51
-3.804e-50
2.4e-49
-1.35e-48
6.315e-48
-1.977e-47
-7.877e-47
1.535e-45
-1.764e-44
1.652e-43
-1.385e-42
1.087e-41
-8.148e-41
5.902e-40
-4.159e-39
2.861e-38
-1.925e-37
1.266e-36
-8.127e-36
5.066e-35
-3.066e-34
1.81e-33
-1.039e-32
5.761e-32
-3.046e-31
1.504e-30
-6.67e-30
2.368e-29
-3.34e-29
-4.59e-28
6.597e-27
-6.061e-26
4.692e-25
-3.28e-24
2.133e-23
-1.296e-22
7.834e-22
-2.873e-21
8.345e-20
1.461e-18
1.476e-17
1.293e-16
1.043e-15
7.768e-15
5.327e-14
3.349e-13
1.922e-12
1.003e-11
4.742e-11
2.026e-10
7.801e-10
2.702e-09
8.4e-09
2.341e-08
5.845e-08
1.308e-07
2.625e-07
4.733e-07
7.691e-07
1.129e-06
1.51e-06
1.861e-06
2.131e-06
2.296e-06
2.269e-06
2.16e-06
1.967e-06
1.721e-06
1.453e-06
1.19e-06
9.518e-07
7.463e-07
5.765e-07
4.407e-07
3.347e-07
2.536e-07
1.922e-07
1.462e-07
1.119e-07
8.644e-08
6.745e-08
5.327e-08
4.262e-08
3.459e-08
2.848e-08
2.381e-08
2.021e-08
1.741e-08
1.523e-08
1.351e-08
1.216e-08
1.11e-08
1.025e-08
9.595e-09
9.084e-09
8.694e-09
8.408e-09
8.208e-09
8.085e-09
8.026e-09
8.043e-09
8.106e-09
8.219e-09
8.382e-09
8.594e-09
8.853e-09
9.16e-09
9.513e-09
9.913e-09
1.036e-08
1.086e-08
1.141e-08
1.201e-08
1.267e-08
1.338e-08
1.415e-08
1.498e-08
1.587e-08
1.683e-08
1.785e-08
1.894e-08
2.01e-08
2.129e-08
2.316e-08
-1.748e-54
4.188e-54
-4.859e-53
8.894e-52
-1.232e-50
1.539e-49
-1.606e-48
1.478e-47
-1.245e-46
9.831e-46
-7.408e-45
5.389e-44
-3.821e-43
2.657e-42
-1.821e-41
1.236e-40
-8.329e-40
5.584e-39
-3.729e-38
2.483e-37
-1.65e-36
1.093e-35
-7.218e-35
4.748e-34
-3.106e-33
2.017e-32
-1.298e-31
8.282e-31
-5.227e-30
3.26e-29
-2.007e-28
1.218e-27
-7.275e-27
4.271e-26
-2.46e-25
1.389e-24
-7.664e-24
4.134e-23
-2.161e-22
1.119e-21
-5.008e-21
4.572e-20
1.272e-18
1.487e-17
1.455e-16
1.307e-15
1.086e-14
8.319e-14
5.845e-13
3.749e-12
2.185e-11
1.152e-10
5.474e-10
2.338e-09
8.943e-09
3.057e-08
9.322e-08
2.53e-07
6.111e-07
1.314e-06
2.522e-06
4.324e-06
6.646e-06
9.181e-06
1.153e-05
1.337e-05
1.451e-05
1.432e-05
1.356e-05
1.224e-05
1.057e-05
8.784e-06
7.065e-06
5.53e-06
4.233e-06
3.184e-06
2.364e-06
1.741e-06
1.276e-06
9.343e-07
6.86e-07
5.064e-07
3.769e-07
2.834e-07
2.157e-07
1.664e-07
1.303e-07
1.036e-07
8.37e-08
6.873e-08
5.736e-08
4.866e-08
4.193e-08
3.67e-08
3.26e-08
2.938e-08
2.684e-08
2.484e-08
2.328e-08
2.206e-08
2.114e-08
2.046e-08
1.998e-08
1.969e-08
1.954e-08
1.958e-08
1.972e-08
1.998e-08
2.035e-08
2.084e-08
2.143e-08
2.213e-08
2.294e-08
2.385e-08
2.487e-08
2.601e-08
2.725e-08
2.861e-08
3.009e-08
3.168e-08
3.341e-08
3.526e-08
3.724e-08
3.935e-08
4.16e-08
4.4e-08
4.643e-08
5.03e-08
-1.219e-52
1.192e-51
-9.333e-51
6.977e-50
-4.967e-49
3.383e-48
-2.217e-47
1.405e-46
-8.678e-46
5.253e-45
-3.137e-44
1.858e-43
-1.098e-42
6.5e-42
-3.875e-41
2.336e-40
-1.428e-39
8.892e-39
-5.644e-38
3.656e-37
-2.415e-36
1.625e-35
-1.111e-34
7.709e-34
-5.304e-33
3.615e-32
-2.44e-31
1.63e-30
-1.078e-29
7.045e-29
-4.548e-28
2.898e-27
-1.82e-26
1.126e-25
-6.851e-25
4.097e-24
-2.403e-23
1.388e-22
-7.665e-22
4.433e-21
-1.849e-20
5.966e-19
1.142e-17
1.298e-16
1.298e-15
1.2e-14
1.025e-13
8.037e-13
5.76e-12
3.751e-11
2.208e-10
1.17e-09
5.551e-09
2.351e-08
8.863e-08
2.964e-07
8.776e-07
2.296e-06
5.309e-06
1.088e-05
1.98e-05
3.203e-05
4.633e-05
5.998e-05
7.094e-05
7.848e-05
7.767e-05
7.373e-05
6.655e-05
5.731e-05
4.735e-05
3.776e-05
2.922e-05
2.205e-05
1.631e-05
1.187e-05
8.548e-06
6.111e-06
4.356e-06
3.106e-06
2.224e-06
1.604e-06
1.167e-06
8.599e-07
6.419e-07
4.863e-07
3.744e-07
2.93e-07
2.332e-07
1.889e-07
1.556e-07
1.304e-07
1.111e-07
9.622e-08
8.463e-08
7.554e-08
6.84e-08
6.277e-08
5.834e-08
5.487e-08
5.219e-08
5.015e-08
4.866e-08
4.763e-08
4.7e-08
4.673e-08
4.684e-08
4.72e-08
4.783e-08
4.871e-08
4.985e-08
5.123e-08
5.285e-08
5.47e-08
5.679e-08
5.912e-08
6.169e-08
6.45e-08
6.756e-08
7.088e-08
7.446e-08
7.83e-08
8.241e-08
8.679e-08
9.145e-08
9.641e-08
1.014e-07
1.094e-07
4.487e-52
-4.342e-51
3.407e-50
-2.578e-49
1.874e-48
-1.313e-47
8.895e-47
-5.86e-46
3.776e-45
-2.394e-44
1.502e-43
-9.369e-43
5.837e-42
-3.641e-41
2.279e-40
-1.432e-39
9.038e-39
-5.727e-38
3.643e-37
-2.327e-36
1.492e-35
-9.618e-35
6.231e-34
-4.071e-33
2.637e-32
-1.699e-31
1.089e-30
-6.934e-30
4.384e-29
-2.75e-28
1.71e-27
-1.053e-26
6.414e-26
-3.86e-25
2.294e-24
-1.343e-23
7.764e-23
-4.34e-22
2.645e-21
-1.102e-20
3.578e-19
7.43e-18
9.192e-17
1.013e-15
1.037e-14
9.833e-14
8.59e-13
6.868e-12
4.995e-11
3.283e-10
1.939e-09
1.023e-08
4.805e-08
1.998e-07
7.335e-07
2.369e-06
6.712e-06
1.668e-05
3.646e-05
7.028e-05
0.0001199
0.0001815
0.0002459
0.0002978
0.000342
0.0003418
0.0003286
0.0002999
0.0002605
0.0002166
0.0001735
0.0001345
0.0001014
7.467e-05
5.396e-05
3.843e-05
2.709e-05
1.897e-05
1.326e-05
9.282e-06
6.529e-06
4.63e-06
3.317e-06
2.407e-06
1.772e-06
1.326e-06
1.008e-06
7.804e-07
6.148e-07
4.931e-07
4.026e-07
3.346e-07
2.828e-07
2.431e-07
2.123e-07
1.882e-07
1.693e-07
1.544e-07
1.427e-07
1.334e-07
1.262e-07
1.206e-07
1.165e-07
1.134e-07
1.114e-07
1.102e-07
1.099e-07
1.103e-07
1.113e-07
1.129e-07
1.15e-07
1.177e-07
1.209e-07
1.247e-07
1.289e-07
1.337e-07
1.39e-07
1.448e-07
1.512e-07
1.581e-07
1.655e-07
1.735e-07
1.82e-07
1.911e-07
2.007e-07
2.11e-07
2.213e-07
2.378e-07
-1.243e-51
1.212e-50
-9.58e-50
7.318e-49
-5.38e-48
3.81e-47
-2.601e-46
1.716e-45
-1.095e-44
6.786e-44
-4.092e-43
2.411e-42
-1.395e-41
7.969e-41
-4.53e-40
2.587e-39
-1.499e-38
8.912e-38
-5.485e-37
3.509e-36
-2.33e-35
1.596e-34
-1.118e-33
7.945e-33
-5.542e-32
3.793e-31
-2.554e-30
1.693e-29
-1.107e-28
7.145e-28
-4.552e-27
2.864e-26
-1.78e-25
1.092e-24
-6.62e-24
3.963e-23
-2.327e-22
1.417e-21
-5.216e-21
1.663e-19
3.785e-18
5.105e-17
6.174e-16
6.966e-15
7.308e-14
7.084e-13
6.302e-12
5.108e-11
3.745e-10
2.466e-09
1.449e-08
7.546e-08
3.464e-07
1.395e-06
4.91e-06
1.505e-05
4.009e-05
9.308e-05
0.0001893
0.0003372
0.0005316
0.0007481
0.0009462
0.001095
0.001165
0.001137
0.001058
0.0009381
0.0007966
0.0006508
0.0005136
0.0003932
0.0002931
0.0002136
0.0001528
0.0001077
7.506e-05
5.201e-05
3.595e-05
2.49e-05
1.733e-05
1.217e-05
8.638e-06
6.213e-06
4.537e-06
3.368e-06
2.544e-06
1.956e-06
1.532e-06
1.222e-06
9.923e-07
8.205e-07
6.903e-07
5.907e-07
5.137e-07
4.536e-07
4.065e-07
3.693e-07
3.4e-07
3.168e-07
2.985e-07
2.843e-07
2.735e-07
2.654e-07
2.598e-07
2.562e-07
2.541e-07
2.545e-07
2.559e-07
2.587e-07
2.627e-07
2.679e-07
2.744e-07
2.819e-07
2.907e-07
3.005e-07
3.114e-07
3.234e-07
3.365e-07
3.508e-07
3.662e-07
3.827e-07
4.003e-07
4.191e-07
4.391e-07
4.603e-07
4.815e-07
5.157e-07
4.034e-51
-3.665e-50
2.8e-49
-2.15e-48
1.643e-47
-1.245e-46
9.311e-46
-6.852e-45
4.952e-44
-3.512e-43
2.444e-42
-1.67e-41
1.122e-40
-7.426e-40
4.847e-39
-3.126e-38
1.995e-37
-1.261e-36
7.912e-36
-4.93e-35
3.052e-34
-1.88e-33
1.151e-32
-7.014e-32
4.245e-31
-2.553e-30
1.526e-29
-9.074e-29
5.364e-28
-3.153e-27
1.843e-26
-1.071e-25
6.19e-25
-3.558e-24
2.034e-23
-1.152e-22
6.68e-22
-2.966e-21
4.602e-20
1.477e-18
2.223e-17
2.944e-16
3.641e-15
4.203e-14
4.5e-13
4.437e-12
3.998e-11
3.265e-10
2.397e-09
1.569e-08
9.081e-08
4.613e-07
2.042e-06
7.839e-06
2.597e-05
7.406e-05
0.0001821
0.0003886
0.0007226
0.001167
0.001681
0.002209
0.002619
0.002906
0.002895
0.002781
0.002548
0.002239
0.001897
0.001552
0.001229
0.000945
0.0007074
0.0005172
0.0003707
0.0002614
0.0001822
0.000126
8.692e-05
6.002e-05
4.166e-05
2.915e-05
2.063e-05
1.479e-05
1.077e-05
7.977e-06
6.011e-06
4.613e-06
3.606e-06
2.871e-06
2.329e-06
1.923e-06
1.616e-06
1.38e-06
1.199e-06
1.057e-06
9.458e-07
8.579e-07
7.884e-07
7.333e-07
6.898e-07
6.557e-07
6.294e-07
6.096e-07
5.952e-07
5.859e-07
5.796e-07
5.79e-07
5.809e-07
5.856e-07
5.931e-07
6.034e-07
6.163e-07
6.316e-07
6.494e-07
6.695e-07
6.92e-07
7.168e-07
7.439e-07
7.734e-07
8.052e-07
8.394e-07
8.759e-07
9.148e-07
9.559e-07
9.997e-07
1.043e-06
1.114e-06
1.098e-50
-1.074e-49
8.603e-49
-6.716e-48
5.085e-47
-3.734e-46
2.663e-45
-1.847e-44
1.248e-43
-8.243e-43
5.336e-42
-3.396e-41
2.133e-40
-1.326e-39
8.194e-39
-5.046e-38
3.107e-37
-1.918e-36
1.189e-35
-7.415e-35
4.656e-34
-2.944e-33
1.875e-32
-1.199e-31
7.629e-31
-4.82e-30
3.026e-29
-1.889e-28
1.172e-27
-7.241e-27
4.451e-26
-2.724e-25
1.66e-24
-1.008e-23
6.1e-23
-3.66e-22
2.299e-21
-8.721e-21
2.922e-19
7.37e-18
1.102e-16
1.487e-15
1.877e-14
2.208e-13
2.403e-12
2.398e-11
2.178e-10
1.782e-09
1.301e-08
8.391e-08
4.737e-07
2.318e-06
9.757e-06
3.508e-05
0.0001074
0.0002797
0.0006253
0.001211
0.002023
0.002931
0.00386
0.0049
0.005452
0.005534
0.00542
0.005158
0.004741
0.004209
0.003614
0.003004
0.00242
0.001893
0.001441
0.00107
0.0007765
0.0005535
0.0003892
0.0002711
0.0001881
0.0001304
9.087e-05
6.379e-05
4.527e-05
3.255e-05
2.376e-05
1.764e-05
1.332e-05
1.025e-05
8.03e-06
6.408e-06
5.207e-06
4.308e-06
3.626e-06
3.103e-06
2.698e-06
2.381e-06
2.132e-06
1.935e-06
1.779e-06
1.655e-06
1.556e-06
1.479e-06
1.419e-06
1.373e-06
1.339e-06
1.317e-06
1.302e-06
1.297e-06
1.3e-06
1.308e-06
1.323e-06
1.343e-06
1.369e-06
1.4e-06
1.436e-06
1.478e-06
1.524e-06
1.575e-06
1.631e-06
1.692e-06
1.758e-06
1.829e-06
1.904e-06
1.984e-06
2.069e-06
2.159e-06
2.248e-06
2.393e-06
-2.516e-50
2.323e-49
-1.792e-48
1.38e-47
-1.051e-46
7.901e-46
-5.85e-45
4.259e-44
-3.046e-43
2.139e-42
-1.475e-41
1e-40
-6.669e-40
4.38e-39
-2.836e-38
1.813e-37
-1.146e-36
7.169e-36
-4.446e-35
2.736e-34
-1.672e-33
1.016e-32
-6.14e-32
3.691e-31
-2.205e-30
1.312e-29
-7.773e-29
4.592e-28
-2.706e-27
1.591e-26
-9.35e-26
5.491e-25
-3.225e-24
1.897e-23
-1.114e-22
6.759e-22
-3.056e-21
5.99e-20
2.002e-18
3.275e-17
4.785e-16
6.563e-15
8.431e-14
1.007e-12
1.109e-11
1.116e-10
1.016e-09
8.279e-09
5.973e-08
3.769e-07
2.055e-06
9.581e-06
3.778e-05
0.0001252
0.0003479
0.0008166
0.001646
0.002874
0.004258
0.005709
0.006862
0.009302
0.01036
0.01038
0.01036
0.01014
0.008595
0.00681
0.005784
0.004918
0.004052
0.003247
0.002532
0.001922
0.001424
0.001033
0.0007383
0.0005216
0.0003663
0.0002569
0.0001807
0.000128
9.159e-05
6.638e-05
4.882e-05
3.65e-05
2.776e-05
2.149e-05
1.694e-05
1.36e-05
1.111e-05
9.236e-06
7.81e-06
6.712e-06
5.858e-06
5.188e-06
4.66e-06
4.241e-06
3.907e-06
3.641e-06
3.429e-06
3.262e-06
3.132e-06
3.032e-06
2.959e-06
2.907e-06
2.876e-06
2.861e-06
2.866e-06
2.882e-06
2.911e-06
2.952e-06
3.005e-06
3.069e-06
3.144e-06
3.23e-06
3.325e-06
3.431e-06
3.547e-06
3.672e-06
3.808e-06
3.953e-06
4.108e-06
4.272e-06
4.446e-06
4.63e-06
4.813e-06
5.107e-06
-4.31e-50
4.208e-49
-3.385e-48
2.672e-47
-2.056e-46
1.542e-45
-1.127e-44
8.036e-44
-5.596e-43
3.813e-42
-2.547e-41
1.672e-40
-1.081e-39
6.905e-39
-4.366e-38
2.739e-37
-1.708e-36
1.062e-35
-6.586e-35
4.084e-34
-2.534e-33
1.575e-32
-9.823e-32
6.127e-31
-3.808e-30
2.356e-29
-1.452e-28
8.926e-28
-5.479e-27
3.36e-26
-2.061e-25
1.266e-24
-7.794e-24
4.815e-23
-2.971e-22
1.941e-21
-7.365e-21
2.734e-19
7.511e-18
1.223e-16
1.814e-15
2.529e-14
3.294e-13
3.981e-12
4.422e-11
4.469e-10
4.064e-09
3.285e-08
2.329e-07
1.428e-06
7.46e-06
3.277e-05
0.0001196
0.0003597
0.0008965
0.001885
0.003435
0.005422
0.007144
0.01018
0.01039
0.01034
0.01098
0.01103
0.0109
0.01212
0.0105
0.01044
0.01009
0.007669
0.00611
0.004984
0.003973
0.003083
0.002333
0.001729
0.001259
0.0009064
0.0006475
0.0004614
0.0003295
0.0002367
0.0001716
0.000126
9.376e-05
7.09e-05
5.451e-05
4.263e-05
3.394e-05
2.749e-05
2.265e-05
1.899e-05
1.617e-05
1.399e-05
1.229e-05
1.095e-05
9.88e-06
9.031e-06
8.353e-06
7.811e-06
7.378e-06
7.036e-06
6.769e-06
6.565e-06
6.414e-06
6.31e-06
6.245e-06
6.215e-06
6.226e-06
6.26e-06
6.321e-06
6.407e-06
6.518e-06
6.651e-06
6.807e-06
6.984e-06
7.182e-06
7.4e-06
7.639e-06
7.897e-06
8.175e-06
8.473e-06
8.789e-06
9.124e-06
9.477e-06
9.85e-06
1.022e-05
1.081e-05
7.491e-50
-6.9e-49
5.316e-48
-4.091e-47
3.118e-46
-2.346e-45
1.74e-44
-1.27e-43
9.111e-43
-6.421e-42
4.446e-41
-3.025e-40
2.023e-39
-1.331e-38
8.629e-38
-5.514e-37
3.478e-36
-2.168e-35
1.337e-34
-8.169e-34
4.95e-33
-2.979e-32
1.782e-31
-1.059e-30
6.261e-30
-3.692e-29
2.174e-28
-1.28e-27
7.538e-27
-4.449e-26
2.635e-25
-1.568e-24
9.382e-24
-5.641e-23
3.518e-22
-1.607e-21
4.089e-20
1.428e-18
2.522e-17
4.014e-16
6.027e-15
8.509e-14
1.121e-12
1.367e-11
1.528e-10
1.546e-09
1.4e-08
1.118e-07
7.759e-07
4.597e-06
2.286e-05
9.386e-05
0.0003136
0.0008478
0.001881
0.003567
0.006011
0.008774
0.009931
0.01175
0.01032
0.01024
0.009984
0.009978
0.00998
0.01001
0.01019
0.01057
0.01101
0.01003
0.009793
0.007306
0.005787
0.004544
0.003497
0.00264
0.001962
0.00144
0.001049
0.0007625
0.0005547
0.0004058
0.0002994
0.0002234
0.000169
0.0001298
0.0001012
8.029e-05
6.475e-05
5.31e-05
4.426e-05
3.749e-05
3.226e-05
2.817e-05
2.494e-05
2.239e-05
2.035e-05
1.872e-05
1.741e-05
1.636e-05
1.552e-05
1.486e-05
1.434e-05
1.395e-05
1.366e-05
1.346e-05
1.334e-05
1.33e-05