# Region type : patch outlet
# Faces  :    40
# Area   :    2.000000e-01
# Time        	sum(phi)
0             
4.98e+06      	7.814392e-08
1.002e+07     	7.649107e-08
1.5e+07       	7.482598e-08
1.998e+07     	7.313223e-08
2.502e+07     	7.139163e-08
3e+07         	6.964879e-08
3.498e+07     	6.788669e-08
4.002e+07     	6.608689e-08
4.5e+07       	6.429560e-08
4.998e+07     	6.249593e-08
5.502e+07     	6.066887e-08
6e+07         	5.885661e-08
6.498e+07     	5.704616e-08
7.002e+07     	5.521325e-08
7.5e+07       	5.341069e-08
7.998e+07     	5.161305e-08
8.502e+07     	4.980796e-08
9e+07         	4.803473e-08
9.498e+07     	4.627943e-08
1.0002e+08    	4.452152e-08
1.05e+08      	4.280386e-08
1.0998e+08    	4.110961e-08
1.1502e+08    	3.942342e-08
1.2e+08       	3.778648e-08
1.2498e+08    	3.618140e-08
1.3002e+08    	3.459193e-08
1.35e+08      	3.305912e-08
1.3998e+08    	3.156810e-08
1.4502e+08    	3.010294e-08
1.5e+08       	2.870214e-08
1.5498e+08    	2.734936e-08
1.6002e+08    	2.603094e-08
1.65e+08      	2.477938e-08
1.6998e+08    	2.357971e-08
1.7502e+08    	2.241837e-08
1.8e+08       	2.132329e-08
1.8498e+08    	2.028136e-08
1.9002e+08    	1.928354e-08
1.95e+08      	1.834842e-08
1.9998e+08    	1.746076e-08
2.0502e+08    	1.660979e-08
2.1e+08       	1.581408e-08
2.1498e+08    	1.506173e-08
2.2002e+08    	1.434221e-08
2.25e+08      	1.367235e-08
2.2998e+08    	1.304150e-08
2.3502e+08    	1.243977e-08
2.4e+08       	1.187952e-08
2.4498e+08    	1.135224e-08
2.5002e+08    	1.085135e-08
2.55e+08      	1.038694e-08
2.5998e+08    	9.951789e-09
2.6502e+08    	9.540112e-09
2.7e+08       	9.160370e-09
2.7498e+08    	8.806617e-09
2.8002e+08    	8.473996e-09
2.85e+08      	8.168983e-09
2.8998e+08    	7.886757e-09
2.9502e+08    	7.622478e-09
3e+08         	7.381411e-09
3.0498e+08    	7.158564e-09
3.1002e+08    	6.950939e-09
3.15e+08      	6.761543e-09
3.1998e+08    	6.586571e-09
3.2502e+08    	6.422691e-09
3.3e+08       	6.272342e-09
3.3498e+08    	6.132194e-09
3.4002e+08    	5.999918e-09
3.45e+08      	5.877022e-09
3.4998e+08    	5.761179e-09
3.5502e+08    	5.649885e-09
3.6e+08       	5.544606e-09
3.6498e+08    	5.444115e-09
3.7002e+08    	5.345988e-09
3.75e+08      	5.252439e-09
3.7998e+08    	5.162581e-09
3.8502e+08    	5.074868e-09
3.9e+08       	4.991266e-09
3.9498e+08    	4.910448e-09
4.0002e+08    	4.832408e-09
4.05e+08      	4.758301e-09
4.0998e+08    	4.687227e-09
4.1502e+08    	4.618318e-09
4.2e+08       	4.552916e-09
4.2498e+08    	4.491670e-09
4.3002e+08    	4.432809e-09
4.35e+08      	4.377368e-09
4.3998e+08    	4.324485e-09
4.4502e+08    	4.273616e-09
4.5e+08       	4.225521e-09
4.5498e+08    	4.179856e-09
4.6002e+08    	4.135604e-09
4.65e+08      	4.093431e-09
4.6998e+08    	4.052731e-09
4.7502e+08    	4.013553e-09
4.8e+08       	3.975907e-09
4.8498e+08    	3.939165e-09
4.9002e+08    	3.902984e-09
4.95e+08      	3.868100e-09
4.9998e+08    	3.833759e-09
5.0502e+08    	3.799402e-09
5.1e+08       	3.765776e-09
5.1498e+08    	3.732243e-09
5.2002e+08    	3.697876e-09
5.25e+08      	3.663657e-09
5.2998e+08    	3.628968e-09
5.3502e+08    	3.593822e-09
5.4e+08       	3.558594e-09
5.4498e+08    	3.523240e-09
5.5002e+08    	3.487517e-09
5.55e+08      	3.451916e-09
5.5998e+08    	3.416884e-09
5.6502e+08    	3.381606e-09
5.7e+08       	3.347354e-09
5.7498e+08    	3.313533e-09
5.8002e+08    	3.279950e-09
5.85e+08      	3.247340e-09
5.8998e+08    	3.215356e-09
5.9502e+08    	3.183645e-09
6e+08         	3.153364e-09
6.0498e+08    	3.123453e-09
6.1002e+08    	3.093970e-09
6.15e+08      	3.065126e-09
6.1998e+08    	3.036437e-09
6.2502e+08    	3.007664e-09
6.3e+08       	2.979324e-09
6.3498e+08    	2.950706e-09
6.4002e+08    	2.921823e-09
6.45e+08      	2.892986e-09
6.4998e+08    	2.863941e-09
6.5502e+08    	2.834287e-09
6.6e+08       	2.805086e-09
6.6498e+08    	2.775659e-09
6.7002e+08    	2.746205e-09
6.75e+08      	2.717096e-09
6.7998e+08    	2.688379e-09
6.8502e+08    	2.659853e-09
6.9e+08       	2.632285e-09
6.9498e+08    	2.605625e-09
7.0002e+08    	2.579452e-09
7.05e+08      	2.554522e-09
7.0998e+08    	2.530900e-09
7.1502e+08    	2.507820e-09
7.2e+08       	2.486357e-09
7.2498e+08    	2.466099e-09
7.3002e+08    	2.446537e-09
7.35e+08      	2.428135e-09
7.3998e+08    	2.410782e-09
7.4502e+08    	2.394146e-09
7.5e+08       	2.378558e-09
7.5498e+08    	2.363738e-09
7.6002e+08    	2.349425e-09
7.65e+08      	2.335941e-09
7.6998e+08    	2.323055e-09
7.7502e+08    	2.310249e-09
7.8e+08       	2.298143e-09
7.8498e+08    	2.286188e-09
7.9002e+08    	2.274636e-09
7.95e+08      	2.263462e-09
7.9998e+08    	2.252465e-09
8.0502e+08    	2.241750e-09
8.1e+08       	2.231158e-09
8.1498e+08    	2.220727e-09
8.2002e+08    	2.210236e-09
8.25e+08      	2.199900e-09
8.2998e+08    	2.189504e-09
8.3502e+08    	2.179221e-09
8.4e+08       	2.169262e-09
8.4498e+08    	2.159197e-09
8.5002e+08    	2.148972e-09
8.55e+08      	2.138989e-09
8.5998e+08    	2.128829e-09
8.6502e+08    	2.118549e-09
8.7e+08       	2.108261e-09
8.7498e+08    	2.098031e-09
8.8002e+08    	2.087760e-09
8.85e+08      	2.077576e-09
8.8998e+08    	2.067208e-09
8.9502e+08    	2.056765e-09
9e+08         	2.046353e-09
9.0498e+08    	2.035977e-09
9.1002e+08    	2.025290e-09
9.15e+08      	2.014686e-09
9.1998e+08    	2.004025e-09
9.2502e+08    	1.993202e-09
9.3e+08       	1.982324e-09
9.3498e+08    	1.971443e-09
9.4002e+08    	1.960212e-09
9.45e+08      	1.948969e-09
9.4998e+08    	1.937382e-09
9.5502e+08    	1.925745e-09
9.6e+08       	1.913900e-09
9.6498e+08    	1.901775e-09
9.7002e+08    	1.889259e-09
9.75e+08      	1.876480e-09
9.7998e+08    	1.863740e-09
9.8502e+08    	1.850565e-09
9.9e+08       	1.837165e-09
9.9498e+08    	1.823453e-09
1.00002e+09   	1.809544e-09
1.005e+09     	1.795467e-09
1.00998e+09   	1.781222e-09
1.01502e+09   	1.766770e-09
1.02e+09      	1.752509e-09
1.02498e+09   	1.737986e-09
1.03002e+09   	1.723320e-09
1.035e+09     	1.708579e-09
1.03998e+09   	1.694312e-09
1.04502e+09   	1.679677e-09
1.05e+09      	1.665089e-09
1.05498e+09   	1.650910e-09
1.06002e+09   	1.636607e-09
1.065e+09     	1.622571e-09
1.06998e+09   	1.608509e-09
1.07502e+09   	1.594707e-09
1.08e+09      	1.581229e-09
1.08498e+09   	1.567793e-09
1.09002e+09   	1.554439e-09
1.095e+09     	1.541371e-09
1.09998e+09   	1.528587e-09
1.10502e+09   	1.515708e-09
1.11e+09      	1.503437e-09
1.11498e+09   	1.491297e-09
1.12002e+09   	1.479228e-09
1.125e+09     	1.467253e-09
1.12998e+09   	1.455561e-09
1.13502e+09   	1.444123e-09
1.14e+09      	1.432984e-09
1.14498e+09   	1.421917e-09
1.15002e+09   	1.410994e-09
1.155e+09     	1.400371e-09
1.15998e+09   	1.389681e-09
1.16502e+09   	1.379044e-09
1.17e+09      	1.368784e-09
1.17498e+09   	1.358559e-09
1.18002e+09   	1.348305e-09
1.185e+09     	1.338220e-09
1.18998e+09   	1.328077e-09
1.19502e+09   	1.317986e-09
1.2e+09       	1.307817e-09
1.20498e+09   	1.297570e-09
1.21002e+09   	1.287097e-09
1.215e+09     	1.277007e-09
1.21998e+09   	1.266691e-09
1.22502e+09   	1.255931e-09
1.23e+09      	1.245400e-09
1.23498e+09   	1.234685e-09
1.24002e+09   	1.223796e-09
1.245e+09     	1.212949e-09
1.24998e+09   	1.201987e-09
1.25502e+09   	1.190932e-09
1.26e+09      	1.180011e-09
1.26498e+09   	1.169270e-09
1.27002e+09   	1.158448e-09
1.275e+09     	1.147779e-09
1.27998e+09   	1.137240e-09
1.28502e+09   	1.126814e-09
1.29e+09      	1.116852e-09
1.29498e+09   	1.106925e-09
1.30002e+09   	1.097113e-09
1.305e+09     	1.087538e-09
1.30998e+09   	1.078401e-09
1.31502e+09   	1.069320e-09
1.32e+09      	1.060512e-09
1.32498e+09   	1.052035e-09
1.33002e+09   	1.043681e-09
1.335e+09     	1.035622e-09
1.33998e+09   	1.027869e-09
1.34502e+09   	1.020178e-09
1.35e+09      	1.012854e-09
1.35498e+09   	1.005601e-09
1.36002e+09   	9.987084e-10
1.365e+09     	9.918057e-10
1.36998e+09   	9.852233e-10
1.37502e+09   	9.785209e-10
1.38e+09      	9.720886e-10
1.38498e+09   	9.656979e-10
1.39002e+09   	9.593269e-10
1.395e+09     	9.531553e-10
1.39998e+09   	9.470094e-10
1.40502e+09   	9.408512e-10
1.41e+09      	9.347804e-10
1.41498e+09   	9.287955e-10
1.42002e+09   	9.227370e-10
1.425e+09     	9.166979e-10
1.42998e+09   	9.107426e-10
1.43502e+09   	9.047829e-10
1.44e+09      	8.987932e-10
1.44498e+09   	8.927123e-10
1.45002e+09   	8.866630e-10
1.455e+09     	8.806033e-10
1.45998e+09   	8.745076e-10
1.46502e+09   	8.683108e-10
1.47e+09      	8.621099e-10
1.47498e+09   	8.558431e-10
1.48002e+09   	8.495158e-10
1.485e+09     	8.432652e-10
1.48998e+09   	8.369186e-10
1.49502e+09   	8.305032e-10
1.5e+09       	8.240346e-10
1.50498e+09   	8.175053e-10
1.51002e+09   	8.110046e-10
1.515e+09     	8.044312e-10
1.51998e+09   	7.977959e-10
1.52502e+09   	7.910910e-10
1.53e+09      	7.845141e-10
1.53498e+09   	7.778109e-10
1.54002e+09   	7.711942e-10
1.545e+09     	7.645589e-10
1.54998e+09   	7.579220e-10
1.55502e+09   	7.512390e-10
1.56e+09      	7.445520e-10
1.56498e+09   	7.378189e-10
1.57002e+09   	7.311239e-10
1.575e+09     	7.244243e-10
1.57998e+09   	7.177123e-10
1.58502e+09   	7.109374e-10
1.59e+09      	7.043337e-10
1.59498e+09   	6.977338e-10
1.60002e+09   	6.910694e-10
1.605e+09     	6.844328e-10
1.60998e+09   	6.778636e-10
1.61502e+09   	6.713961e-10
1.62e+09      	6.649399e-10
1.62498e+09   	6.585428e-10
1.63002e+09   	6.521103e-10
1.635e+09     	6.457870e-10
1.63998e+09   	6.397090e-10
1.64502e+09   	6.335879e-10
1.65e+09      	6.275634e-10
1.65498e+09   	6.216902e-10
1.66002e+09   	6.159109e-10
1.665e+09     	6.102606e-10
1.66998e+09   	6.048047e-10
1.67502e+09   	5.993852e-10
1.68e+09      	5.942101e-10
1.68498e+09   	5.891323e-10
1.69002e+09   	5.841268e-10
1.695e+09     	5.792711e-10
1.69998e+09   	5.747290e-10
1.70502e+09   	5.700855e-10
1.71e+09      	5.657254e-10
1.71498e+09   	5.615698e-10
1.72002e+09   	5.575778e-10
1.725e+09     	5.537860e-10
1.72998e+09   	5.501367e-10
1.73502e+09   	5.464809e-10
1.74e+09      	5.431034e-10
1.74498e+09   	5.398092e-10
1.75002e+09   	5.366532e-10
1.755e+09     	5.336465e-10
1.75998e+09   	5.307372e-10
1.76502e+09   	5.278794e-10
1.77e+09      	5.251736e-10
1.77498e+09   	5.226895e-10
1.78002e+09   	5.200541e-10
1.785e+09     	5.177849e-10
1.78998e+09   	5.155680e-10
1.79502e+09   	5.134527e-10
1.8e+09       	5.114077e-10
1.80498e+09   	5.093540e-10
1.81002e+09   	5.074618e-10
1.815e+09     	5.055857e-10
1.81998e+09   	5.038187e-10
1.82502e+09   	5.020929e-10
1.83e+09      	5.004821e-10
1.83498e+09   	4.988516e-10
1.84002e+09   	4.973297e-10
1.845e+09     	4.958367e-10
1.84998e+09   	4.943752e-10
1.85502e+09   	4.928023e-10
1.86e+09      	4.916195e-10
1.86498e+09   	4.902472e-10
1.87002e+09   	4.888363e-10
1.875e+09     	4.876202e-10
1.87998e+09   	4.864246e-10
1.88502e+09   	4.852161e-10
1.89e+09      	4.838466e-10
1.89498e+09   	4.827992e-10
1.90002e+09   	4.817003e-10
1.905e+09     	4.804792e-10
1.90998e+09   	4.794473e-10
1.91502e+09   	4.783924e-10
1.92e+09      	4.773306e-10
1.92498e+09   	4.761939e-10
1.93002e+09   	4.750879e-10
1.935e+09     	4.740439e-10
1.93998e+09   	4.730890e-10
1.94502e+09   	4.720592e-10
1.95e+09      	4.710330e-10
1.95498e+09   	4.701556e-10
1.96002e+09   	4.691829e-10
1.965e+09     	4.682091e-10
1.96998e+09   	4.671628e-10
1.97502e+09   	4.661909e-10
1.98e+09      	4.653242e-10
1.98498e+09   	4.643895e-10
1.99002e+09   	4.634780e-10
1.995e+09     	4.625379e-10
1.99998e+09   	4.614557e-10
2.00502e+09   	4.605932e-10
2.01e+09      	4.597143e-10
2.01498e+09   	4.588005e-10
2.02002e+09   	4.579455e-10
2.025e+09     	4.570556e-10
2.02998e+09   	4.561804e-10
2.03502e+09   	4.551914e-10
2.04e+09      	4.542837e-10
2.04498e+09   	4.533772e-10
2.05002e+09   	4.523699e-10
2.055e+09     	4.515876e-10
2.05998e+09   	4.507355e-10
2.06502e+09   	4.497535e-10
2.07e+09      	4.487545e-10
2.07498e+09   	4.477368e-10
2.08002e+09   	4.468578e-10
2.085e+09     	4.459169e-10
2.08998e+09   	4.449557e-10
2.09502e+09   	4.440329e-10
2.1e+09       	4.431008e-10
2.10498e+09   	4.421226e-10
2.11002e+09   	4.411761e-10
2.115e+09     	4.401761e-10
2.11998e+09   	4.391783e-10
2.12502e+09   	4.381960e-10
2.13e+09      	4.371380e-10
2.13498e+09   	4.361096e-10
2.14002e+09   	4.350967e-10
2.145e+09     	4.340502e-10
2.14998e+09   	4.330503e-10
2.15502e+09   	4.319956e-10
2.16e+09      	4.310132e-10
2.16498e+09   	4.299784e-10
2.17002e+09   	4.288827e-10
2.175e+09     	4.278987e-10
2.17998e+09   	4.268565e-10
2.18502e+09   	4.258855e-10
2.19e+09      	4.248298e-10
2.19498e+09   	4.239151e-10
2.20002e+09   	4.228831e-10
2.205e+09     	4.219310e-10
2.20998e+09   	4.209904e-10
2.21502e+09   	4.199887e-10
2.22e+09      	4.190581e-10
2.22498e+09   	4.181036e-10
2.23002e+09   	4.171308e-10
2.235e+09     	4.161621e-10
2.23998e+09   	4.151075e-10
2.24502e+09   	4.141673e-10
2.25e+09      	4.131965e-10
2.25498e+09   	4.122652e-10
2.26002e+09   	4.113368e-10
2.265e+09     	4.103955e-10
2.26998e+09   	4.094339e-10
2.27502e+09   	4.084905e-10
2.28e+09      	4.075321e-10
2.28498e+09   	4.065090e-10
2.29002e+09   	4.055228e-10
2.295e+09     	4.045369e-10
2.29998e+09   	4.035699e-10
2.30502e+09   	4.025645e-10
2.31e+09      	4.014670e-10
2.31498e+09   	4.004538e-10
2.32002e+09   	3.992979e-10
2.325e+09     	3.982598e-10
2.32998e+09   	3.971552e-10
2.33502e+09   	3.959774e-10
2.34e+09      	3.948155e-10
2.34498e+09   	3.936365e-10
2.35002e+09   	3.923829e-10
2.355e+09     	3.911092e-10
2.35998e+09   	3.898309e-10
2.36502e+09   	3.884795e-10
2.37e+09      	3.871153e-10
2.37498e+09   	3.856687e-10
2.38002e+09   	3.841891e-10
2.385e+09     	3.827249e-10
2.38998e+09   	3.811814e-10
2.39502e+09   	3.795430e-10
2.4e+09       	3.779595e-10
2.40498e+09   	3.762860e-10
2.41002e+09   	3.745440e-10
2.415e+09     	3.727988e-10
2.41998e+09   	3.710013e-10
2.42502e+09   	3.691395e-10
2.43e+09      	3.672635e-10
2.43498e+09   	3.653449e-10
2.44002e+09   	3.633542e-10
2.445e+09     	3.613774e-10
2.44998e+09   	3.593460e-10
2.45502e+09   	3.572543e-10
2.46e+09      	3.552063e-10
2.46498e+09   	3.531005e-10
2.47002e+09   	3.509440e-10
2.475e+09     	3.488199e-10
2.47998e+09   	3.466746e-10
2.48502e+09   	3.444701e-10
2.49e+09      	3.422953e-10
2.49498e+09   	3.401473e-10
2.50002e+09   	3.379637e-10
2.505e+09     	3.358242e-10
2.50998e+09   	3.337314e-10
2.51502e+09   	3.315917e-10
2.52e+09      	3.294976e-10
2.52498e+09   	3.274335e-10
2.53002e+09   	3.253666e-10
2.535e+09     	3.233373e-10
2.53998e+09   	3.213269e-10
2.54502e+09   	3.193881e-10
2.55e+09      	3.174934e-10
2.55498e+09   	3.156081e-10
2.56002e+09   	3.137519e-10
2.565e+09     	3.119363e-10
2.56998e+09   	3.101933e-10
2.57502e+09   	3.084494e-10
2.58e+09      	3.067853e-10
2.58498e+09   	3.051534e-10
2.59002e+09   	3.035453e-10
2.595e+09     	3.019741e-10
2.59998e+09   	3.004443e-10
2.60502e+09   	2.989283e-10
2.61e+09      	2.974592e-10
2.61498e+09   	2.960379e-10
2.62002e+09   	2.945992e-10
2.625e+09     	2.932143e-10
2.62998e+09   	2.919194e-10
2.63502e+09   	2.906089e-10
2.64e+09      	2.893394e-10
2.64498e+09   	2.880871e-10
2.65002e+09   	2.868746e-10
2.655e+09     	2.856754e-10
2.65998e+09   	2.845318e-10
2.66502e+09   	2.833685e-10
2.67e+09      	2.822610e-10
2.67498e+09   	2.811583e-10
2.68002e+09   	2.801013e-10
2.685e+09     	2.790247e-10
2.68998e+09   	2.780154e-10
2.69502e+09   	2.769965e-10
2.7e+09       	2.760329e-10
2.70498e+09   	2.750850e-10
2.71002e+09   	2.741247e-10
2.715e+09     	2.732329e-10
2.71998e+09   	2.723513e-10
2.72502e+09   	2.714443e-10
2.73e+09      	2.705876e-10
2.73498e+09   	2.697614e-10
2.74002e+09   	2.689509e-10
2.745e+09     	2.681714e-10
2.74998e+09   	2.673788e-10
2.75502e+09   	2.666240e-10
2.76e+09      	2.659000e-10
2.76498e+09   	2.651691e-10
2.77002e+09   	2.644990e-10
2.775e+09     	2.637813e-10
2.77998e+09   	2.631017e-10
2.78502e+09   	2.624202e-10
2.79e+09      	2.617656e-10
2.79498e+09   	2.611164e-10
2.80002e+09   	2.605049e-10
2.805e+09     	2.598857e-10
2.80998e+09   	2.592892e-10
2.81502e+09   	2.587043e-10
2.82e+09      	2.581524e-10
2.82498e+09   	2.576149e-10
2.83002e+09   	2.570117e-10
2.835e+09     	2.565267e-10
2.83998e+09   	2.560273e-10
2.84502e+09   	2.555279e-10
2.85e+09      	2.550212e-10
2.85498e+09   	2.545105e-10
2.86002e+09   	2.540013e-10
2.865e+09     	2.535441e-10
2.86998e+09   	2.530326e-10
2.87502e+09   	2.525704e-10
2.88e+09      	2.521233e-10
2.88498e+09   	2.516582e-10
2.89002e+09   	2.511961e-10
2.895e+09     	2.507245e-10
2.89998e+09   	2.502672e-10
2.90502e+09   	2.498124e-10
2.91e+09      	2.493894e-10
2.91498e+09   	2.489464e-10
2.92002e+09   	2.484902e-10
2.925e+09     	2.480329e-10
2.92998e+09   	2.476096e-10
2.93502e+09   	2.471422e-10
2.94e+09      	2.466924e-10
2.94498e+09   	2.462253e-10
2.95002e+09   	2.457611e-10
2.955e+09     	2.452861e-10
2.95998e+09   	2.448225e-10
2.96502e+09   	2.443334e-10
2.97e+09      	2.438673e-10
2.97498e+09   	2.434110e-10
2.98002e+09   	2.429200e-10
2.985e+09     	2.424383e-10
2.98998e+09   	2.419589e-10
2.99502e+09   	2.414562e-10
3e+09         	2.409867e-10
3.00498e+09   	2.405071e-10
3.01002e+09   	2.400099e-10
3.015e+09     	2.395174e-10
3.01998e+09   	2.390290e-10
3.02502e+09   	2.385215e-10
3.03e+09      	2.380067e-10
3.03498e+09   	2.374924e-10
3.04002e+09   	2.369845e-10
3.045e+09     	2.364762e-10
3.04998e+09   	2.359594e-10
3.05502e+09   	2.354354e-10
3.06e+09      	2.349242e-10
3.06498e+09   	2.343668e-10
3.07002e+09   	2.338948e-10
3.075e+09     	2.333917e-10
3.07998e+09   	2.328913e-10
3.08502e+09   	2.323638e-10
3.09e+09      	2.318614e-10
3.09498e+09   	2.313727e-10
3.10002e+09   	2.308700e-10
3.105e+09     	2.303484e-10
3.10998e+09   	2.298867e-10
3.11502e+09   	2.293921e-10
3.12e+09      	2.289447e-10
3.12498e+09   	2.284935e-10
3.13002e+09   	2.279966e-10
3.135e+09     	2.275475e-10
3.13998e+09   	2.271061e-10
3.14502e+09   	2.266148e-10
3.15e+09      	2.262086e-10
3.15498e+09   	2.257527e-10
3.16002e+09   	2.253344e-10
3.165e+09     	2.248952e-10
3.16998e+09   	2.244994e-10
3.17502e+09   	2.240741e-10
3.18e+09      	2.236780e-10
3.18498e+09   	2.232634e-10
3.19002e+09   	2.227897e-10
3.195e+09     	2.224608e-10
3.19998e+09   	2.220654e-10
3.20502e+09   	2.216408e-10
3.21e+09      	2.212812e-10
3.21498e+09   	2.208948e-10
3.22002e+09   	2.205055e-10
3.225e+09     	2.201178e-10
3.22998e+09   	2.197769e-10
3.23502e+09   	2.194323e-10
3.24e+09      	2.190433e-10
3.24498e+09   	2.186766e-10
3.25002e+09   	2.183273e-10
3.255e+09     	2.179559e-10
3.25998e+09   	2.176193e-10
3.26502e+09   	2.172352e-10
3.27e+09      	2.168856e-10
3.27498e+09   	2.165582e-10
3.28002e+09   	2.162178e-10
3.285e+09     	2.158554e-10
3.28998e+09   	2.154841e-10
3.29502e+09   	2.151498e-10
3.3e+09       	2.148143e-10
3.30498e+09   	2.144729e-10
3.31002e+09   	2.141255e-10
3.315e+09     	2.137525e-10
3.31998e+09   	2.134021e-10
3.32502e+09   	2.130618e-10
3.33e+09      	2.127212e-10
3.33498e+09   	2.123596e-10
3.34002e+09   	2.119764e-10
3.345e+09     	2.116505e-10
3.34998e+09   	2.112861e-10
3.35502e+09   	2.109127e-10
3.36e+09      	2.105237e-10
3.36498e+09   	2.101546e-10
3.37002e+09   	2.097828e-10
3.375e+09     	2.093851e-10
3.37998e+09   	2.089946e-10
3.38502e+09   	2.086249e-10
3.39e+09      	2.082214e-10
3.39498e+09   	2.078102e-10
3.40002e+09   	2.074226e-10
3.405e+09     	2.070008e-10
3.40998e+09   	2.066182e-10
3.41502e+09   	2.061929e-10
3.42e+09      	2.057698e-10
3.42498e+09   	2.053612e-10
3.43002e+09   	2.049205e-10
3.435e+09     	2.044921e-10
3.43998e+09   	2.040525e-10
3.44502e+09   	2.035466e-10
3.45e+09      	2.031509e-10
3.45498e+09   	2.027048e-10
3.46002e+09   	2.021959e-10
3.465e+09     	2.017878e-10
3.46998e+09   	2.013284e-10
3.47502e+09   	2.008896e-10
3.48e+09      	2.003972e-10
3.48498e+09   	1.999297e-10
3.49002e+09   	1.994916e-10
3.495e+09     	1.990076e-10
3.49998e+09   	1.984718e-10
3.50502e+09   	1.980323e-10
3.51e+09      	1.975468e-10
3.51498e+09   	1.969969e-10
3.52002e+09   	1.965536e-10
3.525e+09     	1.960444e-10
3.52998e+09   	1.955721e-10
3.53502e+09   	1.950603e-10
3.54e+09      	1.945200e-10
3.54498e+09   	1.940734e-10
3.55002e+09   	1.935549e-10
3.555e+09     	1.930487e-10
3.55998e+09   	1.925827e-10
3.56502e+09   	1.920636e-10
3.57e+09      	1.915556e-10
3.57498e+09   	1.910478e-10
3.58002e+09   	1.905636e-10
3.585e+09     	1.900563e-10
3.58998e+09   	1.895552e-10
3.59502e+09   	1.889962e-10
3.6e+09       	1.885360e-10
3.60498e+09   	1.880447e-10
3.61002e+09   	1.875527e-10
3.615e+09     	1.870623e-10
3.61998e+09   	1.865816e-10
3.62502e+09   	1.860909e-10
3.63e+09      	1.856107e-10
3.63498e+09   	1.851445e-10
3.64002e+09   	1.846715e-10
3.645e+09     	1.842013e-10
3.64998e+09   	1.837260e-10
3.65502e+09   	1.832993e-10
3.66e+09      	1.828216e-10
3.66498e+09   	1.824054e-10
3.67002e+09   	1.819516e-10
3.675e+09     	1.815244e-10
3.67998e+09   	1.811189e-10
3.68502e+09   	1.807104e-10
3.69e+09      	1.803134e-10
3.69498e+09   	1.799203e-10
3.70002e+09   	1.794854e-10
3.705e+09     	1.791274e-10
3.70998e+09   	1.787496e-10
3.71502e+09   	1.783824e-10
3.72e+09      	1.780037e-10
3.72498e+09   	1.776449e-10
3.73002e+09   	1.772961e-10
3.735e+09     	1.769487e-10
3.73998e+09   	1.765996e-10
3.74502e+09   	1.762857e-10
3.75e+09      	1.759579e-10
3.75498e+09   	1.756730e-10
3.76002e+09   	1.753843e-10
3.765e+09     	1.751053e-10
3.76998e+09   	1.748096e-10
3.77502e+09   	1.745549e-10
3.78e+09      	1.742117e-10
3.78498e+09   	1.740255e-10
3.79002e+09   	1.737845e-10
3.795e+09     	1.734954e-10
3.79998e+09   	1.733133e-10
3.80502e+09   	1.730726e-10
3.81e+09      	1.728614e-10
3.81498e+09   	1.726475e-10
3.82002e+09   	1.724572e-10
3.825e+09     	1.722656e-10
3.82998e+09   	1.720857e-10
3.83502e+09   	1.718962e-10
3.84e+09      	1.716993e-10
3.84498e+09   	1.715354e-10
3.85002e+09   	1.713763e-10
3.855e+09     	1.712199e-10
3.85998e+09   	1.710556e-10
3.86502e+09   	1.709125e-10
3.87e+09      	1.707745e-10
3.87498e+09   	1.706533e-10
3.88002e+09   	1.705290e-10
3.885e+09     	1.704005e-10
3.88998e+09   	1.703103e-10
3.89502e+09   	1.702208e-10
3.9e+09       	1.701162e-10
3.90498e+09   	1.700343e-10
3.91002e+09   	1.699470e-10
3.915e+09     	1.698816e-10
3.91998e+09   	1.698129e-10
3.92502e+09   	1.697243e-10
3.93e+09      	1.696415e-10
3.93498e+09   	1.695395e-10
3.94002e+09   	1.695104e-10
3.945e+09     	1.694672e-10
3.94998e+09   	1.693835e-10
3.95502e+09   	1.693351e-10
3.96e+09      	1.692961e-10
3.96498e+09   	1.692752e-10
3.97002e+09   	1.692549e-10
3.975e+09     	1.692077e-10
3.97998e+09   	1.692083e-10
3.98502e+09   	1.691602e-10
3.99e+09      	1.691355e-10
3.99498e+09   	1.690998e-10
4.00002e+09   	1.690674e-10
4.005e+09     	1.690647e-10
4.00998e+09   	1.690615e-10
4.01502e+09   	1.690362e-10
4.02e+09      	1.690291e-10
4.02498e+09   	1.690263e-10
4.03002e+09   	1.690338e-10
4.035e+09     	1.690501e-10
4.03998e+09   	1.690665e-10
4.04502e+09   	1.690857e-10
4.05e+09      	1.690745e-10
4.05498e+09   	1.690897e-10
4.06002e+09   	1.691330e-10
4.065e+09     	1.691860e-10
4.06998e+09   	1.691965e-10
4.07502e+09   	1.691807e-10
4.08e+09      	1.692420e-10
4.08498e+09   	1.692665e-10
4.09002e+09   	1.692947e-10
4.095e+09     	1.693014e-10
4.09998e+09   	1.693504e-10
4.10502e+09   	1.693728e-10
4.11e+09      	1.693996e-10
4.11498e+09   	1.693954e-10
4.12002e+09   	1.694266e-10
4.125e+09     	1.694684e-10
4.12998e+09   	1.694457e-10
4.13502e+09   	1.695362e-10
4.14e+09      	1.695490e-10
4.14498e+09   	1.695927e-10
4.15002e+09   	1.696540e-10
4.155e+09     	1.697045e-10
4.15998e+09   	1.697455e-10
4.16502e+09   	1.697948e-10
4.17e+09      	1.698472e-10
4.17498e+09   	1.699043e-10
4.18002e+09   	1.699794e-10
4.185e+09     	1.700192e-10
4.18998e+09   	1.700805e-10
4.19502e+09   	1.701468e-10
4.2e+09       	1.701930e-10
4.20498e+09   	1.702377e-10
4.21002e+09   	1.702890e-10
4.215e+09     	1.703563e-10
4.21998e+09   	1.704124e-10
4.22502e+09   	1.704673e-10
4.23e+09      	1.704878e-10
4.23498e+09   	1.705679e-10
4.24002e+09   	1.705706e-10
4.245e+09     	1.706353e-10
4.24998e+09   	1.706717e-10
4.25502e+09   	1.707189e-10
4.26e+09      	1.707474e-10
4.26498e+09   	1.707996e-10
4.27002e+09   	1.708101e-10
4.275e+09     	1.708345e-10
4.27998e+09   	1.708681e-10
4.28502e+09   	1.709175e-10
4.29e+09      	1.709534e-10
4.29498e+09   	1.709763e-10
4.30002e+09   	1.709933e-10
4.305e+09     	1.710125e-10
4.30998e+09   	1.710375e-10
4.31502e+09   	1.710490e-10
4.32e+09      	1.710659e-10
4.32498e+09   	1.710333e-10
4.33002e+09   	1.710678e-10
4.335e+09     	1.710786e-10
4.33998e+09   	1.710861e-10
4.34502e+09   	1.710720e-10
4.35e+09      	1.710363e-10
4.35498e+09   	1.710200e-10
4.36002e+09   	1.709884e-10
4.365e+09     	1.709593e-10
4.36998e+09   	1.709194e-10
4.37502e+09   	1.708528e-10
4.38e+09      	1.708274e-10
4.38498e+09   	1.707830e-10
4.39002e+09   	1.707040e-10
4.395e+09     	1.706152e-10
4.39998e+09   	1.705335e-10
4.40502e+09   	1.704375e-10
4.41e+09      	1.703398e-10
4.41498e+09   	1.701892e-10
4.42002e+09   	1.701099e-10
4.425e+09     	1.699958e-10
4.42998e+09   	1.698628e-10
4.43502e+09   	1.697339e-10
4.44e+09      	1.695910e-10
4.44498e+09   	1.694210e-10
4.45002e+09   	1.692560e-10
4.455e+09     	1.690876e-10
4.45998e+09   	1.689240e-10
4.46502e+09   	1.687286e-10
4.47e+09      	1.685308e-10
4.47498e+09   	1.683214e-10
4.48002e+09   	1.681347e-10
4.485e+09     	1.679268e-10
4.48998e+09   	1.676963e-10
4.49502e+09   	1.674588e-10
4.5e+09       	1.672237e-10
4.50498e+09   	1.669714e-10
4.51002e+09   	1.667193e-10
4.515e+09     	1.664379e-10
4.51998e+09   	1.661510e-10
4.52502e+09   	1.658750e-10
4.53e+09      	1.655851e-10
4.53498e+09   	1.652620e-10
4.54002e+09   	1.649665e-10
4.545e+09     	1.646386e-10
4.54998e+09   	1.643154e-10
4.55502e+09   	1.639790e-10
4.56e+09      	1.636174e-10
4.56498e+09   	1.632586e-10
4.57002e+09   	1.628811e-10
4.575e+09     	1.624821e-10
4.57998e+09   	1.621172e-10
4.58502e+09   	1.617195e-10
4.59e+09      	1.612988e-10
4.59498e+09   	1.608969e-10
4.60002e+09   	1.604865e-10
4.605e+09     	1.600806e-10
4.60998e+09   	1.596552e-10
4.61502e+09   	1.592282e-10
4.62e+09      	1.587865e-10
4.62498e+09   	1.583603e-10
4.63002e+09   	1.579090e-10
4.635e+09     	1.574657e-10
4.63998e+09   	1.570382e-10
4.64502e+09   	1.565763e-10
4.65e+09      	1.561433e-10
4.65498e+09   	1.556752e-10
4.66002e+09   	1.552133e-10
4.665e+09     	1.547503e-10
4.66998e+09   	1.543280e-10
4.67502e+09   	1.538500e-10
4.68e+09      	1.534219e-10
4.68498e+09   	1.529805e-10
4.69002e+09   	1.525236e-10
4.695e+09     	1.520771e-10
4.69998e+09   	1.516213e-10
4.70502e+09   	1.511705e-10
4.71e+09      	1.507576e-10
4.71498e+09   	1.503268e-10
4.72002e+09   	1.498990e-10
4.725e+09     	1.494481e-10
4.72998e+09   	1.490363e-10
4.73502e+09   	1.486163e-10
4.74e+09      	1.482029e-10
4.74498e+09   	1.477863e-10
4.75002e+09   	1.473644e-10
4.755e+09     	1.469852e-10
4.75998e+09   	1.465818e-10
4.76502e+09   	1.461936e-10
4.77e+09      	1.458170e-10
4.77498e+09   	1.454210e-10
4.78002e+09   	1.450453e-10
4.785e+09     	1.447060e-10
4.78998e+09   	1.443514e-10
4.79502e+09   	1.439979e-10
4.8e+09       	1.436572e-10
4.80498e+09   	1.433187e-10
4.81002e+09   	1.429718e-10
4.815e+09     	1.426345e-10
4.81998e+09   	1.423204e-10
4.82502e+09   	1.419881e-10
4.83e+09      	1.416837e-10
4.83498e+09   	1.413764e-10
4.84002e+09   	1.410527e-10
4.845e+09     	1.407847e-10
4.84998e+09   	1.404801e-10
4.85502e+09   	1.402170e-10
4.86e+09      	1.399427e-10
4.86498e+09   	1.396581e-10
4.87002e+09   	1.394078e-10
4.875e+09     	1.391517e-10
4.87998e+09   	1.388949e-10
4.88502e+09   	1.386522e-10
4.89e+09      	1.384133e-10
4.89498e+09   	1.381755e-10
4.90002e+09   	1.379413e-10
4.905e+09     	1.377059e-10
4.90998e+09   	1.374888e-10
4.91502e+09   	1.372627e-10
4.92e+09      	1.370539e-10
4.92498e+09   	1.368367e-10
4.93002e+09   	1.366348e-10
4.935e+09     	1.364251e-10
4.93998e+09   	1.362358e-10
4.94502e+09   	1.360376e-10
4.95e+09      	1.358353e-10
4.95498e+09   	1.356479e-10
4.96002e+09   	1.354680e-10
4.965e+09     	1.352873e-10
4.96998e+09   	1.351112e-10
4.97502e+09   	1.349179e-10
4.98e+09      	1.347718e-10
4.98498e+09   	1.345936e-10
4.99002e+09   	1.344488e-10
4.995e+09     	1.342691e-10
4.99998e+09   	1.341070e-10
5.00502e+09   	1.339491e-10
5.01e+09      	1.338021e-10
5.01498e+09   	1.336504e-10
5.02002e+09   	1.335055e-10
5.025e+09     	1.333351e-10
5.02998e+09   	1.332174e-10
5.03502e+09   	1.330717e-10
5.04e+09      	1.329076e-10
5.04498e+09   	1.327976e-10
5.05002e+09   	1.326620e-10
5.055e+09     	1.325138e-10
5.05998e+09   	1.324090e-10
5.06502e+09   	1.322620e-10
5.07e+09      	1.321282e-10
5.07498e+09   	1.320091e-10
5.08002e+09   	1.318689e-10
5.085e+09     	1.317575e-10
5.08998e+09   	1.316373e-10
5.09502e+09   	1.314972e-10
5.1e+09       	1.313939e-10
5.10498e+09   	1.312564e-10
5.11002e+09   	1.311515e-10
5.115e+09     	1.310278e-10
5.11998e+09   	1.309121e-10
5.12502e+09   	1.307961e-10
5.13e+09      	1.306737e-10
5.13498e+09   	1.305534e-10
5.14002e+09   	1.304445e-10
5.145e+09     	1.303333e-10
5.14998e+09   	1.302076e-10
5.15502e+09   	1.300898e-10
5.16e+09      	1.299810e-10
5.16498e+09   	1.298512e-10
5.17002e+09   	1.297573e-10
5.175e+09     	1.296362e-10
5.17998e+09   	1.295108e-10
5.18502e+09   	1.293937e-10
5.19e+09      	1.292774e-10
5.19498e+09   	1.291833e-10
5.20002e+09   	1.290314e-10
5.205e+09     	1.289465e-10
5.20998e+09   	1.288403e-10
5.21502e+09   	1.287222e-10
5.22e+09      	1.286069e-10
5.22498e+09   	1.284951e-10
5.23002e+09   	1.283539e-10
5.235e+09     	1.282629e-10
5.23998e+09   	1.281438e-10
5.24502e+09   	1.280118e-10
5.25e+09      	1.279068e-10
5.25498e+09   	1.277967e-10
5.26002e+09   	1.276724e-10
5.265e+09     	1.275284e-10
5.26998e+09   	1.274204e-10
5.27502e+09   	1.272995e-10
5.28e+09      	1.271685e-10
5.28498e+09   	1.270420e-10
5.29002e+09   	1.269005e-10
5.295e+09     	1.267818e-10
5.29998e+09   	1.266495e-10
5.30502e+09   	1.265062e-10
5.31e+09      	1.263754e-10
5.31498e+09   	1.262356e-10
5.32002e+09   	1.260880e-10
5.325e+09     	1.259494e-10
5.32998e+09   	1.258121e-10
5.33502e+09   	1.256683e-10