/*--------------------------------*- C++ -*----------------------------------*\
  =========                 |
  \\      /  F ield         | OpenFOAM: The Open Source CFD Toolbox
   \\    /   O peration     | Website:  https://openfoam.org
    \\  /    A nd           | Version:  7
     \\/     M anipulation  |
\*---------------------------------------------------------------------------*/
FoamFile
{
    version     2.0;
    format      ascii;
    class       volScalarField;
    location    "1199.99947341444067";
    object      p;
}
// * * * * * * * * * * * * * * * * * * * * * * * * * * * * * * * * * * * * * //

dimensions      [0 2 -2 0 0 0 0];

internalField   nonuniform List<scalar> 
4096
(
0.0006149
0.000444
0.0003598
0.0003176
0.0002942
0.0002803
0.0002714
0.0002653
0.000261
0.0002577
0.0002552
0.0002531
0.0002515
0.0002501
0.000249
0.0002479
0.0002471
0.0002463
0.0002456
0.0002449
0.0002443
0.0002437
0.0002432
0.0002427
0.0002422
0.0002417
0.0002412
0.0002407
0.0002402
0.0002397
0.0002392
0.0002387
0.0002381
0.0002376
0.000237
0.0002363
0.0002356
0.0002349
0.000234
0.0002331
0.000232
0.0002309
0.0002295
0.0002281
0.0002264
0.0002245
0.0002223
0.0002199
0.0002172
0.0002141
0.0002107
0.000207
0.0002028
0.0001982
0.0001932
0.0001878
0.0001819
0.0001757
0.0001691
0.0001622
0.0001549
0.0001475
0.0001399
0.0001322
0.0001245
0.0001168
0.0001092
0.0001018
9.469e-05
8.78e-05
8.124e-05
7.502e-05
6.916e-05
6.368e-05
5.86e-05
5.389e-05
4.957e-05
4.562e-05
4.203e-05
3.877e-05
3.584e-05
3.321e-05
3.085e-05
2.874e-05
2.686e-05
2.519e-05
2.37e-05
2.237e-05
2.118e-05
2.012e-05
1.916e-05
1.83e-05
1.751e-05
1.678e-05
1.612e-05
1.55e-05
1.491e-05
1.436e-05
1.383e-05
1.331e-05
1.282e-05
1.233e-05
1.186e-05
1.139e-05
1.092e-05
1.046e-05
9.999e-06
9.538e-06
9.076e-06
8.612e-06
8.147e-06
7.68e-06
7.21e-06
6.737e-06
6.261e-06
5.782e-06
5.3e-06
4.814e-06
4.324e-06
3.832e-06
3.336e-06
2.839e-06
2.34e-06
1.841e-06
1.347e-06
8.651e-07
4.091e-07
6.553e-08
0.0004704
0.0004067
0.0003569
0.0003249
0.0003039
0.0002897
0.0002796
0.0002723
0.0002668
0.0002626
0.0002593
0.0002566
0.0002544
0.0002526
0.000251
0.0002497
0.0002486
0.0002475
0.0002466
0.0002458
0.000245
0.0002443
0.0002436
0.0002429
0.0002423
0.0002417
0.0002411
0.0002404
0.0002398
0.0002392
0.0002386
0.000238
0.0002373
0.0002366
0.0002359
0.0002351
0.0002343
0.0002334
0.0002324
0.0002313
0.0002301
0.0002288
0.0002273
0.0002257
0.0002239
0.0002218
0.0002196
0.0002171
0.0002143
0.0002111
0.0002077
0.0002039
0.0001998
0.0001953
0.0001904
0.0001851
0.0001794
0.0001734
0.0001671
0.0001605
0.0001536
0.0001465
0.0001393
0.0001319
0.0001246
0.0001173
0.0001101
0.0001031
9.624e-05
8.965e-05
8.335e-05
7.735e-05
7.168e-05
6.636e-05
6.138e-05
5.676e-05
5.249e-05
4.855e-05
4.495e-05
4.166e-05
3.867e-05
3.597e-05
3.352e-05
3.131e-05
2.932e-05
2.753e-05
2.591e-05
2.446e-05
2.314e-05
2.195e-05
2.087e-05
1.989e-05
1.898e-05
1.815e-05
1.737e-05
1.665e-05
1.596e-05
1.532e-05
1.47e-05
1.412e-05
1.355e-05
1.299e-05
1.246e-05
1.193e-05
1.141e-05
1.09e-05
1.039e-05
9.891e-06
9.393e-06
8.896e-06
8.401e-06
7.907e-06
7.412e-06
6.918e-06
6.423e-06
5.927e-06
5.429e-06
4.931e-06
4.431e-06
3.929e-06
3.427e-06
2.924e-06
2.421e-06
1.921e-06
1.426e-06
9.396e-07
4.71e-07
9.116e-08
0.0003869
0.0003653
0.0003398
0.0003191
0.0003036
0.0002918
0.0002829
0.0002758
0.0002703
0.0002658
0.0002622
0.0002592
0.0002567
0.0002546
0.0002528
0.0002512
0.0002498
0.0002486
0.0002475
0.0002465
0.0002456
0.0002447
0.0002439
0.0002431
0.0002424
0.0002416
0.0002409
0.0002402
0.0002395
0.0002388
0.000238
0.0002373
0.0002365
0.0002357
0.0002348
0.0002339
0.000233
0.0002319
0.0002308
0.0002296
0.0002283
0.0002268
0.0002252
0.0002235
0.0002215
0.0002194
0.0002171
0.0002145
0.0002116
0.0002084
0.000205
0.0002012
0.0001971
0.0001927
0.0001879
0.0001827
0.0001773
0.0001715
0.0001654
0.000159
0.0001524
0.0001456
0.0001387
0.0001317
0.0001247
0.0001177
0.0001109
0.0001041
9.757e-05
9.124e-05
8.517e-05
7.939e-05
7.389e-05
6.872e-05
6.386e-05
5.932e-05
5.51e-05
5.119e-05
4.759e-05
4.429e-05
4.126e-05
3.849e-05
3.598e-05
3.368e-05
3.16e-05
2.971e-05
2.799e-05
2.643e-05
2.5e-05
2.37e-05
2.251e-05
2.141e-05
2.04e-05
1.946e-05
1.859e-05
1.777e-05
1.7e-05
1.627e-05
1.557e-05
1.491e-05
1.427e-05
1.365e-05
1.305e-05
1.247e-05
1.19e-05
1.134e-05
1.079e-05
1.025e-05
9.715e-06
9.185e-06
8.66e-06
8.139e-06
7.62e-06
7.104e-06
6.59e-06
6.076e-06
5.564e-06
5.052e-06
4.54e-06
4.029e-06
3.518e-06
3.008e-06
2.499e-06
1.993e-06
1.489e-06
9.921e-07
5.036e-07
9.524e-08
0.0003422
0.0003351
0.0003218
0.0003086
0.0002978
0.000289
0.0002819
0.000276
0.0002711
0.000267
0.0002635
0.0002606
0.000258
0.0002558
0.0002539
0.0002522
0.0002508
0.0002494
0.0002482
0.0002471
0.000246
0.0002451
0.0002441
0.0002433
0.0002424
0.0002416
0.0002408
0.00024
0.0002391
0.0002383
0.0002375
0.0002366
0.0002358
0.0002348
0.0002339
0.0002329
0.0002318
0.0002307
0.0002294
0.0002281
0.0002267
0.0002251
0.0002235
0.0002216
0.0002196
0.0002174
0.000215
0.0002123
0.0002094
0.0002063
0.0002028
0.0001991
0.000195
0.0001906
0.0001859
0.0001809
0.0001756
0.0001699
0.000164
0.0001578
0.0001515
0.0001449
0.0001382
0.0001315
0.0001247
0.000118
0.0001114
0.0001049
9.858e-05
9.246e-05
8.659e-05
8.097e-05
7.563e-05
7.057e-05
6.581e-05
6.135e-05
5.719e-05
5.332e-05
4.974e-05
4.643e-05
4.338e-05
4.059e-05
3.802e-05
3.567e-05
3.352e-05
3.156e-05
2.976e-05
2.811e-05
2.66e-05
2.521e-05
2.393e-05
2.275e-05
2.165e-05
2.063e-05
1.967e-05
1.877e-05
1.792e-05
1.712e-05
1.635e-05
1.562e-05
1.492e-05
1.425e-05
1.36e-05
1.296e-05
1.235e-05
1.175e-05
1.116e-05
1.058e-05
1.001e-05
9.455e-06
8.903e-06
8.357e-06
7.816e-06
7.28e-06
6.747e-06
6.218e-06
5.691e-06
5.166e-06
4.644e-06
4.122e-06
3.602e-06
3.084e-06
2.566e-06
2.051e-06
1.537e-06
1.026e-06
5.184e-07
9.189e-08
0.0003153
0.0003143
0.0003074
0.0002988
0.000291
0.0002844
0.0002789
0.0002742
0.0002702
0.0002666
0.0002636
0.0002609
0.0002585
0.0002564
0.0002545
0.0002528
0.0002513
0.0002499
0.0002486
0.0002474
0.0002463
0.0002453
0.0002443
0.0002433
0.0002424
0.0002415
0.0002406
0.0002397
0.0002388
0.0002379
0.000237
0.0002361
0.0002351
0.0002341
0.0002331
0.000232
0.0002308
0.0002296
0.0002283
0.0002269
0.0002254
0.0002238
0.000222
0.0002201
0.000218
0.0002157
0.0002133
0.0002106
0.0002077
0.0002045
0.0002011
0.0001974
0.0001933
0.000189
0.0001844
0.0001795
0.0001743
0.0001687
0.000163
0.000157
0.0001507
0.0001444
0.0001379
0.0001313
0.0001247
0.0001182
0.0001118
0.0001055
9.931e-05
9.336e-05
8.764e-05
8.216e-05
7.695e-05
7.2e-05
6.733e-05
6.294e-05
5.883e-05
5.5e-05
5.144e-05
4.814e-05
4.509e-05
4.227e-05
3.968e-05
3.73e-05
3.51e-05
3.309e-05
3.123e-05
2.952e-05
2.795e-05
2.649e-05
2.514e-05
2.389e-05
2.272e-05
2.163e-05
2.06e-05
1.964e-05
1.873e-05
1.786e-05
1.704e-05
1.626e-05
1.55e-05
1.478e-05
1.408e-05
1.341e-05
1.275e-05
1.211e-05
1.149e-05
1.088e-05
1.028e-05
9.698e-06
9.122e-06
8.554e-06
7.994e-06
7.439e-06
6.891e-06
6.347e-06
5.807e-06
5.271e-06
4.737e-06
4.206e-06
3.677e-06
3.15e-06
2.624e-06
2.098e-06
1.574e-06
1.051e-06
5.274e-07
8.806e-08
0.0002979
0.0002995
0.0002961
0.0002905
0.0002848
0.0002797
0.0002754
0.0002716
0.0002683
0.0002654
0.0002628
0.0002604
0.0002583
0.0002563
0.0002545
0.0002529
0.0002514
0.0002501
0.0002488
0.0002476
0.0002464
0.0002454
0.0002443
0.0002433
0.0002423
0.0002414
0.0002404
0.0002395
0.0002385
0.0002376
0.0002366
0.0002356
0.0002346
0.0002335
0.0002324
0.0002312
0.00023
0.0002287
0.0002274
0.0002259
0.0002243
0.0002226
0.0002208
0.0002189
0.0002168
0.0002145
0.000212
0.0002093
0.0002064
0.0002032
0.0001998
0.0001961
0.0001921
0.0001878
0.0001833
0.0001784
0.0001733
0.0001679
0.0001622
0.0001563
0.0001502
0.0001439
0.0001376
0.0001311
0.0001247
0.0001183
0.000112
0.0001058
9.981e-05
9.399e-05
8.839e-05
8.302e-05
7.79e-05
7.304e-05
6.845e-05
6.412e-05
6.006e-05
5.626e-05
5.273e-05
4.944e-05
4.64e-05
4.358e-05
4.098e-05
3.857e-05
3.636e-05
3.431e-05
3.241e-05
3.066e-05
2.904e-05
2.754e-05
2.614e-05
2.483e-05
2.361e-05
2.246e-05
2.139e-05
2.037e-05
1.941e-05
1.849e-05
1.762e-05
1.679e-05
1.6e-05
1.523e-05
1.45e-05
1.378e-05
1.309e-05
1.243e-05
1.177e-05
1.114e-05
1.052e-05
9.91e-06
9.313e-06
8.726e-06
8.148e-06
7.578e-06
7.016e-06
6.459e-06
5.908e-06
5.361e-06
4.818e-06
4.278e-06
3.741e-06
3.206e-06
2.672e-06
2.138e-06
1.605e-06
1.071e-06
5.347e-07
8.528e-08
0.000286
0.0002885
0.0002872
0.0002836
0.0002794
0.0002754
0.0002719
0.0002688
0.0002661
0.0002637
0.0002615
0.0002594
0.0002576
0.0002558
0.0002542
0.0002527
0.0002513
0.00025
0.0002487
0.0002475
0.0002464
0.0002453
0.0002443
0.0002432
0.0002422
0.0002413
0.0002403
0.0002393
0.0002383
0.0002373
0.0002363
0.0002352
0.0002341
0.000233
0.0002319
0.0002307
0.0002294
0.000228
0.0002266
0.0002251
0.0002235
0.0002218
0.0002199
0.000218
0.0002158
0.0002135
0.000211
0.0002083
0.0002054
0.0002022
0.0001988
0.0001952
0.0001912
0.000187
0.0001825
0.0001777
0.0001726
0.0001673
0.0001617
0.0001558
0.0001498
0.0001436
0.0001373
0.000131
0.0001246
0.0001183
0.0001121
0.000106
0.0001001
9.438e-05
8.887e-05
8.358e-05
7.854e-05
7.374e-05
6.921e-05
6.493e-05
6.091e-05
5.715e-05
5.364e-05
5.038e-05
4.734e-05
4.453e-05
4.193e-05
3.952e-05
3.729e-05
3.523e-05
3.332e-05
3.154e-05
2.989e-05
2.835e-05
2.692e-05
2.557e-05
2.431e-05
2.313e-05
2.201e-05
2.096e-05
1.995e-05
1.9e-05
1.81e-05
1.723e-05
1.64e-05
1.56e-05
1.484e-05
1.41e-05
1.338e-05
1.268e-05
1.201e-05
1.135e-05
1.071e-05
1.008e-05
9.47e-06
8.868e-06
8.276e-06
7.693e-06
7.119e-06
6.552e-06
5.991e-06
5.436e-06
4.885e-06
4.338e-06
3.794e-06
3.252e-06
2.711e-06
2.171e-06
1.63e-06
1.088e-06
5.416e-07
8.413e-08
0.0002774
0.0002801
0.00028
0.0002778
0.0002748
0.0002717
0.0002688
0.0002662
0.0002639
0.0002619
0.00026
0.0002582
0.0002566
0.0002551
0.0002536
0.0002523
0.0002509
0.0002497
0.0002485
0.0002474
0.0002463
0.0002452
0.0002441
0.0002431
0.0002421
0.0002411
0.0002401
0.0002391
0.0002381
0.000237
0.000236
0.0002349
0.0002338
0.0002327
0.0002315
0.0002302
0.0002289
0.0002275
0.0002261
0.0002246
0.0002229
0.0002212
0.0002193
0.0002173
0.0002152
0.0002129
0.0002104
0.0002077
0.0002048
0.0002017
0.0001983
0.0001946
0.0001907
0.0001865
0.0001821
0.0001773
0.0001722
0.0001669
0.0001614
0.0001556
0.0001496
0.0001434
0.0001371
0.0001308
0.0001245
0.0001182
0.0001121
0.0001061
0.0001002
9.454e-05
8.909e-05
8.386e-05
7.887e-05
7.412e-05
6.963e-05
6.539e-05
6.141e-05
5.768e-05
5.419e-05
5.095e-05
4.794e-05
4.515e-05
4.256e-05
4.015e-05
3.793e-05
3.586e-05
3.394e-05
3.216e-05
3.049e-05
2.894e-05
2.748e-05
2.612e-05
2.483e-05
2.362e-05
2.248e-05
2.14e-05
2.037e-05
1.939e-05
1.845e-05
1.756e-05
1.671e-05
1.589e-05
1.51e-05
1.433e-05
1.36e-05
1.288e-05
1.219e-05
1.151e-05
1.086e-05
1.022e-05
9.59e-06
8.976e-06
8.374e-06
7.781e-06
7.198e-06
6.623e-06
6.055e-06
5.493e-06
4.937e-06
4.384e-06
3.835e-06
3.288e-06
2.742e-06
2.197e-06
1.651e-06
1.103e-06
5.49e-07
8.487e-08
0.0002709
0.0002736
0.0002742
0.000273
0.0002708
0.0002684
0.000266
0.0002638
0.0002619
0.0002601
0.0002585
0.0002569
0.0002555
0.0002542
0.0002529
0.0002516
0.0002504
0.0002493
0.0002482
0.0002471
0.000246
0.000245
0.000244
0.000243
0.0002419
0.0002409
0.0002399
0.0002389
0.0002379
0.0002369
0.0002358
0.0002347
0.0002336
0.0002324
0.0002312
0.0002299
0.0002286
0.0002272
0.0002258
0.0002242
0.0002226
0.0002208
0.000219
0.000217
0.0002148
0.0002125
0.0002101
0.0002074
0.0002045
0.0002014
0.000198
0.0001944
0.0001905
0.0001864
0.0001819
0.0001772
0.0001721
0.0001668
0.0001612
0.0001554
0.0001494
0.0001433
0.000137
0.0001307
0.0001243
0.0001181
0.0001119
0.0001059
0.0001001
9.449e-05
8.907e-05
8.388e-05
7.892e-05
7.42e-05
6.973e-05
6.551e-05
6.156e-05
5.785e-05
5.44e-05
5.118e-05
4.82e-05
4.543e-05
4.286e-05
4.048e-05
3.827e-05
3.621e-05
3.43e-05
3.252e-05
3.086e-05
2.93e-05
2.784e-05
2.646e-05
2.517e-05
2.394e-05
2.279e-05
2.169e-05
2.064e-05
1.965e-05
1.87e-05
1.779e-05
1.692e-05
1.608e-05
1.527e-05
1.449e-05
1.374e-05
1.302e-05
1.231e-05
1.163e-05
1.096e-05
1.031e-05
9.671e-06
9.049e-06
8.439e-06
7.84e-06
7.251e-06
6.671e-06
6.098e-06
5.532e-06
4.972e-06
4.416e-06
3.863e-06
3.313e-06
2.765e-06
2.217e-06
1.668e-06
1.115e-06
5.572e-07
8.77e-08
0.0002659
0.0002684
0.0002694
0.0002688
0.0002673
0.0002655
0.0002635
0.0002617
0.00026
0.0002584
0.000257
0.0002557
0.0002544
0.0002532
0.0002521
0.000251
0.0002499
0.0002488
0.0002478
0.0002467
0.0002457
0.0002447
0.0002438
0.0002428
0.0002418
0.0002408
0.0002398
0.0002388
0.0002378
0.0002367
0.0002357
0.0002346
0.0002334
0.0002323
0.0002311
0.0002298
0.0002285
0.0002271
0.0002256
0.0002241
0.0002225
0.0002207
0.0002189
0.0002169
0.0002148
0.0002125
0.0002101
0.0002074
0.0002046
0.0002015
0.0001981
0.0001945
0.0001907
0.0001865
0.0001821
0.0001773
0.0001723
0.0001669
0.0001613
0.0001555
0.0001494
0.0001432
0.0001369
0.0001305
0.0001241
0.0001179
0.0001117
0.0001057
9.986e-05
9.423e-05
8.882e-05
8.363e-05
7.867e-05
7.396e-05
6.95e-05
6.531e-05
6.137e-05
5.769e-05
5.426e-05
5.107e-05
4.812e-05
4.539e-05
4.285e-05
4.05e-05
3.832e-05
3.629e-05
3.44e-05
3.264e-05
3.099e-05
2.944e-05
2.799e-05
2.662e-05
2.532e-05
2.41e-05
2.294e-05
2.183e-05
2.078e-05
1.978e-05
1.882e-05
1.79e-05
1.702e-05
1.618e-05
1.536e-05
1.458e-05
1.382e-05
1.309e-05
1.237e-05
1.168e-05
1.101e-05
1.035e-05
9.712e-06
9.085e-06
8.472e-06
7.869e-06
7.277e-06
6.694e-06
6.12e-06
5.552e-06
4.99e-06
4.433e-06
3.879e-06
3.329e-06
2.779e-06
2.231e-06
1.68e-06
1.126e-06
5.665e-07
9.274e-08
0.0002618
0.0002642
0.0002653
0.0002652
0.0002643
0.0002629
0.0002613
0.0002598
0.0002583
0.0002569
0.0002557
0.0002545
0.0002534
0.0002523
0.0002512
0.0002502
0.0002493
0.0002483
0.0002473
0.0002464
0.0002454
0.0002445
0.0002435
0.0002426
0.0002416
0.0002407
0.0002397
0.0002387
0.0002377
0.0002367
0.0002356
0.0002345
0.0002334
0.0002323
0.0002311
0.0002298
0.0002285
0.0002271
0.0002257
0.0002242
0.0002226
0.0002209
0.000219
0.0002171
0.000215
0.0002128
0.0002104
0.0002078
0.000205
0.0002019
0.0001986
0.000195
0.0001912
0.000187
0.0001825
0.0001777
0.0001727
0.0001673
0.0001616
0.0001557
0.0001496
0.0001433
0.0001368
0.0001304
0.0001239
0.0001175
0.0001113
0.0001053
9.941e-05
9.376e-05
8.832e-05
8.311e-05
7.813e-05
7.341e-05
6.895e-05
6.475e-05
6.082e-05
5.717e-05
5.377e-05
5.062e-05
4.771e-05
4.502e-05
4.253e-05
4.023e-05
3.809e-05
3.61e-05
3.425e-05
3.252e-05
3.09e-05
2.937e-05
2.794e-05
2.658e-05
2.53e-05
2.409e-05
2.293e-05
2.184e-05
2.079e-05
1.979e-05
1.883e-05
1.791e-05
1.703e-05
1.619e-05
1.537e-05
1.459e-05
1.383e-05
1.309e-05
1.238e-05
1.168e-05
1.101e-05
1.035e-05
9.711e-06
9.084e-06
8.47e-06
7.867e-06
7.275e-06
6.693e-06
6.119e-06
5.552e-06
4.99e-06
4.434e-06
3.882e-06
3.333e-06
2.785e-06
2.238e-06
1.689e-06
1.136e-06
5.77e-07
1.001e-07
0.0002585
0.0002607
0.0002619
0.0002622
0.0002616
0.0002606
0.0002594
0.0002581
0.0002568
0.0002556
0.0002545
0.0002534
0.0002524
0.0002514
0.0002505
0.0002495
0.0002486
0.0002478
0.0002469
0.000246
0.0002451
0.0002442
0.0002433
0.0002424
0.0002415
0.0002406
0.0002396
0.0002387
0.0002377
0.0002367
0.0002357
0.0002346
0.0002335
0.0002324
0.0002312
0.00023
0.0002287
0.0002274
0.0002259
0.0002245
0.0002229
0.0002212
0.0002195
0.0002176
0.0002155
0.0002134
0.000211
0.0002085
0.0002057
0.0002027
0.0001994
0.0001959
0.000192
0.0001878
0.0001833
0.0001785
0.0001734
0.0001679
0.0001622
0.0001561
0.0001499
0.0001434
0.0001368
0.0001302
0.0001236
0.0001171
0.0001108
0.0001047
9.876e-05
9.305e-05
8.755e-05
8.229e-05
7.727e-05
7.251e-05
6.803e-05
6.383e-05
5.991e-05
5.628e-05
5.292e-05
4.982e-05
4.696e-05
4.433e-05
4.19e-05
3.966e-05
3.758e-05
3.565e-05
3.385e-05
3.216e-05
3.058e-05
2.909e-05
2.769e-05
2.637e-05
2.511e-05
2.392e-05
2.278e-05
2.17e-05
2.066e-05
1.967e-05
1.873e-05
1.782e-05
1.695e-05
1.611e-05
1.53e-05
1.452e-05
1.376e-05
1.303e-05
1.232e-05
1.163e-05
1.096e-05
1.031e-05
9.668e-06
9.045e-06
8.434e-06
7.835e-06
7.246e-06
6.667e-06
6.096e-06
5.532e-06
4.974e-06
4.422e-06
3.873e-06
3.327e-06
2.783e-06
2.239e-06
1.694e-06
1.144e-06
5.887e-07
1.098e-07
0.0002558
0.0002578
0.0002591
0.0002595
0.0002593
0.0002586
0.0002576
0.0002565
0.0002555
0.0002544
0.0002534
0.0002524
0.0002515
0.0002506
0.0002497
0.0002489
0.0002481
0.0002473
0.0002464
0.0002456
0.0002448
0.0002439
0.0002431
0.0002422
0.0002414
0.0002405
0.0002396
0.0002387
0.0002377
0.0002368
0.0002358
0.0002347
0.0002337
0.0002326
0.0002314
0.0002303
0.000229
0.0002277
0.0002264
0.0002249
0.0002234
0.0002218
0.0002201
0.0002183
0.0002163
0.0002142
0.0002119
0.0002095
0.0002068
0.0002038
0.0002006
0.0001971
0.0001933
0.0001891
0.0001846
0.0001797
0.0001744
0.0001689
0.000163
0.0001568
0.0001503
0.0001437
0.0001369
0.0001301
0.0001233
0.0001166
0.0001102
0.0001039
9.788e-05
9.206e-05
8.647e-05
8.112e-05
7.604e-05
7.123e-05
6.672e-05
6.251e-05
5.861e-05
5.501e-05
5.169e-05
4.866e-05
4.587e-05
4.332e-05
4.097e-05
3.88e-05
3.68e-05
3.494e-05
3.32e-05
3.158e-05
3.005e-05
2.862e-05
2.726e-05
2.597e-05
2.475e-05
2.359e-05
2.248e-05
2.142e-05
2.041e-05
1.945e-05
1.852e-05
1.762e-05
1.677e-05
1.594e-05
1.514e-05
1.437e-05
1.363e-05
1.291e-05
1.221e-05
1.153e-05
1.086e-05
1.022e-05
9.586e-06
8.969e-06
8.365e-06
7.772e-06
7.19e-06
6.616e-06
6.051e-06
5.493e-06
4.941e-06
4.394e-06
3.851e-06
3.311e-06
2.773e-06
2.234e-06
1.695e-06
1.151e-06
6.019e-07
1.218e-07
0.0002535
0.0002553
0.0002566
0.0002572
0.0002572
0.0002567
0.000256
0.0002552
0.0002542
0.0002533
0.0002524
0.0002515
0.0002507
0.0002499
0.0002491
0.0002483
0.0002476
0.0002468
0.000246
0.0002453
0.0002445
0.0002437
0.0002429
0.0002421
0.0002413
0.0002405
0.0002396
0.0002387
0.0002378
0.0002369
0.000236
0.000235
0.000234
0.0002329
0.0002318
0.0002307
0.0002295
0.0002283
0.000227
0.0002256
0.0002242
0.0002226
0.000221
0.0002193
0.0002174
0.0002154
0.0002132
0.0002108
0.0002082
0.0002054
0.0002022
0.0001988
0.000195
0.0001908
0.0001862
0.0001813
0.0001759
0.0001702
0.0001641
0.0001577
0.000151
0.0001441
0.0001371
0.0001299
0.0001229
0.000116
0.0001093
0.0001029
9.67e-05
9.073e-05
8.501e-05
7.955e-05
7.438e-05
6.951e-05
6.497e-05
6.075e-05
5.687e-05
5.332e-05
5.007e-05
4.712e-05
4.442e-05
4.197e-05
3.972e-05
3.765e-05
3.574e-05
3.397e-05
3.232e-05
3.078e-05
2.932e-05
2.795e-05
2.665e-05
2.541e-05
2.424e-05
2.312e-05
2.205e-05
2.103e-05
2.005e-05
1.911e-05
1.82e-05
1.733e-05
1.65e-05
1.569e-05
1.491e-05
1.416e-05
1.343e-05
1.272e-05
1.204e-05
1.137e-05
1.072e-05
1.009e-05
9.466e-06
8.859e-06
8.265e-06
7.681e-06
7.108e-06
6.543e-06
5.986e-06
5.436e-06
4.892e-06
4.353e-06
3.818e-06
3.285e-06
2.755e-06
2.224e-06
1.692e-06
1.157e-06
6.163e-07
1.36e-07
0.0002515
0.0002532
0.0002545
0.0002552
0.0002554
0.0002551
0.0002546
0.0002539
0.0002532
0.0002524
0.0002516
0.0002508
0.00025
0.0002493
0.0002485
0.0002478
0.0002471
0.0002464
0.0002457
0.000245
0.0002443
0.0002435
0.0002428
0.0002421
0.0002413
0.0002405
0.0002397
0.0002389
0.000238
0.0002371
0.0002362
0.0002353
0.0002343
0.0002333
0.0002323
0.0002312
0.0002301
0.000229
0.0002277
0.0002264
0.0002251
0.0002236
0.0002221
0.0002205
0.0002187
0.0002168
0.0002148
0.0002125
0.0002101
0.0002073
0.0002043
0.0002009
0.0001972
0.0001931
0.0001885
0.0001835
0.000178
0.0001721
0.0001658
0.0001591
0.0001521
0.0001448
0.0001374
0.0001298
0.0001224
0.0001152
0.0001082
0.0001015
9.513e-05
8.896e-05
8.307e-05
7.748e-05
7.221e-05
6.728e-05
6.271e-05
5.85e-05
5.466e-05
5.118e-05
4.803e-05
4.519e-05
4.262e-05
4.029e-05
3.817e-05
3.622e-05
3.443e-05
3.277e-05
3.122e-05
2.977e-05
2.84e-05
2.71e-05
2.587e-05
2.47e-05
2.358e-05
2.251e-05
2.149e-05
2.051e-05
1.957e-05
1.866e-05
1.779e-05
1.696e-05
1.615e-05
1.537e-05
1.461e-05
1.388e-05
1.318e-05
1.249e-05
1.182e-05
1.117e-05
1.054e-05
9.916e-06
9.31e-06
8.717e-06
8.136e-06
7.564e-06
7.002e-06
6.448e-06
5.902e-06
5.362e-06
4.828e-06
4.299e-06
3.773e-06
3.25e-06
2.729e-06
2.209e-06
1.687e-06
1.162e-06
6.319e-07
1.524e-07
0.0002499
0.0002515
0.0002527
0.0002535
0.0002538
0.0002537
0.0002533
0.0002528
0.0002522
0.0002515
0.0002508
0.0002501
0.0002494
0.0002487
0.000248
0.0002474
0.0002467
0.0002461
0.0002454
0.0002448
0.0002441
0.0002434
0.0002427
0.000242
0.0002413
0.0002406
0.0002398
0.000239
0.0002382
0.0002374
0.0002366
0.0002357
0.0002348
0.0002339
0.0002329
0.0002319
0.0002309
0.0002298
0.0002286
0.0002274
0.0002262
0.0002249
0.0002234
0.0002219
0.0002203
0.0002186
0.0002167
0.0002146
0.0002123
0.0002097
0.0002069
0.0002036
0.0002
0.0001959
0.0001914
0.0001863
0.0001807
0.0001747
0.0001681
0.0001611
0.0001537
0.0001459
0.0001379
0.0001298
0.0001218
0.0001141
0.0001068
9.973e-05
9.301e-05
8.659e-05
8.05e-05
7.477e-05
6.94e-05
6.443e-05
5.986e-05
5.569e-05
5.193e-05
4.856e-05
4.555e-05
4.285e-05
4.044e-05
3.828e-05
3.631e-05
3.452e-05
3.287e-05
3.134e-05
2.991e-05
2.856e-05
2.729e-05
2.608e-05
2.493e-05
2.384e-05
2.278e-05
2.178e-05
2.081e-05
1.988e-05
1.899e-05
1.813e-05
1.73e-05
1.65e-05
1.572e-05
1.497e-05
1.425e-05
1.355e-05
1.286e-05
1.22e-05
1.156e-05
1.093e-05
1.031e-05
9.711e-06
9.123e-06
8.546e-06
7.98e-06
7.423e-06
6.875e-06
6.334e-06
5.801e-06
5.273e-06
4.751e-06
4.233e-06
3.719e-06
3.207e-06
2.698e-06
2.188e-06
1.678e-06
1.166e-06
6.486e-07
1.706e-07
0.0002485
0.00025
0.0002512
0.000252
0.0002524
0.0002524
0.0002522
0.0002518
0.0002513
0.0002507
0.0002501
0.0002495
0.0002489
0.0002482
0.0002476
0.000247
0.0002464
0.0002458
0.0002452
0.0002446
0.000244
0.0002433
0.0002427
0.000242
0.0002414
0.0002407
0.00024
0.0002393
0.0002385
0.0002378
0.000237
0.0002362
0.0002354
0.0002345
0.0002336
0.0002327
0.0002317
0.0002307
0.0002297
0.0002286
0.0002274
0.0002262
0.000225
0.0002236
0.0002222
0.0002206
0.0002189
0.000217
0.0002149
0.0002126
0.0002099
0.0002069
0.0002035
0.0001995
0.0001951
0.0001901
0.0001844
0.0001782
0.0001713
0.0001639
0.000156
0.0001476
0.0001388
0.0001299
0.000121
0.0001126
0.0001047
9.717e-05
9.008e-05
8.338e-05
7.71e-05
7.125e-05
6.584e-05
6.087e-05
5.635e-05
5.228e-05
4.865e-05
4.544e-05
4.262e-05
4.012e-05
3.792e-05
3.595e-05
3.418e-05
3.256e-05
3.108e-05
2.97e-05
2.841e-05
2.719e-05
2.603e-05
2.492e-05
2.386e-05
2.285e-05
2.187e-05
2.093e-05
2.003e-05
1.916e-05
1.832e-05
1.751e-05
1.672e-05
1.596e-05
1.523e-05
1.452e-05
1.383e-05
1.316e-05
1.251e-05
1.187e-05
1.125e-05
1.065e-05
1.005e-05
9.475e-06
8.907e-06
8.349e-06
7.8e-06
7.26e-06
6.728e-06
6.203e-06
5.684e-06
5.171e-06
4.662e-06
4.157e-06
3.656e-06
3.157e-06
2.66e-06
2.164e-06
1.667e-06
1.168e-06
6.663e-07
1.904e-07
0.0002473
0.0002487
0.0002499
0.0002507
0.0002511
0.0002513
0.0002512
0.0002509
0.0002505
0.0002501
0.0002495
0.000249
0.0002484
0.0002479
0.0002473
0.0002467
0.0002462
0.0002456
0.000245
0.0002445
0.0002439
0.0002433
0.0002427
0.0002421
0.0002415
0.0002409
0.0002402
0.0002396
0.0002389
0.0002382
0.0002375
0.0002367
0.000236
0.0002352
0.0002344
0.0002335
0.0002327
0.0002318
0.0002308
0.0002299
0.0002289
0.0002278
0.0002267
0.0002255
0.0002242
0.0002229
0.0002214
0.0002198
0.0002179
0.0002159
0.0002135
0.0002108
0.0002076
0.0002039
0.0001997
0.0001948
0.0001893
0.000183
0.000176
0.0001682
0.0001597
0.0001504
0.0001405
0.0001301
0.0001198
0.0001103
0.0001015
9.339e-05
8.592e-05
7.898e-05
7.258e-05
6.673e-05
6.137e-05
5.649e-05
5.211e-05
4.822e-05
4.48e-05
4.182e-05
3.924e-05
3.7e-05
3.505e-05
3.332e-05
3.178e-05
3.037e-05
2.908e-05
2.787e-05
2.674e-05
2.565e-05
2.462e-05
2.363e-05
2.267e-05
2.175e-05
2.085e-05
1.999e-05
1.916e-05
1.835e-05
1.757e-05
1.682e-05
1.608e-05
1.537e-05
1.468e-05
1.401e-05
1.336e-05
1.273e-05
1.211e-05
1.15e-05
1.091e-05
1.033e-05
9.768e-06
9.213e-06
8.667e-06
8.13e-06
7.601e-06
7.08e-06
6.566e-06
6.057e-06
5.555e-06
5.056e-06
4.563e-06
4.073e-06
3.585e-06
3.101e-06
2.618e-06
2.136e-06
1.654e-06
1.17e-06
6.847e-07
2.116e-07
0.0002462
0.0002476
0.0002487
0.0002495
0.00025
0.0002503
0.0002503
0.0002501
0.0002499
0.0002495
0.000249
0.0002485
0.000248
0.0002475
0.000247
0.0002465
0.000246
0.0002454
0.0002449
0.0002444
0.0002439
0.0002433
0.0002428
0.0002422
0.0002417
0.0002411
0.0002405
0.0002399
0.0002393
0.0002387
0.000238
0.0002373
0.0002367
0.000236
0.0002352
0.0002345
0.0002337
0.0002329
0.0002321
0.0002312
0.0002304
0.0002295
0.0002285
0.0002275
0.0002265
0.0002253
0.0002241
0.0002228
0.0002213
0.0002196
0.0002176
0.0002152
0.0002125
0.0002092
0.0002053
0.0002008
0.0001956
0.0001895
0.0001826
0.0001747
0.0001657
0.0001554
0.0001435
0.0001306
0.0001178
0.0001062
9.621e-05
8.753e-05
7.986e-05
7.292e-05
6.665e-05
6.101e-05
5.588e-05
5.124e-05
4.712e-05
4.35e-05
4.037e-05
3.771e-05
3.545e-05
3.352e-05
3.188e-05
3.044e-05
2.916e-05
2.799e-05
2.691e-05
2.59e-05
2.493e-05
2.4e-05
2.31e-05
2.223e-05
2.138e-05
2.055e-05
1.975e-05
1.897e-05
1.822e-05
1.748e-05
1.677e-05
1.607e-05
1.539e-05
1.473e-05
1.409e-05
1.347e-05
1.285e-05
1.226e-05
1.168e-05
1.111e-05
1.055e-05
9.998e-06
9.459e-06
8.93e-06
8.408e-06
7.894e-06
7.387e-06
6.886e-06
6.391e-06
5.9e-06
5.415e-06
4.933e-06
4.456e-06
3.981e-06
3.509e-06
3.04e-06
2.572e-06
2.105e-06
1.639e-06
1.172e-06
7.037e-07
2.339e-07
0.0002453
0.0002466
0.0002477
0.0002486
0.0002491
0.0002494
0.0002495
0.0002494
0.0002492
0.0002489
0.0002486
0.0002482
0.0002477
0.0002472
0.0002468
0.0002463
0.0002458
0.0002453
0.0002449
0.0002444
0.0002439
0.0002434
0.0002429
0.0002424
0.0002419
0.0002414
0.0002408
0.0002403
0.0002397
0.0002392
0.0002386
0.000238
0.0002374
0.0002368
0.0002361
0.0002355
0.0002348
0.0002341
0.0002334
0.0002327
0.000232
0.0002312
0.0002304
0.0002296
0.0002288
0.0002279
0.000227
0.000226
0.0002249
0.0002236
0.000222
0.0002202
0.0002179
0.0002152
0.0002119
0.000208
0.0002034
0.0001981
0.0001919
0.0001847
0.0001762
0.0001649
0.0001498
0.0001315
0.0001133
9.849e-05
8.695e-05
7.828e-05
7.119e-05
6.469e-05
5.9e-05
5.398e-05
4.934e-05
4.513e-05
4.141e-05
3.818e-05
3.544e-05
3.316e-05
3.129e-05
2.975e-05
2.846e-05
2.734e-05
2.636e-05
2.546e-05
2.461e-05
2.38e-05
2.301e-05
2.224e-05
2.149e-05
2.074e-05
2.001e-05
1.929e-05
1.859e-05
1.79e-05
1.722e-05
1.656e-05
1.591e-05
1.528e-05
1.466e-05
1.406e-05
1.346e-05
1.289e-05
1.232e-05
1.177e-05
1.122e-05
1.069e-05
1.016e-05
9.643e-06
9.134e-06
8.632e-06
8.136e-06
7.646e-06
7.161e-06
6.682e-06
6.206e-06
5.735e-06
5.268e-06
4.804e-06
4.343e-06
3.884e-06
3.428e-06
2.975e-06
2.523e-06
2.072e-06
1.622e-06
1.173e-06
7.229e-07
2.568e-07
0.0002446
0.0002458
0.0002469
0.0002477
0.0002483
0.0002487
0.0002488
0.0002488
0.0002487
0.0002485
0.0002482
0.0002478
0.0002474
0.000247
0.0002466
0.0002462
0.0002457
0.0002453
0.0002448
0.0002444
0.0002439
0.0002435
0.000243
0.0002426
0.0002421
0.0002416
0.0002412
0.0002407
0.0002402
0.0002397
0.0002392
0.0002387
0.0002381
0.0002376
0.0002371
0.0002365
0.0002359
0.0002354
0.0002348
0.0002342
0.0002336
0.000233
0.0002324
0.0002318
0.0002312
0.0002306
0.00023
0.0002293
0.0002286
0.0002277
0.0002267
0.0002254
0.0002238
0.0002217
0.0002192
0.0002162
0.0002127
0.0002087
0.0002044
0.0001983
0.0001905
0.0001817
0.0001652
0.0001339
0.0001016
8.34e-05
7.362e-05
6.718e-05
6.031e-05
5.392e-05
4.955e-05
4.567e-05
4.189e-05
3.832e-05
3.512e-05
3.237e-05
3.01e-05
2.829e-05
2.687e-05
2.576e-05
2.487e-05
2.411e-05
2.345e-05
2.283e-05
2.223e-05
2.163e-05
2.103e-05
2.043e-05
1.982e-05
1.921e-05
1.86e-05
1.799e-05
1.738e-05
1.678e-05
1.619e-05
1.56e-05
1.503e-05
1.446e-05
1.39e-05
1.335e-05
1.282e-05
1.229e-05
1.177e-05
1.126e-05
1.075e-05
1.025e-05
9.763e-06
9.278e-06
8.799e-06
8.325e-06
7.855e-06
7.39e-06
6.929e-06
6.471e-06
6.017e-06
5.565e-06
5.116e-06
4.67e-06
4.226e-06
3.785e-06
3.345e-06
2.908e-06
2.472e-06
2.037e-06
1.605e-06
1.173e-06
7.422e-07
2.8e-07
0.000244
0.0002451
0.0002462
0.000247
0.0002476
0.000248
0.0002482
0.0002483
0.0002482
0.0002481
0.0002478
0.0002475
0.0002472
0.0002468
0.0002465
0.0002461
0.0002457
0.0002453
0.0002448
0.0002444
0.000244
0.0002436
0.0002432
0.0002428
0.0002424
0.000242
0.0002415
0.0002411
0.0002407
0.0002402
0.0002398
0.0002394
0.0002389
0.0002385
0.000238
0.0002376
0.0002371
0.0002366
0.0002362
0.0002357
0.0002353
0.0002348
0.0002344
0.000234
0.0002337
0.0002333
0.000233
0.0002327
0.0002324
0.000232
0.0002315
0.0002308
0.0002298
0.0002284
0.0002267
0.0002246
0.0002225
0.0002202
0.0002168
0.0002161
0.0002052
0.0001633
0.0001383
0.0001267
0.0001134
0.0001089
8.583e-05
5.652e-05
4.633e-05
4.309e-05
3.948e-05
3.657e-05
3.393e-05
3.112e-05
2.853e-05
2.631e-05
2.454e-05
2.323e-05
2.231e-05
2.166e-05
2.12e-05
2.083e-05
2.05e-05
2.017e-05
1.982e-05
1.944e-05
1.903e-05
1.859e-05
1.813e-05
1.766e-05
1.716e-05
1.666e-05
1.616e-05
1.565e-05
1.514e-05
1.463e-05
1.413e-05
1.363e-05
1.313e-05
1.264e-05
1.216e-05
1.168e-05
1.121e-05
1.074e-05
1.028e-05
9.816e-06
9.36e-06
8.908e-06
8.46e-06
8.014e-06
7.572e-06
7.132e-06
6.694e-06
6.259e-06
5.825e-06
5.393e-06
4.964e-06
4.535e-06
4.109e-06
3.684e-06
3.261e-06
2.84e-06
2.42e-06
2.002e-06
1.586e-06
1.173e-06
7.611e-07
3.03e-07
0.0002434
0.0002445
0.0002456
0.0002464
0.000247
0.0002474
0.0002477
0.0002478
0.0002478
0.0002477
0.0002475
0.0002473
0.000247
0.0002467
0.0002464
0.000246
0.0002456
0.0002453
0.0002449
0.0002445
0.0002441
0.0002438
0.0002434
0.000243
0.0002426
0.0002423
0.0002419
0.0002415
0.0002412
0.0002408
0.0002404
0.0002401
0.0002397
0.0002393
0.000239
0.0002386
0.0002382
0.0002379
0.0002375
0.0002372
0.0002369
0.0002366
0.0002364
0.0002362
0.000236
0.0002359
0.0002359
0.0002359
0.000236
0.0002361
0.0002361
0.000236
0.0002356
0.0002348
0.0002337
0.0002323
0.0002309
0.0002298
0.0002262
0.0001994
0.0001607
0.0001264
0.0001087
0.0001187
0.0001268
0.0001331
0.0001147
9.451e-05
8.074e-05
3.722e-05
2.92e-05
2.941e-05
2.616e-05
2.4e-05
2.198e-05
2.023e-05
1.895e-05
1.815e-05
1.774e-05
1.759e-05
1.756e-05
1.758e-05
1.758e-05
1.754e-05
1.743e-05
1.727e-05
1.705e-05
1.677e-05
1.646e-05
1.611e-05
1.574e-05
1.534e-05
1.494e-05
1.452e-05
1.409e-05
1.367e-05
1.323e-05
1.28e-05
1.237e-05
1.194e-05
1.151e-05
1.108e-05
1.065e-05
1.023e-05
9.805e-06
9.383e-06
8.962e-06
8.543e-06
8.125e-06
7.708e-06
7.292e-06
6.877e-06
6.462e-06
6.049e-06
5.636e-06
5.224e-06
4.812e-06
4.402e-06
3.993e-06
3.585e-06
3.178e-06
2.772e-06
2.369e-06
1.967e-06
1.568e-06
1.172e-06
7.796e-07
3.256e-07
0.000243
0.000244
0.000245
0.0002458
0.0002465
0.0002469
0.0002473
0.0002474
0.0002475
0.0002474
0.0002473
0.0002471
0.0002469
0.0002466
0.0002463
0.000246