/*--------------------------------*- C++ -*----------------------------------*\
  =========                 |
  \\      /  F ield         | OpenFOAM: The Open Source CFD Toolbox
   \\    /   O peration     | Website:  https://openfoam.org
    \\  /    A nd           | Version:  7
     \\/     M anipulation  |
\*---------------------------------------------------------------------------*/
FoamFile
{
    version     2.0;
    format      ascii;
    class       surfaceScalarField;
    location    "1199.99947341444067";
    object      phi;
}
// * * * * * * * * * * * * * * * * * * * * * * * * * * * * * * * * * * * * * //

dimensions      [0 3 -1 0 0 0 0];

internalField   nonuniform List<scalar> 
8032
(
6.857e-10
2.518e-10
4.804e-10
2.053e-10
3.48e-10
1.324e-10
2.643e-10
8.372e-11
2.101e-10
5.416e-11
1.738e-10
3.637e-11
1.483e-10
2.55e-11
1.296e-10
1.864e-11
1.155e-10
1.413e-11
1.045e-10
1.102e-11
9.568e-11
8.785e-12
8.856e-11
7.122e-12
8.271e-11
5.844e-12
7.788e-11
4.836e-12
7.385e-11
4.024e-12
7.05e-11
3.357e-12
6.77e-11
2.799e-12
6.537e-11
2.325e-12
6.346e-11
1.916e-12
6.19e-11
1.558e-12
6.066e-11
1.241e-12
5.97e-11
9.548e-13
5.901e-11
6.933e-13
5.856e-11
4.507e-13
5.834e-11
2.223e-13
5.833e-11
3.919e-15
5.854e-11
-2.078e-13
5.896e-11
-4.158e-13
5.958e-11
-6.228e-13
6.041e-11
-8.31e-13
6.145e-11
-1.043e-12
6.271e-11
-1.259e-12
6.42e-11
-1.483e-12
6.591e-11
-1.714e-12
6.786e-11
-1.954e-12
7.007e-11
-2.204e-12
7.253e-11
-2.464e-12
7.527e-11
-2.735e-12
7.828e-11
-3.014e-12
8.159e-11
-3.303e-12
8.518e-11
-3.598e-12
8.908e-11
-3.899e-12
9.328e-11
-4.201e-12
9.779e-11
-4.502e-12
1.026e-10
-4.796e-12
1.077e-10
-5.079e-12
1.13e-10
-5.343e-12
1.186e-10
-5.583e-12
1.244e-10
-5.789e-12
1.303e-10
-5.953e-12
1.364e-10
-6.066e-12
1.425e-10
-6.119e-12
1.486e-10
-6.102e-12
1.546e-10
-6.009e-12
1.605e-10
-5.831e-12
1.66e-10
-5.563e-12
1.712e-10
-5.202e-12
1.76e-10
-4.747e-12
1.802e-10
-4.202e-12
1.837e-10
-3.574e-12
1.866e-10
-2.872e-12
1.887e-10
-2.11e-12
1.9e-10
-1.306e-12
1.905e-10
-4.79e-13
1.902e-10
3.512e-13
1.89e-10
1.165e-12
1.871e-10
1.943e-12
1.844e-10
2.671e-12
1.81e-10
3.336e-12
1.771e-10
3.929e-12
1.727e-10
4.444e-12
1.678e-10
4.878e-12
1.626e-10
5.23e-12
1.571e-10
5.501e-12
1.514e-10
5.695e-12
1.455e-10
5.816e-12
1.397e-10
5.87e-12
1.338e-10
5.862e-12
1.28e-10
5.799e-12
1.223e-10
5.688e-12
1.168e-10
5.536e-12
1.114e-10
5.35e-12
1.063e-10
5.137e-12
1.014e-10
4.903e-12
9.675e-11
4.654e-12
9.235e-11
4.396e-12
8.822e-11
4.133e-12
8.435e-11
3.868e-12
8.075e-11
3.606e-12
7.74e-11
3.35e-12
7.43e-11
3.101e-12
7.144e-11
2.861e-12
6.88e-11
2.632e-12
6.639e-11
2.415e-12
6.418e-11
2.21e-12
6.216e-11
2.018e-12
6.032e-11
1.838e-12
5.865e-11
1.671e-12
5.714e-11
1.515e-12
5.577e-11
1.372e-12
5.453e-11
1.24e-12
5.341e-11
1.119e-12
5.24e-11
1.008e-12
5.149e-11
9.06e-13
5.068e-11
8.134e-13
4.995e-11
7.291e-13
4.93e-11
6.526e-13
4.871e-11
5.832e-13
4.819e-11
5.204e-13
4.773e-11
4.637e-13
4.732e-11
4.127e-13
4.695e-11
3.668e-13
4.663e-11
3.258e-13
4.634e-11
2.893e-13
4.608e-11
2.569e-13
4.585e-11
2.285e-13
4.565e-11
2.038e-13
4.546e-11
1.829e-13
4.53e-11
1.657e-13
4.515e-11
1.524e-13
4.5e-11
1.433e-13
4.486e-11
1.39e-13
4.472e-11
1.409e-13
4.457e-11
1.511e-13
4.44e-11
1.742e-13
4.418e-11
2.174e-13
4.389e-11
2.888e-13
3.752e-13
9.523e-10
2.37e-10
8.501e-10
3.075e-10
7.275e-10
2.55e-10
6.183e-10
1.929e-10
5.294e-10
1.43e-10
4.593e-10
1.065e-10
4.042e-10
8.052e-11
3.608e-10
6.213e-11
3.26e-10
4.889e-11
2.979e-10
3.914e-11
2.749e-10
3.18e-11
2.558e-10
2.613e-11
2.4e-10
2.166e-11
2.268e-10
1.807e-11
2.157e-10
1.513e-11
2.064e-10
1.268e-11
1.985e-10
1.062e-11
1.92e-10
8.85e-12
1.866e-10
7.315e-12
1.822e-10
5.965e-12
1.787e-10
4.761e-12
1.76e-10
3.672e-12
1.74e-10
2.674e-12
1.727e-10
1.747e-12
1.721e-10
8.716e-13
1.72e-10
3.473e-14
1.726e-10
-7.766e-13
1.737e-10
-1.573e-12
1.755e-10
-2.365e-12
1.778e-10
-3.161e-12
1.807e-10
-3.968e-12
1.843e-10
-4.792e-12
1.884e-10
-5.639e-12
1.932e-10
-6.514e-12
1.987e-10
-7.421e-12
2.049e-10
-8.361e-12
2.117e-10
-9.335e-12
2.193e-10
-1.034e-11
2.277e-10
-1.139e-11
2.369e-10
-1.245e-11
2.468e-10
-1.355e-11
2.576e-10
-1.465e-11
2.691e-10
-1.576e-11
2.815e-10
-1.686e-11
2.946e-10
-1.793e-11
3.085e-10
-1.895e-11
3.23e-10
-1.989e-11
3.382e-10
-2.074e-11
3.539e-10
-2.147e-11
3.699e-10
-2.203e-11
3.863e-10
-2.241e-11
4.027e-10
-2.256e-11
4.191e-10
-2.246e-11
4.352e-10
-2.208e-11
4.507e-10
-2.139e-11
4.655e-10
-2.038e-11
4.794e-10
-1.904e-11
4.92e-10
-1.736e-11
5.031e-10
-1.536e-11
5.126e-10
-1.306e-11
5.202e-10
-1.05e-11
5.259e-10
-7.727e-12
5.294e-10
-4.807e-12
5.307e-10
-1.804e-12
5.298e-10
1.212e-12
5.268e-10
4.172e-12
5.218e-10
7.011e-12
5.148e-10
9.674e-12
5.06e-10
1.212e-11
4.956e-10
1.43e-11
4.838e-10
1.621e-11
4.709e-10
1.783e-11
4.569e-10
1.916e-11
4.423e-10
2.019e-11
4.27e-10
2.095e-11
4.114e-10
2.143e-11
3.956e-10
2.167e-11
3.798e-10
2.169e-11
3.641e-10
2.149e-11
3.486e-10
2.113e-11
3.336e-10
2.06e-11
3.19e-10
1.995e-11
3.049e-10
1.92e-11
2.914e-10
1.836e-11
2.786e-10
1.746e-11
2.665e-10
1.653e-11
2.551e-10
1.557e-11
2.443e-10
1.46e-11
2.343e-10
1.364e-11
2.25e-10
1.269e-11
2.163e-10
1.177e-11
2.083e-10
1.088e-11
2.009e-10
1.003e-11
1.941e-10
9.222e-12
1.878e-10
8.455e-12
1.821e-10
7.733e-12
1.769e-10
7.057e-12
1.721e-10
6.427e-12
1.678e-10
5.841e-12
1.639e-10
5.298e-12
1.603e-10
4.797e-12
1.571e-10
4.336e-12
1.542e-10
3.913e-12
1.516e-10
3.525e-12
1.492e-10
3.171e-12
1.471e-10
2.848e-12
1.452e-10
2.554e-12
1.435e-10
2.288e-12
1.42e-10
2.046e-12
1.406e-10
1.827e-12
1.394e-10
1.63e-12
1.383e-10
1.453e-12
1.373e-10
1.294e-12
1.365e-10
1.152e-12
1.357e-10
1.026e-12
1.35e-10
9.15e-13
1.344e-10
8.186e-13
1.339e-10
7.364e-13
1.333e-10
6.682e-13
1.329e-10
6.144e-13
1.325e-10
5.759e-13
1.32e-10
5.541e-13
1.316e-10
5.516e-13
1.312e-10
5.722e-13
1.308e-10
6.216e-13
1.303e-10
7.064e-13
1.297e-10
8.252e-13
9.374e-13
9.779e-10
1.966e-10
9.637e-10
3.217e-10
9.013e-10
3.175e-10
8.212e-10
2.73e-10
7.41e-10
2.233e-10
6.68e-10
1.794e-10
6.047e-10
1.439e-10
5.509e-10
1.16e-10
5.054e-10
9.431e-11
4.672e-10
7.739e-11
4.349e-10
6.405e-11
4.077e-10
5.339e-11
3.846e-10
4.475e-11
3.65e-10
3.765e-11
3.484e-10
3.174e-11
3.343e-10
2.676e-11
3.225e-10
2.25e-11
3.125e-10
1.882e-11
3.042e-10
1.561e-11
2.974e-10
1.276e-11
2.92e-10
1.02e-11
2.877e-10
7.883e-12
2.847e-10
5.747e-12
2.827e-10
3.756e-12
2.817e-10
1.873e-12
2.816e-10
6.955e-14
2.825e-10
-1.681e-12
2.844e-10
-3.4e-12
2.871e-10
-5.109e-12
2.908e-10
-6.825e-12
2.954e-10
-8.563e-12
3.009e-10
-1.034e-11
3.074e-10
-1.216e-11
3.149e-10
-1.403e-11
3.235e-10
-1.597e-11
3.331e-10
-1.798e-11
3.438e-10
-2.006e-11
3.557e-10
-2.221e-11
3.687e-10
-2.442e-11
3.83e-10
-2.669e-11
3.984e-10
-2.899e-11
4.151e-10
-3.133e-11
4.33e-10
-3.366e-11
4.521e-10
-3.596e-11
4.724e-10
-3.819e-11
4.937e-10
-4.032e-11
5.161e-10
-4.228e-11
5.394e-10
-4.404e-11
5.635e-10
-4.552e-11
5.881e-10
-4.667e-11
6.131e-10
-4.742e-11
6.383e-10
-4.77e-11
6.632e-10
-4.744e-11
6.878e-10
-4.66e-11
7.115e-10
-4.511e-11
7.34e-10
-4.295e-11
7.551e-10
-4.009e-11
7.743e-10
-3.654e-11
7.912e-10
-3.232e-11
8.057e-10
-2.748e-11
8.173e-10
-2.211e-11
8.258e-10
-1.63e-11
8.312e-10
-1.017e-11
8.333e-10
-3.875e-12
8.32e-10
2.451e-12
8.275e-10
8.663e-12
8.199e-10
1.463e-11
8.094e-10
2.023e-11
7.961e-10
2.538e-11
7.804e-10
3.001e-11
7.625e-10
3.406e-11
7.429e-10
3.75e-11
7.217e-10
4.034e-11
6.993e-10
4.257e-11
6.761e-10
4.421e-11
6.522e-10
4.529e-11
6.28e-10
4.585e-11
6.038e-10
4.593e-11
5.797e-10
4.559e-11
5.56e-10
4.486e-11
5.328e-10
4.38e-11
5.102e-10
4.247e-11
4.885e-10
4.092e-11
4.677e-10
3.918e-11
4.478e-10
3.732e-11
4.29e-10
3.536e-11
4.112e-10
3.335e-11
3.945e-10
3.132e-11
3.788e-10
2.929e-11
3.642e-10
2.73e-11
3.507e-10
2.535e-11
3.381e-10
2.347e-11
3.264e-10
2.166e-11
3.157e-10
1.994e-11
3.059e-10
1.83e-11
2.969e-10
1.676e-11
2.886e-10
1.532e-11
2.811e-10
1.397e-11
2.742e-10
1.271e-11
2.679e-10
1.154e-11
2.623e-10
1.047e-11
2.571e-10
9.472e-12
2.525e-10
8.559e-12
2.483e-10
7.722e-12
2.445e-10
6.956e-12
2.411e-10
6.257e-12
2.38e-10
5.619e-12
2.353e-10
5.04e-12
2.328e-10
4.514e-12
2.306e-10
4.039e-12
2.286e-10
3.609e-12
2.269e-10
3.221e-12
2.253e-10
2.874e-12
2.239e-10
2.563e-12
2.226e-10
2.287e-12
2.215e-10
2.043e-12
2.205e-10
1.83e-12
2.196e-10
1.648e-12
2.187e-10
1.495e-12
2.18e-10
1.372e-12
2.173e-10
1.281e-12
2.166e-10
1.222e-12
2.16e-10
1.198e-12
2.153e-10
1.213e-12
2.147e-10
1.27e-12
2.14e-10
1.37e-12
2.133e-10
1.498e-12
1.601e-12
9.752e-10
1.589e-10
9.93e-10
3.039e-10
9.728e-10
3.377e-10
9.269e-10
3.189e-10
8.691e-10
2.811e-10
8.086e-10
2.399e-10
7.505e-10
2.019e-10
6.974e-10
1.691e-10
6.5e-10
1.417e-10
6.083e-10
1.191e-10
5.72e-10
1.004e-10
5.405e-10
8.49e-11
5.132e-10
7.2e-11
4.897e-10
6.115e-11
4.695e-10
5.195e-11
4.522e-10
4.407e-11
4.375e-10
3.725e-11
4.25e-10
3.129e-11
4.146e-10
2.603e-11
4.06e-10
2.133e-11
3.991e-10
1.709e-11
3.938e-10
1.322e-11
3.899e-10
9.633e-12
3.874e-10
6.278e-12
3.861e-10
3.096e-12
3.862e-10
3.971e-14
3.874e-10
-2.931e-12
3.899e-10
-5.853e-12
3.935e-10
-8.759e-12
3.984e-10
-1.168e-11
4.044e-10
-1.463e-11
4.117e-10
-1.764e-11
4.203e-10
-2.073e-11
4.302e-10
-2.392e-11
4.414e-10
-2.72e-11
4.54e-10
-3.06e-11
4.681e-10
-3.41e-11
4.836e-10
-3.772e-11
5.006e-10
-4.144e-11
5.192e-10
-4.525e-11
5.393e-10
-4.911e-11
5.61e-10
-5.301e-11
5.842e-10
-5.69e-11
6.09e-10
-6.073e-11
6.353e-10
-6.445e-11
6.629e-10
-6.797e-11
6.919e-10
-7.122e-11
7.219e-10
-7.412e-11
7.53e-10
-7.655e-11
7.847e-10
-7.841e-11
8.169e-10
-7.961e-11
8.492e-10
-8.002e-11
8.813e-10
-7.954e-11
9.128e-10
-7.807e-11
9.432e-10
-7.555e-11
9.722e-10
-7.19e-11
9.992e-10
-6.709e-11
1.024e-09
-6.114e-11
1.046e-09
-5.408e-11
1.064e-09
-4.599e-11
1.079e-09
-3.702e-11
1.09e-09
-2.732e-11
1.097e-09
-1.71e-11
1.1e-09
-6.59e-12
1.098e-09
3.968e-12
1.092e-09
1.434e-11
1.083e-09
2.431e-11
1.069e-09
3.368e-11
1.052e-09
4.23e-11
1.032e-09
5.006e-11
1.01e-09
5.686e-11
9.843e-10
6.267e-11
9.572e-10
6.747e-11
9.285e-10
7.126e-11
8.987e-10
7.407e-11
8.68e-10
7.595e-11
8.369e-10
7.696e-11
8.057e-10
7.717e-11
7.746e-10
7.666e-11
7.439e-10
7.551e-11
7.139e-10
7.381e-11
6.848e-10
7.163e-11
6.566e-10
6.908e-11
6.296e-10
6.622e-11
6.037e-10
6.314e-11
5.792e-10
5.989e-11
5.56e-10
5.655e-11
5.342e-10
5.316e-11
5.137e-10
4.977e-11
4.946e-10
4.643e-11
4.768e-10
4.317e-11
4.602e-10
4.001e-11
4.449e-10
3.696e-11
4.308e-10
3.406e-11
4.178e-10
3.13e-11
4.058e-10
2.87e-11
3.949e-10
2.625e-11
3.849e-10
2.397e-11
3.758e-10
2.183e-11
3.675e-10
1.985e-11
3.599e-10
1.802e-11
3.531e-10
1.633e-11
3.468e-10
1.477e-11
3.412e-10
1.334e-11
3.361e-10
1.203e-11
3.316e-10
1.084e-11
3.274e-10
9.745e-12
3.237e-10
8.751e-12
3.204e-10
7.848e-12
3.174e-10
7.03e-12
3.147e-10
6.29e-12
3.123e-10
5.623e-12
3.102e-10
5.023e-12
3.082e-10
4.486e-12
3.065e-10
4.007e-12
3.05e-10
3.584e-12
3.036e-10
3.214e-12
3.024e-10
2.894e-12
3.012e-10
2.623e-12
3.002e-10
2.402e-12
2.993e-10
2.23e-12
2.984e-10
2.11e-12
2.975e-10
2.041e-12
2.967e-10
2.027e-12
2.959e-10
2.065e-12
2.951e-10
2.152e-12
2.944e-10
2.264e-12
2.35e-12
9.668e-10
1.296e-10
9.944e-10
2.762e-10
9.979e-10
3.342e-10
9.781e-10
3.387e-10
9.426e-10
3.166e-10
8.988e-10
2.838e-10
8.521e-10
2.486e-10
8.059e-10
2.153e-10
7.623e-10
1.853e-10
7.222e-10
1.592e-10
6.86e-10
1.366e-10
6.536e-10
1.172e-10
6.25e-10
1.006e-10
5.999e-10
8.63e-11
5.779e-10
7.391e-11
5.589e-10
6.311e-11
5.425e-10
5.364e-11
5.285e-10
4.526e-11
5.168e-10
3.778e-11
5.071e-10
3.104e-11
4.993e-10
2.491e-11
4.932e-10
1.927e-11
4.888e-10
1.402e-11
4.86e-10
9.087e-12
4.847e-10
4.388e-12
4.849e-10
-1.377e-13
4.865e-10
-4.549e-12
4.896e-10
-8.895e-12
4.94e-10
-1.322e-11
4.999e-10
-1.757e-11
5.073e-10
-2.197e-11
5.161e-10
-2.646e-11
5.264e-10
-3.106e-11
5.383e-10
-3.579e-11
5.517e-10
-4.067e-11
5.669e-10
-4.571e-11
5.837e-10
-5.091e-11
6.022e-10
-5.627e-11
6.225e-10
-6.177e-11
6.447e-10
-6.738e-11
6.687e-10
-7.309e-11
6.945e-10
-7.883e-11
7.221e-10
-8.455e-11
7.515e-10
-9.017e-11
7.827e-10
-9.561e-11
8.155e-10
-1.008e-10
8.498e-10
-1.055e-10
8.854e-10
-1.097e-10
9.221e-10
-1.133e-10
9.597e-10
-1.16e-10
9.977e-10
-1.177e-10
1.036e-09
-1.182e-10
1.074e-09
-1.174e-10
1.111e-09
-1.152e-10
1.147e-09
-1.115e-10
1.181e-09
-1.061e-10
1.213e-09
-9.898e-11
1.242e-09
-9.02e-11
1.268e-09
-7.979e-11
1.29e-09
-6.788e-11
1.307e-09
-5.466e-11
1.32e-09
-4.037e-11
1.329e-09
-2.532e-11
1.332e-09
-9.848e-12
1.33e-09
5.703e-12
1.323e-09
2.098e-11
1.312e-09
3.567e-11
1.296e-09
4.948e-11
1.276e-09
6.22e-11
1.253e-09
7.365e-11
1.226e-09
8.371e-11
1.196e-09
9.231e-11
1.164e-09
9.943e-11
1.131e-09
1.051e-10
1.095e-09
1.093e-10
1.059e-09
1.122e-10
1.022e-09
1.137e-10
9.854e-10
1.141e-10
9.486e-10
1.134e-10
9.123e-10
1.118e-10
8.767e-10
1.094e-10
8.421e-10
1.063e-10
8.086e-10
1.025e-10
7.765e-10
9.839e-11
7.457e-10
9.388e-11
7.165e-10
8.913e-11
6.888e-10
8.423e-11
6.627e-10
7.926e-11
6.382e-10
7.428e-11
6.152e-10
6.936e-11
5.939e-10
6.454e-11
5.74e-10
5.987e-11
5.556e-10
5.537e-11
5.386e-10
5.107e-11
5.229e-10
4.698e-11
5.085e-10
4.312e-11
4.953e-10
3.948e-11
4.832e-10
3.608e-11
4.721e-10
3.29e-11
4.62e-10
2.995e-11
4.528e-10
2.721e-11
4.445e-10
2.468e-11
4.369e-10
2.235e-11
4.3e-10
2.021e-11
4.238e-10
1.824e-11
4.182e-10
1.645e-11
4.131e-10
1.48e-11
4.086e-10
1.331e-11
4.045e-10
1.195e-11
4.008e-10
1.072e-11
3.975e-10
9.599e-12
3.945e-10
8.591e-12
3.919e-10
7.683e-12
3.895e-10
6.869e-12
3.873e-10
6.142e-12
3.854e-10
5.498e-12
3.837e-10
4.931e-12
3.822e-10
4.44e-12
3.808e-10
4.02e-12
3.795e-10
3.671e-12
3.783e-10
3.393e-12
3.773e-10
3.184e-12
3.763e-10
3.045e-12
3.753e-10
2.975e-12
3.744e-10
2.971e-12
3.735e-10
3.021e-12
3.727e-10
3.102e-12
3.166e-12
9.592e-10
1.079e-10
9.876e-10
2.478e-10
1.003e-09
3.19e-10
1e-09
3.412e-10
9.827e-10
3.342e-10
9.547e-10
3.117e-10
9.207e-10
2.826e-10
8.842e-10
2.519e-10
8.474e-10
2.221e-10
8.119e-10
1.946e-10
7.787e-10
1.698e-10
7.481e-10
1.478e-10
7.203e-10
1.284e-10
6.955e-10
1.112e-10
6.734e-10
9.598e-11
6.54e-10
8.251e-11
6.371e-10
7.052e-11
6.226e-10
5.977e-11
6.103e-10
5.006e-11
6.001e-10
4.123e-11
5.919e-10
3.313e-11
5.855e-10
2.563e-11
5.81e-10
1.86e-11
5.781e-10
1.195e-11
5.769e-10
5.598e-12
5.773e-10
-5.47e-13
5.793e-10
-6.552e-12
5.829e-10
-1.248e-11
5.881e-10
-1.839e-11
5.948e-10
-2.434e-11
6.032e-10
-3.037e-11
6.133e-10
-3.651e-11
6.25e-10
-4.28e-11
6.385e-10
-4.928e-11
6.538e-10
-5.595e-11
6.709e-10
-6.283e-11
6.899e-10
-6.993e-11
7.109e-10
-7.723e-11
7.339e-10
-8.472e-11
7.588e-10
-9.237e-11
7.859e-10
-1.001e-10
8.15e-10
-1.079e-10
8.461e-10
-1.157e-10
8.792e-10
-1.233e-10
9.142e-10
-1.307e-10
9.511e-10
-1.376e-10
9.896e-10
-1.44e-10
1.03e-09
-1.497e-10
1.071e-09
-1.545e-10
1.113e-09
-1.581e-10
1.156e-09
-1.604e-10
1.199e-09
-1.611e-10
1.241e-09
-1.6e-10
1.283e-09
-1.57e-10
1.323e-09
-1.519e-10
1.362e-09
-1.445e-10
1.398e-09
-1.349e-10
1.43e-09
-1.229e-10
1.459e-09
-1.088e-10
1.484e-09
-9.255e-11
1.504e-09
-7.455e-11
1.519e-09
-5.511e-11
1.528e-09
-3.462e-11
1.532e-09
-1.355e-11
1.53e-09
7.624e-12
1.522e-09
2.842e-11
1.509e-09
4.841e-11
1.492e-09
6.721e-11
1.469e-09
8.452e-11
1.443e-09
1.001e-10
1.413e-09
1.138e-10
1.38e-09
1.256e-10
1.344e-09
1.353e-10
1.306e-09
1.43e-10
1.266e-09
1.488e-10
1.226e-09
1.528e-10
1.184e-09
1.55e-10
1.143e-09
1.556e-10
1.102e-09
1.548e-10
1.061e-09
1.526e-10
1.021e-09
1.494e-10
9.818e-10
1.452e-10
9.441e-10
1.402e-10
9.079e-10
1.346e-10
8.732e-10
1.286e-10
8.402e-10
1.221e-10
8.089e-10
1.155e-10
7.794e-10
1.088e-10
7.517e-10
1.02e-10
7.257e-10
9.533e-11
7.015e-10
8.878e-11
6.789e-10
8.242e-11
6.58e-10
7.629e-11
6.386e-10
7.042e-11
6.208e-10
6.484e-11
6.043e-10
5.956e-11
5.892e-10
5.458e-11
5.754e-10
4.992e-11
5.627e-10
4.556e-11
5.512e-10
4.151e-11
5.406e-10
3.775e-11
5.31e-10
3.427e-11
5.223e-10
3.106e-11
5.144e-10
2.811e-11
5.073e-10
2.54e-11
5.008e-10
2.292e-11
4.949e-10
2.065e-11
4.897e-10
1.859e-11
4.849e-10
1.67e-11
4.806e-10
1.499e-11
4.768e-10
1.344e-11
4.733e-10
1.204e-11
4.702e-10
1.078e-11
4.675e-10
9.647e-12
4.65e-10
8.633e-12
4.627e-10
7.732e-12
4.607e-10
6.937e-12
4.589e-10
6.242e-12
4.573e-10
5.645e-12
4.558e-10
5.142e-12
4.545e-10
4.731e-12
4.533e-10
4.41e-12
4.521e-10
4.177e-12
4.511e-10
4.029e-12
4.501e-10
3.959e-12
4.491e-10
3.955e-12
4.483e-10
3.993e-12
4.033e-12
9.536e-10
9.182e-11
9.795e-10
2.219e-10
9.997e-10
2.988e-10
1.008e-09
3.332e-10
1.003e-09
3.388e-10
9.881e-10
3.267e-10
9.659e-10
3.048e-10
9.393e-10
2.785e-10
9.105e-10
2.509e-10
8.813e-10
2.239e-10
8.527e-10
1.984e-10
8.256e-10
1.75e-10
8.003e-10
1.536e-10
7.772e-10
1.343e-10
7.563e-10
1.169e-10
7.376e-10
1.012e-10
7.212e-10
8.692e-11
7.07e-10
7.399e-11
6.949e-10
6.219e-11
6.848e-10
5.134e-11
6.766e-10
4.129e-11
6.703e-10
3.191e-11
6.659e-10
2.307e-11
6.632e-10
1.466e-11
6.622e-10
6.581e-12
6.629e-10
-1.264e-12
6.653e-10
-8.955e-12
6.694e-10
-1.657e-11
6.752e-10
-2.418e-11
6.827e-10
-3.183e-11
6.919e-10
-3.96e-11
7.029e-10
-4.752e-11
7.157e-10
-5.564e-11
7.305e-10
-6.399e-11
7.471e-10
-7.26e-11
7.657e-10
-8.147e-11
7.864e-10
-9.061e-11
8.092e-10
-1e-10
8.341e-10
-1.096e-10
8.612e-10
-1.195e-10
8.905e-10
-1.294e-10
9.22e-10
-1.394e-10
9.558e-10
-1.494e-10
9.916e-10
-1.592e-10
1.03e-09
-1.686e-10
1.069e-09
-1.775e-10
1.111e-09
-1.858e-10
1.155e-09
-1.93e-10
1.199e-09
-1.991e-10
1.245e-09
-2.038e-10
1.291e-09
-2.067e-10
1.338e-09
-2.076e-10
1.384e-09
-2.062e-10
1.429e-09
-2.024e-10
1.473e-09
-1.958e-10
1.515e-09
-1.863e-10
1.554e-09
-1.739e-10
1.59e-09
-1.586e-10
1.621e-09
-1.403e-10
1.648e-09
-1.195e-10
1.67e-09
-9.628e-11
1.686e-09
-7.121e-11
1.696e-09
-4.477e-11
1.7e-09
-1.759e-11
1.698e-09
9.721e-12
1.69e-09
3.654e-11
1.676e-09
6.23e-11
1.657e-09
8.651e-11
1.632e-09
1.088e-10
1.604e-09
1.289e-10
1.571e-09
1.465e-10
1.535e-09
1.616e-10
1.496e-09
1.741e-10
1.455e-09
1.841e-10
1.412e-09
1.916e-10
1.368e-09
1.968e-10
1.323e-09
1.997e-10
1.278e-09
2.006e-10
1.234e-09
1.996e-10
1.189e-09
1.969e-10
1.146e-09
1.928e-10
1.104e-09
1.875e-10
1.063e-09
1.811e-10
1.024e-09
1.74e-10
9.859e-10
1.662e-10
9.5e-10
1.58e-10
9.16e-10
1.495e-10
8.839e-10
1.409e-10
8.538e-10
1.322e-10
8.255e-10
1.236e-10
7.991e-10
1.152e-10
7.745e-10
1.07e-10
7.516e-10
9.912e-11
7.305e-10
9.156e-11
7.11e-10
8.437e-11
6.93e-10
7.755e-11
6.764e-10
7.112e-11
6.613e-10
6.51e-11
6.474e-10
5.946e-11
6.347e-10
5.421e-11
6.231e-10
4.934e-11
6.125e-10
4.483e-11
6.029e-10
4.067e-11
5.942e-10
3.683e-11
5.863e-10
3.331e-11
5.791e-10
3.009e-11
5.726e-10
2.713e-11
5.668e-10
2.444e-11
5.615e-10
2.198e-11
5.567e-10
1.975e-11
5.525e-10
1.772e-11
5.486e-10
1.589e-11
5.452e-10
1.424e-11
5.421e-10
1.275e-11
5.393e-10
1.141e-11
5.368e-10
1.023e-11
5.345e-10
9.176e-12
5.325e-10
8.254e-12
5.307e-10
7.455e-12
5.291e-10
6.774e-12
5.276e-10
6.209e-12
5.263e-10
5.753e-12
5.25e-10
5.405e-12
5.239e-10
5.159e-12
5.229e-10
5.007e-12
5.219e-10
4.935e-12
5.21e-10
4.921e-12
4.933e-12
9.498e-10
7.953e-11
9.725e-10
1.992e-10
9.94e-10
2.773e-10
1.008e-09
3.194e-10
1.012e-09
3.347e-10
1.007e-09
3.316e-10
9.948e-10
3.17e-10
9.774e-10
2.959e-10
9.566e-10
2.716e-10
9.341e-10
2.464e-10
9.11e-10
2.215e-10
8.883e-10
1.977e-10
8.665e-10
1.754e-10
8.461e-10
1.547e-10
8.273e-10
1.357e-10
8.103e-10
1.182e-10
7.952e-10
1.021e-10
7.819e-10
8.726e-11
7.705e-10
7.357e-11
7.61e-10
6.086e-11
7.533e-10
4.898e-11
7.474e-10
3.779e-11
7.433e-10
2.718e-11
7.41e-10
1.703e-11
7.403e-10
7.217e-12
7.414e-10
-2.346e-12
7.442e-10
-1.176e-11
7.487e-10
-2.11e-11
7.55e-10
-3.045e-11
7.631e-10
-3.988e-11
7.729e-10
-4.945e-11
7.846e-10
-5.923e-11
7.982e-10
-6.925e-11
8.138e-10
-7.956e-11
8.313e-10
-9.017e-11
8.51e-10
-1.011e-10
8.728e-10
-1.124e-10
8.968e-10
-1.24e-10
9.23e-10
-1.359e-10
9.515e-10
-1.48e-10
9.823e-10
-1.602e-10
1.015e-09
-1.726e-10
1.051e-09
-1.848e-10
1.089e-09
-1.969e-10
1.129e-09
-2.085e-10
1.171e-09
-2.195e-10
1.214e-09
-2.297e-10
1.26e-09
-2.386e-10
1.307e-09
-2.462e-10
1.355e-09
-2.519e-10
1.404e-09
-2.555e-10
1.453e-09
-2.567e-10
1.502e-09
-2.551e-10
1.55e-09
-2.504e-10
1.597e-09
-2.423e-10
1.641e-09
-2.307e-10
1.682e-09
-2.154e-10
1.72e-09
-1.965e-10
1.754e-09
-1.74e-10
1.783e-09
-1.482e-10
1.806e-09
-1.195e-10
1.823e-09
-8.837e-11
1.834e-09
-5.559e-11
1.838e-09
-2.186e-11
1.836e-09
1.201e-11
1.827e-09
4.524e-11
1.812e-09
7.712e-11
1.792e-09
1.071e-10
1.766e-09
1.346e-10
1.736e-09
1.593e-10
1.701e-09
1.811e-10
1.663e-09
1.998e-10
1.622e-09
2.152e-10
1.578e-09
2.276e-10
1.533e-09
2.369e-10
1.487e-09
2.432e-10
1.439e-09
2.469e-10
1.392e-09
2.48e-10
1.345e-09
2.468e-10
1.298e-09
2.436e-10
1.252e-09
2.385e-10
1.208e-09
2.32e-10
1.165e-09
2.242e-10
1.123e-09
2.155e-10
1.084e-09
2.059e-10
1.046e-09
1.958e-10
1.01e-09
1.854e-10
9.76e-10
1.747e-10
9.442e-10
1.641e-10
9.143e-10
1.535e-10
8.864e-10
1.431e-10
8.604e-10
1.33e-10
8.363e-10
1.233e-10
8.139e-10
1.139e-10
7.932e-10
1.05e-10
7.741e-10
9.661e-11
7.566e-10
8.867e-11
7.405e-10
8.12e-11
7.257e-10
7.423e-11
7.122e-10
6.772e-11
6.999e-10
6.168e-11
6.886e-10
5.608e-11
6.784e-10
5.091e-11
6.691e-10
4.614e-11
6.606e-10
4.176e-11
6.53e-10
3.775e-11
6.46e-10
3.407e-11
6.398e-10
3.071e-11
6.341e-10
2.764e-11
6.29e-10
2.485e-11
6.244e-10
2.232e-11
6.203e-10
2.003e-11
6.166e-10
1.796e-11
6.132e-10
1.609e-11
6.102e-10
1.441e-11
6.075e-10
1.292e-11
6.051e-10
1.159e-11
6.029e-10
1.042e-11
6.01e-10
9.4e-12
5.992e-10
8.524e-12
5.977e-10
7.785e-12
5.962e-10
7.179e-12
5.949e-10
6.699e-12
5.938e-10
6.34e-12
5.927e-10
6.091e-12
5.917e-10
5.94e-12
5.907e-10
5.869e-12
5.85e-12
9.472e-10
6.986e-11
9.669e-10
1.795e-10
9.88e-10
2.562e-10
1.005e-09
3.027e-10
1.015e-09
3.248e-10
1.017e-09
3.292e-10
1.013e-09
3.212e-10
1.003e-09
3.054e-10
9.898e-10
2.85e-10
9.738e-10
2.623e-10
9.564e-10
2.389e-10
9.385e-10
2.156e-10
9.207e-10
1.931e-10
9.037e-10
1.718e-10
8.876e-10
1.517e-10
8.728e-10
1.329e-10
8.595e-10
1.154e-10
8.477e-10
9.906e-11
8.375e-10
8.376e-11
8.289e-10
6.94e-11
8.221e-10
5.586e-11
8.168e-10
4.301e-11
8.133e-10
3.073e-11
8.114e-10
1.89e-11
8.112e-10
7.417e-12
8.127e-10
-3.828e-12
8.159e-10
-1.493e-11
8.208e-10
-2.599e-11
8.274e-10
-3.708e-11
8.358e-10
-4.829e-11
8.461e-10
-5.969e-11
8.582e-10
-7.134e-11
8.722e-10
-8.328e-11
8.882e-10
-9.558e-11
9.063e-10
-1.082e-10
9.265e-10
-1.213e-10
9.489e-10
-1.348e-10
9.735e-10
-1.486e-10
1e-09
-1.628e-10
1.03e-09
-1.772e-10
1.061e-09
-1.918e-10
1.095e-09
-2.066e-10
1.132e-09
-2.212e-10
1.17e-09
-2.356e-10
1.211e-09
-2.495e-10
1.254e-09
-2.626e-10
1.299e-09
-2.748e-10
1.346e-09
-2.855e-10
1.395e-09
-2.946e-10
1.444e-09
-3.015e-10
1.495e-09
-3.06e-10
1.546e-09
-3.075e-10
1.596e-09
-3.056e-10
1.646e-09
-3.001e-10
1.694e-09
-2.906e-10
1.74e-09
-2.768e-10
1.784e-09
-2.587e-10
1.823e-09
-2.361e-10
1.858e-09
-2.091e-10
1.888e-09
-1.782e-10
1.913e-09
-1.437e-10
1.93e-09
-1.063e-10
1.942e-09
-6.685e-11
1.946e-09
-2.625e-11
1.944e-09
1.45e-11
1.934e-09
5.444e-11
1.919e-09
9.27e-11
1.897e-09
1.286e-10
1.87e-09
1.615e-10
1.839e-09
1.911e-10
1.803e-09
2.171e-10
1.763e-09
2.393e-10
1.721e-09
2.578e-10
1.676e-09
2.725e-10
1.629e-09
2.836e-10
1.581e-09
2.912e-10
1.533e-09
2.955e-10
1.484e-09
2.968e-10
1.435e-09
2.955e-10
1.387e-09
2.916e-10
1.34e-09
2.857e-10
1.294e-09
2.779e-10
1.25e-09
2.686e-10
1.207e-09
2.581e-10
1.166e-09
2.468e-10
1.127e-09
2.347e-10
1.09e-09
2.222e-10
1.055e-09
2.096e-10
1.023e-09
1.968e-10
9.92e-10
1.842e-10
9.633e-10
1.718e-10
9.365e-10
1.598e-10
9.117e-10
1.481e-10
8.886e-10
1.37e-10
8.673e-10
1.263e-10
8.477e-10
1.163e-10
8.296e-10
1.068e-10
8.129e-10
9.783e-11
7.977e-10
8.948e-11
7.837e-10
8.168e-11
7.709e-10
7.444e-11
7.593e-10
6.773e-11
7.487e-10
6.152e-11
7.39e-10
5.58e-11
7.303e-10
5.054e-11
7.223e-10
4.57e-11
7.151e-10
4.128e-11
7.086e-10
3.723e-11
7.027e-10
3.354e-11
6.973e-10
3.018e-11
6.925e-10
2.712e-11
6.882e-10
2.435e-11
6.843e-10
2.184e-11
6.808e-10
1.958e-11
6.777e-10
1.755e-11
6.749e-10
1.573e-11
6.724e-10
1.411e-11
6.701e-10
1.268e-11
6.681e-10
1.143e-11
6.662e-10
1.035e-11
6.646e-10
9.421e-12
6.631e-10
8.651e-12
6.618e-10
8.027e-12
6.606e-10
7.543e-12
6.595e-10
7.188e-12
6.585e-10
6.952e-12
6.575e-10
6.818e-12
6.768e-12
9.454e-10
6.201e-11
9.625e-10
1.623e-10
9.825e-10
2.362e-10
1.001e-09
2.846e-10
1.014e-09
3.115e-10
1.021e-09
3.216e-10
1.023e-09
3.193e-10
1.02e-09
3.085e-10
1.013e-09
2.921e-10
1.003e-09
2.723e-10
9.913e-10
2.508e-10
9.782e-10
2.287e-10
9.646e-10
2.067e-10
9.512e-10
1.853e-10
9.382e-10
1.647e-10
9.26e-10
1.451e-10
9.148e-10
1.266e-10
9.048e-10
1.09e-10
8.962e-10
9.243e-11
8.889e-10
7.669e-11
8.83e-10
6.17e-11
8.787e-10
4.736e-11
8.759e-10
3.355e-11
8.746e-10
2.018e-11
8.749e-10
7.127e-12
8.768e-10
-5.715e-12
8.803e-10
-1.844e-11
8.854e-10
-3.116e-11
8.923e-10
-4.395e-11
9.009e-10
-5.69e-11
9.113e-10
-7.008e-11
9.235e-10
-8.357e-11
9.377e-10
-9.742e-11
9.538e-10
-1.117e-10
9.719e-10
-1.264e-10
9.922e-10
-1.415e-10
1.015e-09
-1.572e-10
1.039e-09
-1.732e-10
1.066e-09
-1.897e-10
1.095e-09
-2.065e-10
1.127e-09
-2.235e-10
1.161e-09
-2.406e-10
1.198e-09
-2.576e-10
1.236e-09
-2.744e-10
1.277e-09
-2.906e-10
1.321e-09
-3.06e-10
1.366e-09
-3.202e-10
1.413e-09
-3.328e-10
1.462e-09
-3.434e-10
1.512e-09
-3.517e-10
1.563e-09
-3.57e-10
1.615e-09
-3.589e-10
1.666e-09
-3.57e-10
1.717e-09
-3.507e-10
1.766e-09
-3.399e-10
1.813e-09
-3.24e-10
1.857e-09
-3.029e-10
1.898e-09
-2.766e-10
1.934e-09
-2.452e-10
1.965e-09
-2.09e-10
1.99e-09
-1.686e-10
2.008e-09
-1.247e-10
2.02e-09
-7.835e-11
2.024e-09
-3.063e-11
2.021e-09
1.724e-11
2.012e-09
6.407e-11
1.996e-09
1.088e-10
1.973e-09
1.507e-10
1.946e-09
1.891e-10
1.913e-09
2.235e-10
1.877e-09
2.537e-10
1.837e-09
2.795e-10
1.793e-09
3.009e-10
1.748e-09
3.18e-10
1.701e-09
3.308e-10
1.652e-09
3.397e-10
1.603e-09
3.447e-10
1.554e-09
3.462e-10
1.504e-09
3.446e-10
1.456e-09
3.401e-10
1.408e-09
3.332e-10
1.362e-09
3.241e-10
1.317e-09
3.133e-10
1.275e-09
3.011e-10
1.233e-09
2.879e-10
1.194e-09
2.738e-10
1.157e-09
2.593e-10
1.122e-09
2.446e-10
1.089e-09
2.297e-10
1.058e-09
2.151e-10
1.03e-09
2.006e-10
1.003e-09
1.866e-10
9.777e-10
1.731e-10
9.546e-10
1.601e-10
9.332e-10
1.478e-10
9.134e-10
1.36e-10
8.952e-10
1.25e-10
8.784e-10
1.146e-10
8.631e-10
1.048e-10
8.49e-10
9.576e-11
8.361e-10
8.731e-11
8.244e-10
7.948e-11
8.137e-10
7.224e-11
8.039e-10
6.556e-11
7.95e-10
5.941e-11
7.87e-10
5.376e-11
7.797e-10
4.858e-11
7.731e-10
4.385e-11
7.671e-10
3.952e-11
7.617e-10
3.558e-11
7.568e-10
3.2e-11
7.524e-10
2.875e-11
7.484e-10
2.58e-11
7.449e-10
2.314e-11
7.417e-10
2.075e-11
7.388e-10
1.86e-11
7.363e-10
1.669e-11
7.34e-10
1.499e-11
7.319e-10
1.349e-11
7.3e-10
1.219e-11
7.284e-10
1.108e-11
7.269e-10
1.013e-11
7.256e-10
9.359e-12
7.244e-10
8.742e-12
7.233e-10
8.276e-12
7.223e-10
7.95e-12
7.214e-10
7.751e-12
7.668e-12
9.44e-10
5.546e-11
9.591e-10
1.473e-10
9.778e-10
2.175e-10
9.961e-10
2.663e-10
1.012e-09
2.961e-10
1.023e-09
3.105e-10
1.029e-09
3.129e-10
1.031e-09
3.064e-10
1.029e-09
2.938e-10
1.025e-09
2.77e-10
1.018e-09
2.578e-10
1.009e-09
2.372e-10
9.998e-10
2.161e-10
9.9e-10
1.951e-10
9.802e-10
1.745e-10
9.708e-10
1.546e-10
9.62e-10
1.354e-10
9.54e-10
1.17e-10
9.471e-10
9.939e-11
9.412e-10
8.253e-11
9.366e-10
6.633e-11
9.332e-10
5.071e-11
9.312e-10
3.557e-11
9.306e-10
2.081e-11
9.314e-10
6.33e-12
9.336e-10
-7.984e-12
9.374e-10
-2.223e-11
9.428e-10
-3.65e-11
9.497e-10
-5.089e-11
9.583e-10
-6.55e-11
9.686e-10
-8.039e-11
9.807e-10
-9.565e-11
9.946e-10
-1.113e-10
1.01e-09
-1.275e-10
1.028e-09
-1.442e-10
1.048e-09
-1.614e-10
1.07e-09
-1.791e-10
1.094e-09
-1.973e-10
1.12e-09
-2.16e-10
1.149e-09
-2.351e-10
1.18e-09
-2.545e-10
1.213e-09
-2.74e-10
1.249e-09
-2.934e-10
1.287e-09
-3.125e-10
1.328e-09
-3.31e-10
1.37e-09
-3.486e-10
1.415e-09
-3.649e-10
1.462e-09
-3.794e-10
1.51e-09
-3.917e-10
1.56e-09
-4.013e-10
1.61e-09
-4.076e-10
1.661e-09
-4.1e-10
1.712e-09
-4.081e-10
1.763e-09
-4.013e-10
1.812e-09
-3.891e-10
1.859e-09
-3.712e-10
1.904e-09
-3.474e-10
1.945e-09
-3.175e-10
1.981e-09
-2.816e-10
2.012e-09
-2.402e-10
2.037e-09
-1.938e-10
2.056e-09
-1.433e-10
2.068e-09
-8.984e-11
2.072e-09
-3.484e-11
2.069e-09
2.026e-11
2.059e-09
7.406e-11
2.042e-09
1.254e-10
2.02e-09
1.732e-10
1.992e-09
2.169e-10
1.959e-09
2.56e-10
1.923e-09
2.903e-10
1.883e-09
3.196e-10
1.84e-09
3.439e-10
1.794e-09
3.632e-10
1.748e-09
3.778e-10
1.699e-09
3.877e-10
1.651e-09
3.934e-10
1.602e-09
3.951e-10
1.553e-09
3.932e-10
1.505e-09
3.881e-10
1.458e-09
3.801e-10
1.413e-09
3.697e-10
1.369e-09
3.574e-10
1.326e-09
3.435e-10
1.286e-09
3.283e-10
1.247e-09
3.123e-10
1.211e-09
2.958e-10
1.176e-09
2.79e-10
1.144e-09
2.621e-10
1.114e-09
2.454e-10
1.085e-09
2.29e-10
1.059e-09
2.13e-10
1.035e-09
1.976e-10
1.012e-09
1.829e-10
9.908e-10
1.688e-10
9.714e-10
1.554e-10
9.535e-10
1.429e-10
9.37e-10
1.31e-10
9.219e-10
1.199e-10
9.081e-10
1.096e-10
8.954e-10
9.997e-11
8.839e-10
9.105e-11
8.733e-10
8.279e-11
8.637e-10
7.517e-11
8.55e-10
6.816e-11
8.47e-10
6.171e-11
8.398e-10
5.58e-11
8.333e-10
5.039e-11
8.273e-10
4.544e-11
8.22e-10
4.093e-11
8.172e-10
3.683e-11
8.128e-10
3.31e-11
8.089e-10
2.973e-11
8.053e-10
2.667e-11
8.022e-10
2.392e-11
7.993e-10
2.145e-11
7.968e-10
1.924e-11
7.945e-10
1.727e-11
7.924e-10
1.554e-11
7.906e-10
1.402e-11
7.89e-10
1.271e-11
7.875e-10
1.159e-11
7.862e-10
1.066e-11
7.851e-10
9.911e-12
7.84e-10
9.331e-12
7.83e-10
8.913e-12
7.821e-10
8.649e-12
8.533e-12
9.431e-10
4.989e-11
9.564e-10
1.34e-10
9.738e-10
2.002e-10
9.919e-10
2.482e-10
1.008e-09
2.796e-10
1.022e-09
2.97e-10
1.032e-09
3.03e-10
1.038e-09
3.003e-10
1.04e-09
2.911e-10
1.04e-09
2.773e-10
1.038e-09
2.604e-10
1.033e-09
2.416e-10
1.028e-09
2.217e-10
1.021e-09
2.014e-10
1.015e-09
1.812e-10
1.008e-09
1.612e-10
1.002e-09
1.417e-10
9.959e-10
1.228e-10
9.908e-10
1.045e-10
9.865e-10
8.684e-11
9.831e-10
6.969e-11
9.808e-10
5.302e-11
9.797e-10
3.675e-11
9.797e-10
2.079e-11
9.81e-10
5.043e-12
9.836e-10
-1.058e-11
9.875e-10
-2.62e-11
9.929e-10
-4.189e-11
9.998e-10
-5.776e-11
1.008e-09
-7.389e-11
1.018e-09
-9.038e-11
1.03e-09
-1.073e-10
1.043e-09
-1.247e-10
1.058e-09
-1.426e-10
1.075e-09
-1.612e-10
1.094e-09
-1.803e-10
1.115e-09
-2.001e-10
1.138e-09
-2.204e-10
1.164e-09
-2.412e-10
1.191e-09
-2.625e-10
1.221e-09
-2.841e-10
1.252e-09
-3.059e-10
1.287e-09
-3.276e-10
1.323e-09
-3.491e-10
1.362e-09
-3.698e-10
1.403e-09
-3.896e-10
1.446e-09
-4.08e-10
1.491e-09
-4.244e-10
1.538e-09
-4.384e-10
1.586e-09
-4.494e-10
1.635e-09
-4.567e-10
1.685e-09
-4.598e-10
1.735e-09
-4.58e-10
1.784e-09
-4.507e-10
1.833e-09
-4.374e-10
1.879e-09
-4.176e-10