/*--------------------------------*- C++ -*----------------------------------*\
  =========                 |
  \\      /  F ield         | OpenFOAM: The Open Source CFD Toolbox
   \\    /   O peration     | Website:  https://openfoam.org
    \\  /    A nd           | Version:  7
     \\/     M anipulation  |
\*---------------------------------------------------------------------------*/
FoamFile
{
    version     2.0;
    format      ascii;
    class       volVectorField;
    location    "1199.99947341444067";
    object      U;
}
// * * * * * * * * * * * * * * * * * * * * * * * * * * * * * * * * * * * * * //

dimensions      [0 1 -1 0 0 0 0];

internalField   nonuniform List<vector> 
4096
(
(0.001039 0.0001611 0)
(0.0007463 0.0001314 0)
(0.0005302 8.474e-05 0)
(0.0003919 5.358e-05 0)
(0.0003036 3.466e-05 0)
(0.0002457 2.327e-05 0)
(0.0002061 1.632e-05 0)
(0.0001778 1.193e-05 0)
(0.0001569 9.043e-06 0)
(0.0001408 7.052e-06 0)
(0.0001281 5.623e-06 0)
(0.0001179 4.558e-06 0)
(0.0001096 3.74e-06 0)
(0.0001028 3.095e-06 0)
(9.711e-05 2.575e-06 0)
(9.239e-05 2.148e-06 0)
(8.845e-05 1.791e-06 0)
(8.517e-05 1.488e-06 0)
(8.245e-05 1.226e-06 0)
(8.023e-05 9.973e-07 0)
(7.844e-05 7.941e-07 0)
(7.703e-05 6.111e-07 0)
(7.598e-05 4.437e-07 0)
(7.525e-05 2.885e-07 0)
(7.482e-05 1.423e-07 0)
(7.467e-05 2.508e-09 0)
(7.48e-05 -1.33e-07 0)
(7.52e-05 -2.661e-07 0)
(7.586e-05 -3.986e-07 0)
(7.679e-05 -5.319e-07 0)
(7.799e-05 -6.673e-07 0)
(7.947e-05 -8.06e-07 0)
(8.122e-05 -9.489e-07 0)
(8.327e-05 -1.097e-06 0)
(8.562e-05 -1.251e-06 0)
(8.828e-05 -1.411e-06 0)
(9.127e-05 -1.577e-06 0)
(9.459e-05 -1.75e-06 0)
(9.827e-05 -1.929e-06 0)
(0.0001023 -2.114e-06 0)
(0.0001067 -2.303e-06 0)
(0.0001115 -2.495e-06 0)
(0.0001167 -2.689e-06 0)
(0.0001223 -2.881e-06 0)
(0.0001282 -3.07e-06 0)
(0.0001346 -3.251e-06 0)
(0.0001412 -3.42e-06 0)
(0.0001482 -3.573e-06 0)
(0.0001555 -3.705e-06 0)
(0.000163 -3.81e-06 0)
(0.0001707 -3.882e-06 0)
(0.0001785 -3.916e-06 0)
(0.0001863 -3.906e-06 0)
(0.0001941 -3.846e-06 0)
(0.0002017 -3.732e-06 0)
(0.0002089 -3.56e-06 0)
(0.0002158 -3.329e-06 0)
(0.0002222 -3.038e-06 0)
(0.0002279 -2.69e-06 0)
(0.0002329 -2.287e-06 0)
(0.000237 -1.838e-06 0)
(0.0002402 -1.35e-06 0)
(0.0002424 -8.359e-07 0)
(0.0002435 -3.065e-07 0)
(0.0002436 2.247e-07 0)
(0.0002427 7.453e-07 0)
(0.0002407 1.244e-06 0)
(0.0002377 1.71e-06 0)
(0.0002339 2.135e-06 0)
(0.0002292 2.515e-06 0)
(0.0002239 2.844e-06 0)
(0.0002179 3.122e-06 0)
(0.0002114 3.347e-06 0)
(0.0002046 3.521e-06 0)
(0.0001974 3.645e-06 0)
(0.00019 3.723e-06 0)
(0.0001825 3.757e-06 0)
(0.000175 3.751e-06 0)
(0.0001676 3.711e-06 0)
(0.0001602 3.64e-06 0)
(0.000153 3.543e-06 0)
(0.0001461 3.424e-06 0)
(0.0001394 3.288e-06 0)
(0.0001329 3.138e-06 0)
(0.0001268 2.979e-06 0)
(0.000121 2.813e-06 0)
(0.0001156 2.645e-06 0)
(0.0001104 2.476e-06 0)
(0.0001057 2.308e-06 0)
(0.0001012 2.144e-06 0)
(9.709e-05 1.984e-06 0)
(9.327e-05 1.831e-06 0)
(8.975e-05 1.685e-06 0)
(8.652e-05 1.546e-06 0)
(8.356e-05 1.414e-06 0)
(8.086e-05 1.291e-06 0)
(7.839e-05 1.176e-06 0)
(7.614e-05 1.069e-06 0)
(7.411e-05 9.699e-07 0)
(7.226e-05 8.781e-07 0)
(7.059e-05 7.936e-07 0)
(6.908e-05 7.16e-07 0)
(6.772e-05 6.449e-07 0)
(6.649e-05 5.799e-07 0)
(6.539e-05 5.206e-07 0)
(6.44e-05 4.666e-07 0)
(6.352e-05 4.176e-07 0)
(6.273e-05 3.732e-07 0)
(6.202e-05 3.33e-07 0)
(6.139e-05 2.968e-07 0)
(6.083e-05 2.641e-07 0)
(6.033e-05 2.348e-07 0)
(5.989e-05 2.085e-07 0)
(5.949e-05 1.851e-07 0)
(5.915e-05 1.644e-07 0)
(5.883e-05 1.462e-07 0)
(5.856e-05 1.305e-07 0)
(5.831e-05 1.171e-07 0)
(5.809e-05 1.061e-07 0)
(5.788e-05 9.752e-08 0)
(5.769e-05 9.168e-08 0)
(5.751e-05 8.897e-08 0)
(5.733e-05 9.015e-08 0)
(5.715e-05 9.673e-08 0)
(5.694e-05 1.115e-07 0)
(5.669e-05 1.391e-07 0)
(5.637e-05 1.848e-07 0)
(5.594e-05 2.402e-07 0)
(0.001209 0.0003128 0)
(0.001154 0.0003282 0)
(0.00101 0.000248 0)
(0.0008613 0.0001771 0)
(0.0007345 0.0001262 0)
(0.0006327 9.142e-05 0)
(0.0005526 6.785e-05 0)
(0.0004896 5.169e-05 0)
(0.0004395 4.033e-05 0)
(0.0003993 3.21e-05 0)
(0.0003665 2.597e-05 0)
(0.0003397 2.128e-05 0)
(0.0003174 1.76e-05 0)
(0.0002988 1.466e-05 0)
(0.0002832 1.226e-05 0)
(0.0002701 1.027e-05 0)
(0.0002591 8.587e-06 0)
(0.00025 7.152e-06 0)
(0.0002423 5.908e-06 0)
(0.0002361 4.815e-06 0)
(0.000231 3.841e-06 0)
(0.000227 2.961e-06 0)
(0.000224 2.155e-06 0)
(0.0002219 1.406e-06 0)
(0.0002206 7.001e-07 0)
(0.0002202 2.474e-08 0)
(0.0002206 -6.3e-07 0)
(0.0002217 -1.273e-06 0)
(0.0002235 -1.912e-06 0)
(0.0002261 -2.555e-06 0)
(0.0002295 -3.207e-06 0)
(0.0002336 -3.873e-06 0)
(0.0002385 -4.558e-06 0)
(0.0002443 -5.266e-06 0)
(0.0002508 -6e-06 0)
(0.0002583 -6.762e-06 0)
(0.0002666 -7.552e-06 0)
(0.0002759 -8.37e-06 0)
(0.0002861 -9.216e-06 0)
(0.0002973 -1.009e-05 0)
(0.0003095 -1.097e-05 0)
(0.0003228 -1.187e-05 0)
(0.0003371 -1.278e-05 0)
(0.0003524 -1.367e-05 0)
(0.0003687 -1.454e-05 0)
(0.000386 -1.538e-05 0)
(0.0004042 -1.615e-05 0)
(0.0004232 -1.685e-05 0)
(0.0004429 -1.744e-05 0)
(0.0004632 -1.791e-05 0)
(0.000484 -1.822e-05 0)
(0.000505 -1.836e-05 0)
(0.000526 -1.828e-05 0)
(0.0005467 -1.798e-05 0)
(0.000567 -1.742e-05 0)
(0.0005864 -1.661e-05 0)
(0.0006047 -1.551e-05 0)
(0.0006217 -1.415e-05 0)
(0.0006369 -1.252e-05 0)
(0.0006501 -1.064e-05 0)
(0.000661 -8.556e-06 0)
(0.0006695 -6.296e-06 0)
(0.0006753 -3.912e-06 0)
(0.0006784 -1.461e-06 0)
(0.0006787 1.001e-06 0)
(0.0006763 3.415e-06 0)
(0.0006711 5.731e-06 0)
(0.0006634 7.901e-06 0)
(0.0006533 9.89e-06 0)
(0.000641 1.167e-05 0)
(0.0006268 1.322e-05 0)
(0.000611 1.453e-05 0)
(0.0005938 1.561e-05 0)
(0.0005755 1.644e-05 0)
(0.0005563 1.705e-05 0)
(0.0005366 1.744e-05 0)
(0.0005165 1.763e-05 0)
(0.0004962 1.763e-05 0)
(0.000476 1.747e-05 0)
(0.0004561 1.716e-05 0)
(0.0004366 1.673e-05 0)
(0.0004176 1.619e-05 0)
(0.0003993 1.557e-05 0)
(0.0003817 1.489e-05 0)
(0.0003649 1.415e-05 0)
(0.0003489 1.339e-05 0)
(0.0003338 1.261e-05 0)
(0.0003196 1.182e-05 0)
(0.0003063 1.104e-05 0)
(0.0002939 1.027e-05 0)
(0.0002824 9.518e-06 0)
(0.0002717 8.796e-06 0)
(0.0002619 8.105e-06 0)
(0.0002528 7.447e-06 0)
(0.0002444 6.826e-06 0)
(0.0002368 6.241e-06 0)
(0.0002298 5.693e-06 0)
(0.0002234 5.182e-06 0)
(0.0002176 4.708e-06 0)
(0.0002123 4.269e-06 0)
(0.0002075 3.864e-06 0)
(0.0002032 3.491e-06 0)
(0.0001992 3.149e-06 0)
(0.0001957 2.836e-06 0)
(0.0001925 2.55e-06 0)
(0.0001896 2.29e-06 0)
(0.0001871 2.053e-06 0)
(0.0001848 1.837e-06 0)
(0.0001827 1.642e-06 0)
(0.0001809 1.466e-06 0)
(0.0001792 1.307e-06 0)
(0.0001777 1.165e-06 0)
(0.0001764 1.037e-06 0)
(0.0001752 9.223e-07 0)
(0.0001742 8.209e-07 0)
(0.0001733 7.318e-07 0)
(0.0001724 6.544e-07 0)
(0.0001717 5.884e-07 0)
(0.000171 5.337e-07 0)
(0.0001704 4.907e-07 0)
(0.0001698 4.602e-07 0)
(0.0001693 4.436e-07 0)
(0.0001687 4.432e-07 0)
(0.0001682 4.629e-07 0)
(0.0001677 5.093e-07 0)
(0.0001671 5.912e-07 0)
(0.0001664 7.129e-07 0)
(0.0001657 8.401e-07 0)
(0.001226 0.0002775 0)
(0.001243 0.0004027 0)
(0.001194 0.0003664 0)
(0.001102 0.0002982 0)
(0.0009998 0.0002344 0)
(0.0009018 0.000183 0)
(0.0008146 0.0001436 0)
(0.0007396 0.000114 0)
(0.000676 9.165e-05 0)
(0.0006225 7.458e-05 0)
(0.0005774 6.134e-05 0)
(0.0005393 5.089e-05 0)
(0.0005071 4.25e-05 0)
(0.0004798 3.566e-05 0)
(0.0004566 3e-05 0)
(0.000437 2.524e-05 0)
(0.0004203 2.12e-05 0)
(0.0004064 1.771e-05 0)
(0.0003947 1.467e-05 0)
(0.000385 1.198e-05 0)
(0.0003772 9.577e-06 0)
(0.000371 7.395e-06 0)
(0.0003663 5.39e-06 0)
(0.0003631 3.521e-06 0)
(0.0003612 1.756e-06 0)
(0.0003605 6.674e-08 0)
(0.0003611 -1.573e-06 0)
(0.0003628 -3.183e-06 0)
(0.0003657 -4.784e-06 0)
(0.0003698 -6.391e-06 0)
(0.0003751 -8.019e-06 0)
(0.0003816 -9.682e-06 0)
(0.0003893 -1.139e-05 0)
(0.0003983 -1.315e-05 0)
(0.0004086 -1.497e-05 0)
(0.0004202 -1.686e-05 0)
(0.0004333 -1.881e-05 0)
(0.0004477 -2.083e-05 0)
(0.0004637 -2.292e-05 0)
(0.0004811 -2.505e-05 0)
(0.0005001 -2.723e-05 0)
(0.0005207 -2.943e-05 0)
(0.0005428 -3.163e-05 0)
(0.0005665 -3.38e-05 0)
(0.0005916 -3.591e-05 0)
(0.0006183 -3.793e-05 0)
(0.0006463 -3.979e-05 0)
(0.0006755 -4.146e-05 0)
(0.0007059 -4.287e-05 0)
(0.000737 -4.397e-05 0)
(0.0007688 -4.469e-05 0)
(0.0008009 -4.497e-05 0)
(0.000833 -4.474e-05 0)
(0.0008646 -4.395e-05 0)
(0.0008955 -4.256e-05 0)
(0.0009251 -4.053e-05 0)
(0.000953 -3.784e-05 0)
(0.0009788 -3.449e-05 0)
(0.001002 -3.051e-05 0)
(0.001022 -2.594e-05 0)
(0.001039 -2.087e-05 0)
(0.001052 -1.537e-05 0)
(0.00106 -9.587e-06 0)
(0.001065 -3.634e-06 0)
(0.001066 2.344e-06 0)
(0.001062 8.214e-06 0)
(0.001054 1.385e-05 0)
(0.001043 1.914e-05 0)
(0.001027 2.4e-05 0)
(0.001009 2.836e-05 0)
(0.0009875 3.217e-05 0)
(0.0009635 3.541e-05 0)
(0.0009373 3.808e-05 0)
(0.0009095 4.017e-05 0)
(0.0008802 4.17e-05 0)
(0.0008501 4.27e-05 0)
(0.0008193 4.322e-05 0)
(0.0007884 4.328e-05 0)
(0.0007574 4.293e-05 0)
(0.0007268 4.223e-05 0)
(0.0006968 4.122e-05 0)
(0.0006675 3.995e-05 0)
(0.0006392 3.847e-05 0)
(0.000612 3.683e-05 0)
(0.0005859 3.506e-05 0)
(0.0005612 3.321e-05 0)
(0.0005377 3.131e-05 0)
(0.0005157 2.939e-05 0)
(0.0004949 2.748e-05 0)
(0.0004756 2.559e-05 0)
(0.0004575 2.376e-05 0)
(0.0004408 2.198e-05 0)
(0.0004253 2.028e-05 0)
(0.000411 1.866e-05 0)
(0.0003978 1.712e-05 0)
(0.0003858 1.568e-05 0)
(0.0003747 1.432e-05 0)
(0.0003646 1.305e-05 0)
(0.0003554 1.187e-05 0)
(0.000347 1.078e-05 0)
(0.0003393 9.768e-06 0)
(0.0003324 8.838e-06 0)
(0.0003262 7.982e-06 0)
(0.0003205 7.198e-06 0)
(0.0003154 6.481e-06 0)
(0.0003108 5.827e-06 0)
(0.0003067 5.231e-06 0)
(0.0003029 4.69e-06 0)
(0.0002996 4.199e-06 0)
(0.0002966 3.754e-06 0)
(0.0002939 3.353e-06 0)
(0.0002915 2.992e-06 0)
(0.0002894 2.667e-06 0)
(0.0002875 2.377e-06 0)
(0.0002857 2.12e-06 0)
(0.0002842 1.893e-06 0)
(0.0002828 1.695e-06 0)
(0.0002816 1.526e-06 0)
(0.0002805 1.385e-06 0)
(0.0002795 1.272e-06 0)
(0.0002786 1.188e-06 0)
(0.0002777 1.136e-06 0)
(0.0002768 1.12e-06 0)
(0.000276 1.143e-06 0)
(0.0002752 1.211e-06 0)
(0.0002743 1.329e-06 0)
(0.0002735 1.487e-06 0)
(0.0002726 1.625e-06 0)
(0.001224 0.0002275 0)
(0.00126 0.0004003 0)
(0.001258 0.0004193 0)
(0.001216 0.0003788 0)
(0.001149 0.0003228 0)
(0.001074 0.0002684 0)
(0.0009978 0.0002213 0)
(0.0009266 0.0001825 0)
(0.0008623 0.0001511 0)
(0.0008053 0.0001257 0)
(0.0007554 0.0001052 0)
(0.000712 8.85e-05 0)
(0.0006744 7.471e-05 0)
(0.0006419 6.323e-05 0)
(0.0006139 5.356e-05 0)
(0.0005899 4.533e-05 0)
(0.0005694 3.824e-05 0)
(0.000552 3.208e-05 0)
(0.0005373 2.665e-05 0)
(0.0005252 2.182e-05 0)
(0.0005153 1.747e-05 0)
(0.0005074 1.35e-05 0)
(0.0005015 9.843e-06 0)
(0.0004974 6.421e-06 0)
(0.000495 3.18e-06 0)
(0.0004943 6.992e-08 0)
(0.0004951 -2.951e-06 0)
(0.0004975 -5.922e-06 0)
(0.0005014 -8.876e-06 0)
(0.0005068 -1.184e-05 0)
(0.0005138 -1.484e-05 0)
(0.0005224 -1.791e-05 0)
(0.0005325 -2.105e-05 0)
(0.0005443 -2.429e-05 0)
(0.0005579 -2.763e-05 0)
(0.0005731 -3.109e-05 0)
(0.0005902 -3.467e-05 0)
(0.0006091 -3.836e-05 0)
(0.0006299 -4.215e-05 0)
(0.0006527 -4.604e-05 0)
(0.0006774 -4.999e-05 0)
(0.0007042 -5.398e-05 0)
(0.0007329 -5.796e-05 0)
(0.0007637 -6.188e-05 0)
(0.0007963 -6.569e-05 0)
(0.0008308 -6.93e-05 0)
(0.0008671 -7.264e-05 0)
(0.0009048 -7.562e-05 0)
(0.0009439 -7.813e-05 0)
(0.0009841 -8.006e-05 0)
(0.001025 -8.13e-05 0)
(0.001066 -8.174e-05 0)
(0.001108 -8.127e-05 0)
(0.001148 -7.979e-05 0)
(0.001188 -7.722e-05 0)
(0.001226 -7.35e-05 0)
(0.001262 -6.86e-05 0)
(0.001295 -6.251e-05 0)
(0.001324 -5.529e-05 0)
(0.00135 -4.702e-05 0)
(0.001372 -3.784e-05 0)
(0.001388 -2.791e-05 0)
(0.0014 -1.745e-05 0)
(0.001406 -6.697e-06 0)
(0.001407 4.108e-06 0)
(0.001402 1.472e-05 0)
(0.001392 2.492e-05 0)
(0.001377 3.45e-05 0)
(0.001358 4.332e-05 0)
(0.001334 5.124e-05 0)
(0.001307 5.819e-05 0)
(0.001276 6.411e-05 0)
(0.001243 6.899e-05 0)
(0.001207 7.285e-05 0)
(0.001169 7.57e-05 0)
(0.001131 7.759e-05 0)
(0.001091 7.86e-05 0)
(0.001051 7.879e-05 0)
(0.001011 7.824e-05 0)
(0.0009719 7.704e-05 0)
(0.000933 7.527e-05 0)
(0.0008952 7.303e-05 0)
(0.0008585 7.04e-05 0)
(0.0008232 6.746e-05 0)
(0.0007893 6.429e-05 0)
(0.0007571 6.096e-05 0)
(0.0007266 5.753e-05 0)
(0.0006977 5.407e-05 0)
(0.0006707 5.06e-05 0)
(0.0006453 4.719e-05 0)
(0.0006216 4.385e-05 0)
(0.0005997 4.062e-05 0)
(0.0005793 3.752e-05 0)
(0.0005604 3.456e-05 0)
(0.0005431 3.175e-05 0)
(0.0005271 2.91e-05 0)
(0.0005125 2.661e-05 0)
(0.0004991 2.428e-05 0)
(0.0004868 2.211e-05 0)
(0.0004757 2.009e-05 0)
(0.0004655 1.823e-05 0)
(0.0004563 1.651e-05 0)
(0.0004479 1.493e-05 0)
(0.0004404 1.348e-05 0)
(0.0004335 1.215e-05 0)
(0.0004273 1.094e-05 0)
(0.0004218 9.833e-06 0)
(0.0004168 8.826e-06 0)
(0.0004122 7.912e-06 0)
(0.0004082 7.084e-06 0)
(0.0004046 6.335e-06 0)
(0.0004013 5.66e-06 0)
(0.0003984 5.054e-06 0)
(0.0003958 4.511e-06 0)
(0.0003935 4.028e-06 0)
(0.0003914 3.601e-06 0)
(0.0003895 3.228e-06 0)
(0.0003878 2.907e-06 0)
(0.0003863 2.636e-06 0)
(0.0003849 2.416e-06 0)
(0.0003836 2.247e-06 0)
(0.0003825 2.132e-06 0)
(0.0003814 2.073e-06 0)
(0.0003803 2.073e-06 0)
(0.0003793 2.135e-06 0)
(0.0003783 2.254e-06 0)
(0.0003773 2.407e-06 0)
(0.0003763 2.529e-06 0)
(0.001219 0.0001846 0)
(0.001255 0.0003712 0)
(0.001275 0.00043 0)
(0.001265 0.0004209 0)
(0.001229 0.0003825 0)
(0.001179 0.0003352 0)
(0.001121 0.0002883 0)
(0.001061 0.000246 0)
(0.001004 0.0002093 0)
(0.0009501 0.0001781 0)
(0.0009012 0.0001517 0)
(0.0008574 0.0001294 0)
(0.0008184 0.0001105 0)
(0.0007839 9.437e-05 0)
(0.0007538 8.055e-05 0)
(0.0007276 6.86e-05 0)
(0.0007049 5.817e-05 0)
(0.0006855 4.899e-05 0)
(0.000669 4.084e-05 0)
(0.0006553 3.352e-05 0)
(0.0006441 2.688e-05 0)
(0.0006352 2.079e-05 0)
(0.0006285 1.514e-05 0)
(0.0006239 9.833e-06 0)
(0.0006213 4.79e-06 0)
(0.0006206 -6.273e-08 0)
(0.0006217 -4.787e-06 0)
(0.0006247 -9.439e-06 0)
(0.0006295 -1.407e-05 0)
(0.0006361 -1.872e-05 0)
(0.0006446 -2.342e-05 0)
(0.0006549 -2.823e-05 0)
(0.0006672 -3.315e-05 0)
(0.0006814 -3.821e-05 0)
(0.0006976 -4.344e-05 0)
(0.0007159 -4.884e-05 0)
(0.0007363 -5.441e-05 0)
(0.000759 -6.015e-05 0)
(0.0007838 -6.605e-05 0)
(0.000811 -7.208e-05 0)
(0.0008405 -7.821e-05 0)
(0.0008724 -8.438e-05 0)
(0.0009066 -9.053e-05 0)
(0.0009431 -9.658e-05 0)
(0.0009819 -0.0001024 0)
(0.001023 -0.000108 0)
(0.001066 -0.0001131 0)
(0.001111 -0.0001177 0)
(0.001157 -0.0001215 0)
(0.001204 -0.0001244 0)
(0.001253 -0.0001262 0)
(0.001301 -0.0001269 0)
(0.00135 -0.0001261 0)
(0.001398 -0.0001237 0)
(0.001445 -0.0001197 0)
(0.00149 -0.0001139 0)
(0.001532 -0.0001063 0)
(0.001571 -9.686e-05 0)
(0.001606 -8.568e-05 0)
(0.001637 -7.288e-05 0)
(0.001662 -5.867e-05 0)
(0.001682 -4.332e-05 0)
(0.001695 -2.715e-05 0)
(0.001703 -1.052e-05 0)
(0.001704 6.189e-06 0)
(0.001698 2.261e-05 0)
(0.001687 3.838e-05 0)
(0.001669 5.322e-05 0)
(0.001647 6.688e-05 0)
(0.001619 7.917e-05 0)
(0.001586 8.997e-05 0)
(0.00155 9.919e-05 0)
(0.001511 0.0001068 0)
(0.001469 0.0001129 0)
(0.001425 0.0001174 0)
(0.001379 0.0001204 0)
(0.001332 0.000122 0)
(0.001285 0.0001224 0)
(0.001238 0.0001217 0)
(0.001191 0.0001199 0)
(0.001145 0.0001172 0)
(0.0011 0.0001138 0)
(0.001056 0.0001098 0)
(0.001014 0.0001054 0)
(0.0009742 0.0001005 0)
(0.0009358 9.537e-05 0)
(0.0008994 9.01e-05 0)
(0.0008649 8.475e-05 0)
(0.0008325 7.94e-05 0)
(0.0008022 7.411e-05 0)
(0.0007738 6.894e-05 0)
(0.0007474 6.392e-05 0)
(0.000723 5.909e-05 0)
(0.0007003 5.448e-05 0)
(0.0006794 5.01e-05 0)
(0.0006601 4.596e-05 0)
(0.0006424 4.207e-05 0)
(0.0006262 3.843e-05 0)
(0.0006114 3.503e-05 0)
(0.0005978 3.187e-05 0)
(0.0005855 2.895e-05 0)
(0.0005743 2.625e-05 0)
(0.0005641 2.376e-05 0)
(0.0005548 2.147e-05 0)
(0.0005465 1.938e-05 0)
(0.0005389 1.746e-05 0)
(0.0005321 1.571e-05 0)
(0.0005259 1.412e-05 0)
(0.0005204 1.267e-05 0)
(0.0005154 1.136e-05 0)
(0.0005109 1.017e-05 0)
(0.0005069 9.097e-06 0)
(0.0005033 8.132e-06 0)
(0.0005001 7.267e-06 0)
(0.0004972 6.496e-06 0)
(0.0004946 5.812e-06 0)
(0.0004923 5.213e-06 0)
(0.0004902 4.693e-06 0)
(0.0004883 4.252e-06 0)
(0.0004866 3.887e-06 0)
(0.000485 3.599e-06 0)
(0.0004836 3.388e-06 0)
(0.0004823 3.255e-06 0)
(0.000481 3.201e-06 0)
(0.0004798 3.223e-06 0)
(0.0004787 3.311e-06 0)
(0.0004776 3.434e-06 0)
(0.0004765 3.531e-06 0)
(0.001214 0.000152 0)
(0.001246 0.0003354 0)
(0.001274 0.000418 0)
(0.001282 0.0004351 0)
(0.001269 0.0004165 0)
(0.00124 0.0003811 0)
(0.0012 0.00034 0)
(0.001155 0.000299 0)
(0.001108 0.0002608 0)
(0.001062 0.0002264 0)
(0.001018 0.0001961 0)
(0.0009771 0.0001696 0)
(0.0009398 0.0001465 0)
(0.0009061 0.0001264 0)
(0.0008761 0.0001087 0)
(0.0008495 9.32e-05 0)
(0.0008263 7.946e-05 0)
(0.0008062 6.722e-05 0)
(0.0007891 5.622e-05 0)
(0.0007747 4.626e-05 0)
(0.0007629 3.715e-05 0)
(0.0007536 2.873e-05 0)
(0.0007466 2.088e-05 0)
(0.0007418 1.347e-05 0)
(0.0007392 6.391e-06 0)
(0.0007387 -4.383e-07 0)
(0.0007402 -7.105e-06 0)
(0.0007438 -1.368e-05 0)
(0.0007494 -2.023e-05 0)
(0.0007571 -2.682e-05 0)
(0.0007668 -3.349e-05 0)
(0.0007786 -4.03e-05 0)
(0.0007925 -4.727e-05 0)
(0.0008087 -5.444e-05 0)
(0.0008271 -6.184e-05 0)
(0.0008478 -6.947e-05 0)
(0.0008709 -7.734e-05 0)
(0.0008965 -8.544e-05 0)
(0.0009246 -9.375e-05 0)
(0.0009553 -0.0001022 0)
(0.0009886 -0.0001109 0)
(0.001025 -0.0001195 0)
(0.001063 -0.0001281 0)
(0.001104 -0.0001366 0)
(0.001148 -0.0001448 0)
(0.001194 -0.0001526 0)
(0.001242 -0.0001597 0)
(0.001292 -0.000166 0)
(0.001344 -0.0001713 0)
(0.001398 -0.0001754 0)
(0.001452 -0.0001779 0)
(0.001507 -0.0001787 0)
(0.001561 -0.0001776 0)
(0.001615 -0.0001742 0)
(0.001668 -0.0001686 0)
(0.001718 -0.0001604 0)
(0.001766 -0.0001497 0)
(0.00181 -0.0001364 0)
(0.001849 -0.0001207 0)
(0.001884 -0.0001027 0)
(0.001912 -8.27e-05 0)
(0.001934 -6.111e-05 0)
(0.00195 -3.836e-05 0)
(0.001958 -1.497e-05 0)
(0.001959 8.529e-06 0)
(0.001953 3.162e-05 0)
(0.00194 5.381e-05 0)
(0.001921 7.469e-05 0)
(0.001895 9.39e-05 0)
(0.001864 0.0001112 0)
(0.001828 0.0001264 0)
(0.001787 0.0001394 0)
(0.001743 0.0001502 0)
(0.001696 0.0001588 0)
(0.001646 0.0001652 0)
(0.001595 0.0001695 0)
(0.001543 0.000172 0)
(0.00149 0.0001726 0)
(0.001437 0.0001717 0)
(0.001384 0.0001693 0)
(0.001332 0.0001656 0)
(0.001282 0.0001609 0)
(0.001233 0.0001554 0)
(0.001185 0.0001491 0)
(0.00114 0.0001424 0)
(0.001097 0.0001352 0)
(0.001055 0.0001278 0)
(0.001017 0.0001203 0)
(0.0009799 0.0001128 0)
(0.0009455 0.0001054 0)
(0.0009134 9.813e-05 0)
(0.0008834 9.107e-05 0)
(0.0008556 8.426e-05 0)
(0.0008298 7.776e-05 0)
(0.000806 7.157e-05 0)
(0.0007841 6.571e-05 0)
(0.0007639 6.02e-05 0)
(0.0007454 5.504e-05 0)
(0.0007284 5.021e-05 0)
(0.0007129 4.573e-05 0)
(0.0006988 4.157e-05 0)
(0.0006859 3.773e-05 0)
(0.0006742 3.418e-05 0)
(0.0006635 3.092e-05 0)
(0.0006539 2.793e-05 0)
(0.0006452 2.52e-05 0)
(0.0006373 2.269e-05 0)
(0.0006301 2.041e-05 0)
(0.0006237 1.834e-05 0)
(0.0006179 1.645e-05 0)
(0.0006127 1.475e-05 0)
(0.0006081 1.321e-05 0)
(0.0006039 1.182e-05 0)
(0.0006001 1.057e-05 0)
(0.0005967 9.456e-06 0)
(0.0005937 8.467e-06 0)
(0.000591 7.595e-06 0)
(0.0005886 6.837e-06 0)
(0.0005864 6.186e-06 0)
(0.0005844 5.641e-06 0)
(0.0005826 5.199e-06 0)
(0.000581 4.86e-06 0)
(0.0005794 4.622e-06 0)
(0.000578 4.483e-06 0)
(0.0005767 4.435e-06 0)
(0.0005755 4.465e-06 0)
(0.0005743 4.541e-06 0)
(0.0005732 4.607e-06 0)
(0.00121 0.0001278 0)
(0.001237 0.0003006 0)
(0.001267 0.0003954 0)
(0.001285 0.0004316 0)
(0.001287 0.0004307 0)
(0.001274 0.0004086 0)
(0.001251 0.000376 0)
(0.001219 0.0003394 0)
(0.001184 0.0003027 0)
(0.001147 0.0002678 0)
(0.00111 0.0002357 0)
(0.001074 0.0002066 0)
(0.001041 0.0001805 0)
(0.00101 0.0001571 0)
(0.0009814 0.0001362 0)
(0.0009561 0.0001175 0)
(0.0009337 0.0001008 0)
(0.0009141 8.561e-05 0)
(0.0008972 7.184e-05 0)
(0.000883 5.925e-05 0)
(0.0008713 4.763e-05 0)
(0.0008621 3.682e-05 0)
(0.0008552 2.667e-05 0)
(0.0008506 1.703e-05 0)
(0.0008482 7.794e-06 0)
(0.000848 -1.159e-06 0)
(0.00085 -9.925e-06 0)
(0.0008542 -1.859e-05 0)
(0.0008605 -2.724e-05 0)
(0.000869 -3.595e-05 0)
(0.0008797 -4.478e-05 0)
(0.0008927 -5.378e-05 0)
(0.0009079 -6.301e-05 0)
(0.0009256 -7.249e-05 0)
(0.0009456 -8.227e-05 0)
(0.0009682 -9.235e-05 0)
(0.0009934 -0.0001027 0)
(0.001021 -0.0001134 0)
(0.001052 -0.0001244 0)
(0.001085 -0.0001356 0)
(0.001121 -0.0001469 0)
(0.00116 -0.0001583 0)
(0.001202 -0.0001696 0)
(0.001246 -0.0001808 0)
(0.001294 -0.0001915 0)
(0.001343 -0.0002017 0)
(0.001396 -0.0002111 0)
(0.00145 -0.0002194 0)
(0.001506 -0.0002263 0)
(0.001564 -0.0002316 0)
(0.001623 -0.0002349 0)
(0.001682 -0.0002359 0)
(0.001742 -0.0002344 0)
(0.0018 -0.00023 0)
(0.001857 -0.0002225 0)
(0.001912 -0.0002117 0)
(0.001964 -0.0001976 0)
(0.002012 -0.0001801 0)
(0.002055 -0.0001594 0)
(0.002092 -0.0001357 0)
(0.002123 -0.0001093 0)
(0.002148 -8.084e-05 0)
(0.002164 -5.081e-05 0)
(0.002174 -1.993e-05 0)
(0.002175 1.11e-05 0)
(0.002168 4.158e-05 0)
(0.002154 7.085e-05 0)
(0.002133 9.838e-05 0)
(0.002105 0.0001237 0)
(0.002071 0.0001465 0)
(0.002032 0.0001666 0)
(0.001988 0.0001838 0)
(0.00194 0.000198 0)
(0.001889 0.0002094 0)
(0.001835 0.0002179 0)
(0.001779 0.0002237 0)
(0.001723 0.000227 0)
(0.001665 0.0002279 0)
(0.001608 0.0002268 0)
(0.001551 0.0002237 0)
(0.001495 0.000219 0)
(0.00144 0.0002129 0)
(0.001387 0.0002057 0)
(0.001335 0.0001975 0)
(0.001286 0.0001887 0)
(0.001239 0.0001793 0)
(0.001194 0.0001696 0)
(0.001152 0.0001598 0)
(0.001112 0.0001499 0)
(0.001075 0.0001401 0)
(0.00104 0.0001305 0)
(0.001007 0.0001212 0)
(0.0009767 0.0001123 0)
(0.0009486 0.0001037 0)
(0.0009225 9.549e-05 0)
(0.0008985 8.775e-05 0)
(0.0008764 8.045e-05 0)
(0.0008561 7.361e-05 0)
(0.0008375 6.721e-05 0)
(0.0008205 6.126e-05 0)
(0.0008049 5.574e-05 0)
(0.0007908 5.062e-05 0)
(0.0007779 4.591e-05 0)
(0.0007661 4.157e-05 0)
(0.0007555 3.758e-05 0)
(0.0007458 3.392e-05 0)
(0.0007371 3.058e-05 0)
(0.0007292 2.753e-05 0)
(0.0007221 2.476e-05 0)
(0.0007157 2.224e-05 0)
(0.0007099 1.995e-05 0)
(0.0007047 1.788e-05 0)
(0.0007 1.601e-05 0)
(0.0006958 1.433e-05 0)
(0.0006921 1.283e-05 0)
(0.0006887 1.149e-05 0)
(0.0006856 1.031e-05 0)
(0.0006829 9.277e-06 0)
(0.0006805 8.384e-06 0)
(0.0006783 7.627e-06 0)
(0.0006763 7.001e-06 0)
(0.0006745 6.505e-06 0)
(0.0006728 6.133e-06 0)
(0.0006713 5.88e-06 0)
(0.0006699 5.738e-06 0)
(0.0006686 5.69e-06 0)
(0.0006674 5.705e-06 0)
(0.0006662 5.738e-06 0)
(0.001208 0.0001097 0)
(0.00123 0.0002695 0)
(0.001259 0.0003687 0)
(0.001281 0.0004177 0)
(0.001293 0.000431 0)
(0.001292 0.0004213 0)
(0.001281 0.000398 0)
(0.001262 0.0003676 0)
(0.001238 0.0003344 0)
(0.00121 0.0003009 0)
(0.001181 0.0002687 0)
(0.001152 0.0002385 0)
(0.001123 0.0002106 0)
(0.001096 0.000185 0)
(0.001071 0.0001616 0)
(0.001048 0.0001404 0)
(0.001028 0.000121 0)
(0.001009 0.0001032 0)
(0.0009936 8.689e-05 0)
(0.0009802 7.18e-05 0)
(0.0009692 5.777e-05 0)
(0.0009605 4.461e-05 0)
(0.0009541 3.216e-05 0)
(0.0009499 2.028e-05 0)
(0.000948 8.83e-06 0)
(0.0009483 -2.31e-06 0)
(0.0009508 -1.325e-05 0)
(0.0009555 -2.411e-05 0)
(0.0009624 -3.496e-05 0)
(0.0009716 -4.59e-05 0)
(0.000983 -5.699e-05 0)
(0.0009968 -6.832e-05 0)
(0.001013 -7.993e-05 0)
(0.001032 -9.187e-05 0)
(0.001053 -0.0001042 0)
(0.001077 -0.0001169 0)
(0.001103 -0.0001299 0)
(0.001133 -0.0001434 0)
(0.001165 -0.0001571 0)
(0.0012 -0.0001712 0)
(0.001238 -0.0001854 0)
(0.001279 -0.0001997 0)
(0.001323 -0.0002139 0)
(0.001369 -0.0002279 0)
(0.001419 -0.0002414 0)
(0.001471 -0.0002541 0)
(0.001526 -0.0002659 0)
(0.001584 -0.0002763 0)
(0.001643 -0.000285 0)
(0.001704 -0.0002916 0)
(0.001766 -0.0002958 0)
(0.001829 -0.0002971 0)
(0.001891 -0.0002952 0)
(0.001953 -0.0002897 0)
(0.002014 -0.0002804 0)
(0.002072 -0.0002669 0)
(0.002127 -0.0002492 0)
(0.002178 -0.0002272 0)
(0.002224 -0.0002012 0)
(0.002264 -0.0001713 0)
(0.002297 -0.0001381 0)
(0.002323 -0.0001021 0)
(0.00234 -6.423e-05 0)
(0.00235 -2.525e-05 0)
(0.002351 1.391e-05 0)
(0.002344 5.234e-05 0)
(0.002329 8.923e-05 0)
(0.002307 0.0001239 0)
(0.002277 0.0001558 0)
(0.002241 0.0001844 0)
(0.002199 0.0002097 0)
(0.002153 0.0002313 0)
(0.002102 0.0002492 0)
(0.002048 0.0002635 0)
(0.001991 0.0002742 0)
(0.001933 0.0002816 0)
(0.001873 0.0002858 0)
(0.001812 0.0002871 0)
(0.001752 0.0002857 0)
(0.001691 0.0002819 0)
(0.001632 0.0002761 0)
(0.001575 0.0002685 0)
(0.001518 0.0002594 0)
(0.001464 0.0002493 0)
(0.001412 0.0002382 0)
(0.001363 0.0002264 0)
(0.001316 0.0002143 0)
(0.001271 0.000202 0)
(0.001229 0.0001896 0)
(0.001189 0.0001773 0)
(0.001152 0.0001653 0)
(0.001118 0.0001536 0)
(0.001086 0.0001423 0)
(0.001056 0.0001315 0)
(0.001029 0.0001212 0)
(0.001003 0.0001115 0)
(0.0009797 0.0001023 0)
(0.0009581 9.363e-05 0)
(0.0009384 8.556e-05 0)
(0.0009203 7.804e-05 0)
(0.0009038 7.105e-05 0)
(0.0008887 6.458e-05 0)
(0.0008749 5.861e-05 0)
(0.0008624 5.311e-05 0)
(0.000851 4.805e-05 0)
(0.0008407 4.341e-05 0)
(0.0008314 3.917e-05 0)
(0.0008229 3.529e-05 0)
(0.0008153 3.176e-05 0)
(0.0008084 2.855e-05 0)
(0.0008022 2.563e-05 0)
(0.0007966 2.299e-05 0)
(0.0007916 2.06e-05 0)
(0.000787 1.846e-05 0)
(0.000783 1.653e-05 0)
(0.0007793 1.481e-05 0)
(0.0007761 1.329e-05 0)
(0.0007731 1.195e-05 0)
(0.0007705 1.079e-05 0)
(0.0007682 9.791e-06 0)
(0.000766 8.956e-06 0)
(0.0007641 8.277e-06 0)
(0.0007624 7.747e-06 0)
(0.0007608 7.359e-06 0)
(0.0007593 7.103e-06 0)
(0.000758 6.96e-06 0)
(0.0007567 6.906e-06 0)
(0.0007556 6.901e-06 0)
(0.001206 9.561e-05 0)
(0.001225 0.0002423 0)
(0.001251 0.0003415 0)
(0.001275 0.0003982 0)
(0.001292 0.0004221 0)
(0.0013 0.0004229 0)
(0.001299 0.0004085 0)
(0.00129 0.0003849 0)
(0.001275 0.0003563 0)
(0.001257 0.0003256 0)
(0.001235 0.0002946 0)
(0.001213 0.0002645 0)
(0.00119 0.0002359 0)
(0.001168 0.000209 0)
(0.001146 0.0001839 0)
(0.001127 0.0001607 0)
(0.001109 0.0001392 0)
(0.001093 0.0001192 0)
(0.001078 0.0001007 0)
(0.001067 8.336e-05 0)
(0.001057 6.709e-05 0)
(0.001049 5.171e-05 0)
(0.001043 3.706e-05 0)
(0.00104 2.299e-05 0)
(0.001038 9.366e-06 0)
(0.001039 -3.951e-06 0)
(0.001042 -1.708e-05 0)
(0.001047 -3.014e-05 0)
(0.001055 -4.322e-05 0)
(0.001064 -5.643e-05 0)
(0.001076 -6.985e-05 0)
(0.001091 -8.356e-05 0)
(0.001107 -9.762e-05 0)
(0.001127 -0.0001121 0)
(0.001149 -0.000127 0)
(0.001173 -0.0001424 0)
(0.0012 -0.0001582 0)
(0.00123 -0.0001745 0)
(0.001263 -0.0001911 0)
(0.001299 -0.0002081 0)
(0.001338 -0.0002253 0)
(0.00138 -0.0002427 0)
(0.001425 -0.0002599 0)
(0.001473 -0.0002768 0)
(0.001524 -0.0002931 0)
(0.001578 -0.0003086 0)
(0.001634 -0.0003228 0)
(0.001693 -0.0003355 0)
(0.001754 -0.0003461 0)
(0.001817 -0.0003542 0)
(0.001881 -0.0003593 0)
(0.001946 -0.0003611 0)
(0.002011 -0.0003589 0)
(0.002075 -0.0003523 0)
(0.002138 -0.0003411 0)
(0.002198 -0.0003248 0)
(0.002255 -0.0003034 0)
(0.002308 -0.0002768 0)
(0.002356 -0.0002452 0)
(0.002398 -0.0002089 0)
(0.002433 -0.0001684 0)
(0.00246 -0.0001246 0)
(0.002478 -7.836e-05 0)
(0.002488 -3.079e-05 0)
(0.002489 1.696e-05 0)
(0.002482 6.379e-05 0)
(0.002466 0.0001087 0)
(0.002442 0.0001508 0)
(0.002411 0.0001895 0)
(0.002374 0.0002243 0)
(0.002331 0.0002548 0)
(0.002282 0.000281 0)
(0.00223 0.0003027 0)
(0.002174 0.00032 0)
(0.002115 0.0003331 0)
(0.002055 0.000342 0)
(0.001993 0.0003471 0)
(0.00193 0.0003487 0)
(0.001868 0.000347 0)
(0.001806 0.0003425 0)
(0.001745 0.0003355 0)
(0.001686 0.0003263 0)
(0.001628 0.0003154 0)
(0.001572 0.0003031 0)
(0.001519 0.0002897 0)
(0.001468 0.0002755 0)
(0.001419 0.0002609 0)
(0.001373 0.0002459 0)
(0.00133 0.000231 0)
(0.001289 0.0002161 0)
(0.001251 0.0002015 0)
(0.001216 0.0001874 0)
(0.001183 0.0001737 0)
(0.001152 0.0001606 0)
(0.001124 0.0001481 0)
(0.001098 0.0001362 0)
(0.001073 0.0001251 0)
(0.001051 0.0001146 0)
(0.001031 0.0001048 0)
(0.001012 9.562e-05 0)
(0.000995 8.712e-05 0)
(0.0009794 7.924e-05 0)
(0.0009651 7.196e-05 0)
(0.0009521 6.524e-05 0)
(0.0009403 5.907e-05 0)
(0.0009296 5.341e-05 0)
(0.0009199 4.822e-05 0)
(0.0009111 4.348e-05 0)
(0.0009032 3.916e-05 0)
(0.000896 3.522e-05 0)
(0.0008895 3.164e-05 0)
(0.0008837 2.84e-05 0)
(0.0008784 2.547e-05 0)
(0.0008737 2.283e-05 0)
(0.0008695 2.046e-05 0)
(0.0008657 1.834e-05 0)
(0.0008622 1.645e-05 0)
(0.0008592 1.479e-05 0)
(0.0008564 1.333e-05 0)
(0.000854 1.208e-05 0)
(0.0008517 1.101e-05 0)
(0.0008498 1.013e-05 0)
(0.000848 9.425e-06 0)
(0.0008463 8.885e-06 0)
(0.0008449 8.499e-06 0)
(0.0008435 8.251e-06 0)
(0.0008423 8.12e-06 0)
(0.0008411 8.075e-06 0)
(0.001205 8.439e-05 0)
(0.001221 0.0002188 0)
(0.001245 0.0003152 0)
(0.001269 0.0003759 0)
(0.001289 0.0004073 0)
(0.001303 0.0004165 0)
(0.001309 0.00041 0)
(0.001308 0.0003929 0)
(0.001301 0.0003694 0)
(0.001291 0.0003422 0)
(0.001276 0.0003134 0)
(0.00126 0.0002844 0)
(0.001243 0.0002559 0)
(0.001226 0.0002285 0)
(0.001209 0.0002025 0)
(0.001193 0.000178 0)
(0.001178 0.0001549 0)
(0.001165 0.0001332 0)
(0.001153 0.0001128 0)
(0.001142 9.35e-05 0)
(0.001134 7.523e-05 0)
(0.001128 5.783e-05 0)
(0.001123 4.114e-05 0)
(0.00112 2.501e-05 0)
(0.00112 9.308e-06 0)
(0.001121 -6.107e-06 0)
(0.001124 -2.136e-05 0)
(0.00113 -3.658e-05 0)
(0.001138 -5.186e-05 0)
(0.001148 -6.732e-05 0)
(0.00116 -8.306e-05 0)
(0.001174 -9.914e-05 0)
(0.001191 -0.0001157 0)
(0.001211 -0.0001326 0)
(0.001232 -0.0001502 0)
(0.001257 -0.0001682 0)
(0.001284 -0.0001868 0)
(0.001314 -0.000206 0)
(0.001347 -0.0002256 0)
(0.001383 -0.0002456 0)
(0.001422 -0.0002658 0)
(0.001464 -0.0002862 0)
(0.00151 -0.0003065 0)
(0.001558 -0.0003264 0)
(0.001609 -0.0003456 0)
(0.001663 -0.0003639 0)
(0.00172 -0.0003808 0)
(0.001779 -0.0003957 0)
(0.00184 -0.0004083 0)
(0.001904 -0.000418 0)
(0.001969 -0.0004243 0)
(0.002034 -0.0004265 0)
(0.0021 -0.0004241 0)
(0.002165 -0.0004166 0)
(0.002229 -0.0004035 0)
(0.002291 -0.0003845 0)
(0.002349 -0.0003594 0)
(0.002403 -0.0003281 0)
(0.002453 -0.0002908 0)
(0.002495 -0.0002478 0)
(0.002531 -0.0001999 0)
(0.002559 -0.0001479 0)
(0.002578 -9.293e-05 0)
(0.002588 -3.64e-05 0)
(0.002589 2.031e-05 0)
(0.002581 7.585e-05 0)
(0.002565 0.000129 0)
(0.00254 0.0001788 0)
(0.002508 0.0002244 0)
(0.00247 0.0002653 0)
(0.002426 0.0003013 0)
(0.002377 0.000332 0)
(0.002323 0.0003575 0)
(0.002266 0.0003779 0)
(0.002207 0.0003932 0)
(0.002146 0.0004037 0)
(0.002083 0.0004097 0)
(0.00202 0.0004116 0)
(0.001957 0.0004096 0)
(0.001895 0.0004043 0)
(0.001833 0.000396 0)
(0.001773 0.0003853 0)
(0.001715 0.0003724 0)