/*--------------------------------*- C++ -*----------------------------------*\
  =========                 |
  \\      /  F ield         | OpenFOAM: The Open Source CFD Toolbox
   \\    /   O peration     | Website:  https://openfoam.org
    \\  /    A nd           | Version:  7
     \\/     M anipulation  |
\*---------------------------------------------------------------------------*/
FoamFile
{
    version     2.0;
    format      ascii;
    class       volScalarField;
    location    "1199.99947341444067";
    object      Y.K;
}
// * * * * * * * * * * * * * * * * * * * * * * * * * * * * * * * * * * * * * //

dimensions      [0 0 0 0 0 0 0];

internalField   nonuniform List<scalar> 
4096
(
1.423e-69
-8.369e-71
1.851e-68
-1.123e-68
-1.526e-69
3.473e-69
-1.823e-69
-1.287e-69
2.917e-70
3.637e-69
-4.298e-68
6.688e-67
-9.404e-66
1.364e-64
-1.789e-63
2.269e-62
-2.714e-61
3.163e-60
-3.529e-59
3.872e-58
-4.05e-57
4.17e-56
-4.231e-55
4.149e-54
-3.859e-53
3.518e-52
-2.947e-51
2.475e-50
-2.031e-49
1.632e-48
-1.279e-47
9.744e-47
-7.086e-46
4.974e-45
-3.318e-44
2.109e-43
-1.252e-42
6.902e-42
-3.6e-41
1.849e-40
-9.858e-40
5.918e-39
-3.954e-38
2.825e-37
-1.783e-36
1.009e-35
-4.745e-35
1.603e-34
-2.777e-34
-4.062e-34
5.64e-33
4.42e-32
-5.155e-31
8.44e-30
-3.259e-29
3.008e-28
-3.834e-28
4.681e-27
1.932e-26
4.987e-26
4.955e-25
1.771e-24
1.588e-23
5.203e-23
1.607e-22
1.144e-21
5.256e-21
7.12e-20
1.015e-18
3e-18
6.564e-18
1.275e-17
2.322e-17
4.053e-17
6.845e-17
1.124e-16
1.802e-16
2.825e-16
4.336e-16
6.526e-16
9.643e-16
1.4e-15
2e-15
2.812e-15
3.897e-15
5.327e-15
7.187e-15
9.58e-15
1.263e-14
1.646e-14
2.125e-14
2.718e-14
3.446e-14
4.333e-14
5.408e-14
6.701e-14
8.249e-14
1.009e-13
1.228e-13
1.485e-13
1.787e-13
2.141e-13
2.554e-13
3.033e-13
3.588e-13
4.228e-13
4.966e-13
5.813e-13
6.783e-13
7.892e-13
9.156e-13
1.059e-12
1.223e-12
1.408e-12
1.617e-12
1.853e-12
2.119e-12
2.418e-12
2.754e-12
3.131e-12
3.552e-12
4.021e-12
4.543e-12
5.12e-12
5.747e-12
6.41e-12
7.061e-12
7.571e-12
3.345e-68
-1.905e-67
2.204e-67
-3.175e-68
-1.617e-67
1.461e-67
-3.903e-69
-8.194e-68
-6.466e-69
2.199e-67
-2.532e-66
3.635e-65
-5.364e-64
7.475e-63
-9.843e-62
1.232e-60
-1.474e-59
1.699e-58
-1.896e-57
2.054e-56
-2.167e-55
2.227e-54
-2.227e-53
2.162e-52
-2.025e-51
1.833e-50
-1.541e-49
1.282e-48
-1.051e-47
8.442e-47
-6.614e-46
5.025e-45
-3.681e-44
2.583e-43
-1.724e-42
1.088e-41
-6.443e-41
3.57e-40
-1.861e-39
9.383e-39
-4.888e-38
2.845e-37
-1.861e-36
1.329e-35
-8.337e-35
4.852e-34
-2.326e-33
8.105e-33
-1.639e-32
-1.75e-33
3.093e-31
1.546e-30
-1.416e-29
3.613e-28
-1.193e-27
1.375e-26
-7.346e-27
2.42e-25
9.451e-25
3.074e-24
2.387e-23
9.453e-23
7.146e-22
2.362e-21
7.026e-21
4.301e-20
1.542e-19
9.745e-19
2.786e-18
6.094e-18
1.19e-17
2.176e-17
3.804e-17
6.422e-17
1.053e-16
1.682e-16
2.625e-16
4.011e-16
6.007e-16
8.831e-16
1.276e-15
1.814e-15
2.54e-15
3.507e-15
4.778e-15
6.428e-15
8.548e-15
1.124e-14
1.464e-14
1.888e-14
2.413e-14
3.059e-14
3.847e-14
4.803e-14
5.955e-14
7.337e-14
8.984e-14
1.094e-13
1.325e-13
1.597e-13
1.916e-13
2.288e-13
2.721e-13
3.224e-13
3.805e-13
4.476e-13
5.247e-13
6.132e-13
7.145e-13
8.302e-13
9.62e-13
1.112e-12
1.282e-12
1.474e-12
1.692e-12
1.938e-12
2.214e-12
2.525e-12
2.874e-12
3.265e-12
3.703e-12
4.191e-12
4.734e-12
5.337e-12
5.999e-12
6.718e-12
7.47e-12
8.179e-12
-7.72e-67
5.379e-66
-1.356e-65
1.832e-65
-1.294e-65
2.191e-66
4.418e-66
-3.975e-66
-1.906e-66
1.27e-65
-1.373e-64
1.924e-63
-2.824e-62
3.911e-61
-5.109e-60
6.338e-59
-7.521e-58
8.593e-57
-9.506e-56
1.022e-54
-1.07e-53
1.092e-52
-1.086e-51
1.048e-50
-9.777e-50
8.799e-49
-7.405e-48
6.169e-47
-5.061e-46
4.069e-45
-3.19e-44
2.425e-43
-1.779e-42
1.25e-41
-8.362e-41
5.288e-40
-3.14e-39
1.742e-38
-9.052e-38
4.496e-37
-2.261e-36
1.249e-35
-7.876e-35
5.656e-34
-3.543e-33
2.141e-32
-1.068e-31
3.962e-31
-9.77e-31
1.075e-30
1.67e-29
1.619e-29
9.482e-29
1.364e-26
-2.532e-26
5.88e-25
4.48e-25
1.297e-23
5.039e-23
1.785e-22
1.172e-21
4.907e-21
3.063e-20
9.917e-20
2.769e-19
1.318e-18
3.634e-18
7.88e-18
1.545e-17
2.849e-17
5.019e-17
8.515e-17
1.398e-16
2.229e-16
3.46e-16
5.239e-16
7.755e-16
1.124e-15
1.598e-15
2.233e-15
3.069e-15
4.156e-15
5.551e-15
7.323e-15
9.552e-15
1.233e-14
1.577e-14
2e-14
2.516e-14
3.142e-14
3.898e-14
4.807e-14
5.894e-14
7.189e-14
8.726e-14
1.054e-13
1.268e-13
1.519e-13
1.813e-13
2.156e-13
2.554e-13
3.016e-13
3.551e-13
4.168e-13
4.878e-13
5.693e-13
6.627e-13
7.695e-13
8.913e-13
1.03e-12
1.187e-12
1.366e-12
1.568e-12
1.797e-12
2.054e-12
2.344e-12
2.67e-12
3.036e-12
3.446e-12
3.904e-12
4.416e-12
4.986e-12
5.621e-12
6.325e-12
7.103e-12
7.96e-12
8.899e-12
9.946e-12
1.266e-65
-1.007e-64
3.557e-64
-7.732e-64
1.099e-63
-1.034e-63
5.962e-64
-1.279e-64
-1.346e-64
6.707e-64
-7.106e-63
9.562e-62
-1.388e-60
1.899e-59
-2.448e-58
2.994e-57
-3.503e-56
3.949e-55
-4.313e-54
4.583e-53
-4.749e-52
4.802e-51
-4.733e-50
4.536e-49
-4.209e-48
3.768e-47
-3.178e-46
2.654e-45
-2.182e-44
1.758e-43
-1.382e-42
1.054e-41
-7.755e-41
5.474e-40
-3.682e-39
2.343e-38
-1.401e-37
7.813e-37
-4.056e-36
1.981e-35
-9.494e-35
4.825e-34
-2.845e-33
2.058e-32
-1.282e-31
8.292e-31
-4.392e-30
1.778e-29
-4.822e-29
1.273e-28
6.943e-28
-6.512e-28
3.046e-26
4.235e-25
4.27e-25
2.266e-23
5.217e-23
6.777e-22
2.6e-21
9.691e-21
5.353e-20
2.163e-19
1.036e-18
3.099e-18
7.296e-18
1.549e-17
3.075e-17
5.792e-17
1.042e-16
1.801e-16
2.998e-16
4.821e-16
7.509e-16
1.136e-15
1.671e-15
2.398e-15
3.362e-15
4.616e-15
6.217e-15
8.229e-15
1.072e-14
1.377e-14
1.747e-14
2.192e-14
2.723e-14
3.353e-14
4.098e-14
4.975e-14
6.004e-14
7.21e-14
8.618e-14
1.026e-13
1.217e-13
1.439e-13
1.697e-13
1.995e-13
2.341e-13
2.74e-13
3.2e-13
3.73e-13
4.338e-13
5.037e-13
5.838e-13
6.753e-13
7.798e-13
8.99e-13
1.035e-12
1.189e-12
1.363e-12
1.561e-12
1.785e-12
2.038e-12
2.322e-12
2.642e-12
3.002e-12
3.406e-12
3.857e-12
4.363e-12
4.927e-12
5.555e-12
6.255e-12
7.031e-12
7.893e-12
8.846e-12
9.899e-12
1.106e-11
1.235e-11
1.397e-11
-1.793e-64
1.549e-63
-6.774e-63
1.969e-62
-4.016e-62
5.959e-62
-6.482e-62
5.017e-62
-2.569e-62
3.274e-62
-3.553e-61
4.458e-60
-6.337e-59
8.494e-58
-1.07e-56
1.28e-55
-1.465e-54
1.618e-53
-1.734e-52
1.811e-51
-1.849e-50
1.844e-49
-1.797e-48
1.707e-47
-1.574e-46
1.402e-45
-1.187e-44
9.946e-44
-8.209e-43
6.643e-42
-5.247e-41
4.024e-40
-2.982e-39
2.122e-38
-1.441e-37
9.273e-37
-5.617e-36
3.17e-35
-1.657e-34
8.008e-34
-3.649e-33
1.645e-32
-8.56e-32
6.116e-31
-3.682e-30
2.681e-29
-1.523e-28
6.822e-28
-2.078e-27
9.755e-27
8.955e-27
6.745e-26
2.275e-24
1.009e-23
8.821e-23
7.904e-22
4.164e-21
3.268e-20
1.263e-19
4.344e-19
1.966e-18
6.125e-18
1.527e-17
3.437e-17
7.223e-17
1.432e-16
2.697e-16
4.842e-16
8.316e-16
1.37e-15
2.171e-15
3.319e-15
4.908e-15
7.037e-15
9.808e-15
1.332e-14
1.767e-14
2.295e-14
2.924e-14
3.663e-14
4.521e-14
5.506e-14
6.63e-14
7.906e-14
9.35e-14
1.098e-13
1.282e-13
1.49e-13
1.725e-13
1.99e-13
2.291e-13
2.632e-13
3.018e-13
3.457e-13
3.956e-13
4.524e-13
5.169e-13
5.903e-13
6.738e-13
7.688e-13
8.766e-13
9.991e-13
1.138e-12
1.296e-12
1.474e-12
1.676e-12
1.904e-12
2.161e-12
2.452e-12
2.778e-12
3.146e-12
3.558e-12
4.02e-12
4.538e-12
5.117e-12
5.764e-12
6.484e-12
7.287e-12
8.179e-12
9.169e-12
1.027e-11
1.148e-11
1.282e-11
1.43e-11
1.592e-11
1.771e-11
1.969e-11
2.236e-11
2.334e-63
-2.127e-62
1.079e-61
-3.856e-61
1.013e-60
-2.023e-60
3.124e-60
-3.711e-60
3.235e-60
-2.95e-61
-1.687e-59
1.935e-58
-2.66e-57
3.446e-56
-4.192e-55
4.843e-54
-5.366e-53
5.75e-52
-5.999e-51
6.118e-50
-6.114e-49
5.991e-48
-5.753e-47
5.401e-46
-4.941e-45
4.382e-44
-3.73e-43
3.144e-42
-2.611e-41
2.128e-40
-1.694e-39
1.311e-38
-9.82e-38
7.078e-37
-4.882e-36
3.199e-35
-1.98e-34
1.143e-33
-6.096e-33
2.975e-32
-1.321e-31
5.28e-31
-2.28e-30
1.389e-29
-6.61e-29
6.449e-28
-3.745e-27
1.881e-26
-4.427e-26
5.929e-25
-5.431e-25
7.789e-24
1.093e-22
7.285e-22
5.509e-21
4.056e-20
2.215e-19
1.192e-18
4.294e-18
1.246e-17
3.256e-17
7.899e-17
1.794e-16
3.835e-16
7.731e-16
1.474e-15
2.666e-15
4.587e-15
7.528e-15
1.182e-14
1.782e-14
2.587e-14
3.624e-14
4.918e-14
6.481e-14
8.317e-14
1.042e-13
1.278e-13
1.539e-13
1.822e-13
2.127e-13
2.454e-13
2.802e-13
3.175e-13
3.573e-13
4e-13
4.462e-13
4.963e-13
5.51e-13
6.11e-13
6.773e-13
7.508e-13
8.327e-13
9.241e-13
1.027e-12
1.141e-12
1.271e-12
1.416e-12
1.58e-12
1.764e-12
1.972e-12
2.206e-12
2.47e-12
2.767e-12
3.101e-12
3.477e-12
3.898e-12
4.372e-12
4.902e-12
5.496e-12
6.161e-12
6.904e-12
7.732e-12
8.656e-12
9.684e-12
1.083e-11
1.21e-11
1.35e-11
1.506e-11
1.678e-11
1.868e-11
2.078e-11
2.308e-11
2.561e-11
2.837e-11
3.14e-11
3.473e-11
3.943e-11
-2.871e-62
2.712e-61
-1.532e-60
6.403e-60
-2.043e-59
5.119e-59
-1.024e-58
1.64e-58
-2.07e-58
2.159e-58
-7.964e-58
7.718e-57
-1.004e-55
1.234e-54
-1.424e-53
1.564e-52
-1.655e-51
1.701e-50
-1.711e-49
1.689e-48
-1.642e-47
1.573e-46
-1.482e-45
1.372e-44
-1.245e-43
1.1e-42
-9.443e-42
8.025e-41
-6.726e-40
5.538e-39
-4.461e-38
3.501e-37
-2.666e-36
1.959e-35
-1.382e-34
9.307e-34
-5.954e-33
3.563e-32
-1.979e-31
1.007e-30
-4.614e-30
1.801e-29
-7.262e-29
2.379e-28
-3.75e-28
5.572e-27
-1.676e-26
1.046e-25
2.274e-25
2.175e-23
-3.507e-24
7.001e-22
5.94e-21
4.167e-20
2.678e-19
1.601e-18
6.428e-18
2.098e-17
6.172e-17
1.679e-16
4.25e-16
1.005e-15
2.223e-15
4.614e-15
8.997e-15
1.653e-14
2.87e-14
4.724e-14
7.397e-14
1.105e-13
1.582e-13
2.175e-13
2.883e-13
3.696e-13
4.599e-13
5.568e-13
6.582e-13
7.615e-13
8.652e-13
9.676e-13
1.068e-12
1.167e-12
1.264e-12
1.36e-12
1.456e-12
1.555e-12
1.657e-12
1.764e-12
1.879e-12
2.003e-12
2.139e-12
2.289e-12
2.455e-12
2.641e-12
2.849e-12
3.081e-12
3.343e-12
3.636e-12
3.966e-12
4.336e-12
4.752e-12
5.22e-12
5.744e-12
6.333e-12
6.992e-12
7.73e-12
8.556e-12
9.479e-12
1.051e-11
1.166e-11
1.294e-11
1.436e-11
1.594e-11
1.77e-11
1.965e-11
2.18e-11
2.419e-11
2.682e-11
2.972e-11
3.292e-11
3.644e-11
4.029e-11
4.452e-11
4.914e-11
5.418e-11
5.968e-11
6.565e-11
7.438e-11
3.382e-61
-3.272e-60
2.003e-59
-9.471e-59
3.534e-58
-1.065e-57
2.633e-57
-5.342e-57
8.66e-57
-9.716e-57
-2.19e-56
2.727e-55
-3.277e-54
3.718e-53
-3.971e-52
4.062e-51
-4.033e-50
3.923e-49
-3.759e-48
3.563e-47
-3.346e-46
3.114e-45
-2.87e-44
2.615e-43
-2.35e-42
2.075e-41
-1.801e-40
1.549e-39
-1.316e-38
1.101e-37
-9.03e-37
7.237e-36
-5.646e-35
4.268e-34
-3.115e-33
2.183e-32
-1.467e-31
9.234e-31
-5.45e-30
2.984e-29
-1.492e-28
6.543e-28
-3.017e-27
8.275e-27
-6.909e-27
3.758e-26
1.458e-24
-8.794e-24
7.029e-23
2.415e-22
1.236e-21
3.712e-20
2.492e-19
1.668e-18
7.655e-18
2.873e-17
9.73e-17
3.037e-16
8.775e-16
2.352e-15
5.855e-15
1.355e-14
2.922e-14
5.879e-14
1.107e-13
1.954e-13
3.25e-13
5.106e-13
7.609e-13
1.079e-12
1.463e-12
1.903e-12
2.383e-12
2.882e-12
3.382e-12
3.859e-12
4.298e-12
4.687e-12
5.026e-12
5.307e-12
5.541e-12
5.733e-12
5.892e-12
6.028e-12
6.148e-12
6.264e-12
6.382e-12
6.511e-12
6.659e-12
6.83e-12
7.031e-12
7.269e-12
7.549e-12
7.876e-12
8.254e-12
8.69e-12
9.192e-12
9.765e-12
1.042e-11
1.116e-11
1.2e-11
1.294e-11
1.4e-11
1.52e-11
1.653e-11
1.803e-11
1.97e-11
2.156e-11
2.364e-11
2.595e-11
2.851e-11
3.135e-11
3.45e-11
3.799e-11
4.184e-11
4.609e-11
5.077e-11
5.592e-11
6.158e-11
6.779e-11
7.46e-11
8.204e-11
9.016e-11
9.901e-11
1.086e-10
1.191e-10
1.303e-10
1.472e-10
-3.825e-60
3.76e-59
-2.451e-58
1.28e-57
-5.439e-57
1.917e-56
-5.678e-56
1.418e-55
-2.968e-55
5.23e-55
-1.435e-54
8.134e-54
-8.487e-53
8.59e-52
-8.191e-51
7.59e-50
-6.93e-49
6.278e-48
-5.667e-47
5.107e-46
-4.598e-45
4.135e-44
-3.711e-43
3.318e-42
-2.95e-41
2.608e-40
-2.302e-39
2.017e-38
-1.75e-37
1.499e-36
-1.266e-35
1.048e-34
-8.5e-34
6.707e-33
-5.143e-32
3.815e-31
-2.742e-30
1.84e-29
-1.178e-28
7.03e-28
-3.901e-27
2.033e-26
-9.752e-26
4.183e-25
-1.519e-24
3.766e-24
1.576e-24
-1.194e-22
2.21e-21
2.677e-21
1.35e-19
1.237e-18
6.689e-18
2.956e-17
1.177e-16
4.301e-16
1.449e-15
4.504e-15
1.292e-14
3.419e-14
8.361e-14
1.891e-13
3.964e-13
7.715e-13
1.398e-12
2.367e-12
3.759e-12
5.622e-12
7.955e-12
1.069e-11
1.37e-11
1.682e-11
1.987e-11
2.264e-11
2.504e-11
2.688e-11
2.818e-11
2.898e-11
2.936e-11
2.926e-11
2.894e-11
2.841e-11
2.775e-11
2.702e-11
2.628e-11
2.558e-11
2.495e-11
2.443e-11
2.402e-11
2.374e-11
2.358e-11
2.361e-11
2.377e-11
2.407e-11
2.453e-11
2.517e-11
2.599e-11
2.699e-11
2.819e-11
2.96e-11
3.123e-11
3.311e-11
3.525e-11
3.767e-11
4.041e-11
4.348e-11
4.692e-11
5.076e-11
5.504e-11
5.979e-11
6.506e-11
7.09e-11
7.735e-11
8.447e-11
9.232e-11
1.01e-10
1.104e-10
1.208e-10
1.322e-10
1.447e-10
1.583e-10
1.731e-10
1.893e-10
2.068e-10
2.258e-10
2.464e-10
2.683e-10
3.017e-10
4.141e-59
-4.113e-58
2.816e-57
-1.596e-56
7.579e-56
-3.06e-55
1.062e-54
-3.179e-54
8.035e-54
-1.573e-53
-3.523e-54
1.654e-52
-1.523e-51
1.233e-50
-9.797e-50
7.953e-49
-6.558e-48
5.459e-47
-4.591e-46
3.896e-45
-3.334e-44
2.872e-43
-2.488e-42
2.162e-41
-1.884e-40
1.643e-39
-1.431e-38
1.24e-37
-1.072e-36
9.192e-36
-7.869e-35
6.62e-34
-5.536e-33
4.474e-32
-3.533e-31
2.705e-30
-2.007e-29
1.423e-28
-9.885e-28
6.528e-27
-4.2e-26
2.582e-25
-1.518e-24
8.445e-24
-4.518e-23
2.271e-22
-1.045e-21
2.723e-21
3.59e-20
4.156e-19
3.665e-18
2.108e-17
1.015e-16
4.423e-16
1.769e-15
6.503e-15
2.194e-14
6.797e-14
1.932e-13
5.042e-13
1.209e-12
2.666e-12
5.417e-12
1.017e-11
1.768e-11
2.86e-11
4.325e-11
6.143e-11
8.232e-11
1.045e-10
1.266e-10
1.463e-10
1.631e-10
1.745e-10
1.819e-10
1.829e-10
1.809e-10
1.759e-10
1.684e-10
1.593e-10
1.493e-10
1.392e-10
1.293e-10
1.2e-10
1.115e-10
1.039e-10
9.726e-11
9.154e-11
8.672e-11
8.275e-11
7.956e-11
7.712e-11
7.538e-11
7.427e-11
7.375e-11
7.395e-11
7.458e-11
7.581e-11
7.76e-11
7.996e-11
8.29e-11
8.644e-11
9.062e-11
9.546e-11
1.01e-10
1.073e-10
1.144e-10
1.224e-10
1.313e-10
1.412e-10
1.523e-10
1.645e-10
1.779e-10
1.928e-10
2.091e-10
2.27e-10
2.467e-10
2.682e-10
2.917e-10
3.173e-10
3.452e-10
3.755e-10
4.084e-10
4.44e-10
4.825e-10
5.24e-10
5.678e-10
6.357e-10
-4.252e-58
4.248e-57
-3.025e-56
1.837e-55
-9.599e-55
4.37e-54
-1.753e-53
6.245e-53
-1.976e-52
5.513e-52
-1.327e-51
2.68e-51
-5.461e-51
2.242e-50
-1.931e-49
1.737e-48
-1.403e-47
9.937e-47
-7.787e-46
6.143e-45
-5.12e-44
4.33e-43
-3.598e-42
2.87e-41
-2.109e-40
1.403e-39
-8.327e-39
1.778e-38
1.762e-37
-3.058e-36
3.33e-35
-3.29e-34
2.531e-33
-2.21e-32
1.298e-31
-6.655e-31
1.899e-30
1.424e-29
-3.008e-28
3.597e-27
-3.35e-26
2.744e-25
-2.092e-24
1.41e-23
-9.282e-23
6.402e-22
-1.576e-21
1.255e-19
1.485e-18
1.026e-17
5.924e-17
3.102e-16
1.491e-15
6.577e-15
2.658e-14
9.821e-14
3.316e-13
1.022e-12
2.874e-12
7.377e-12
1.729e-11
3.707e-11
7.282e-11
1.313e-10
2.184e-10
3.365e-10
4.832e-10
6.497e-10
8.224e-10
9.85e-10
1.125e-09
1.222e-09
1.286e-09
1.282e-09
1.255e-09
1.2e-09
1.122e-09
1.03e-09
9.329e-10
8.364e-10
7.447e-10
6.605e-10
5.852e-10
5.192e-10
4.621e-10
4.134e-10
3.723e-10
3.378e-10
3.091e-10
2.855e-10
2.662e-10
2.506e-10
2.384e-10
2.29e-10
2.22e-10
2.175e-10
2.143e-10
2.143e-10
2.153e-10
2.179e-10
2.222e-10
2.282e-10
2.358e-10
2.45e-10
2.56e-10
2.687e-10
2.833e-10
2.999e-10
3.185e-10
3.394e-10
3.626e-10
3.884e-10
4.168e-10
4.482e-10
4.827e-10
5.205e-10
5.619e-10
6.07e-10
6.563e-10
7.099e-10
7.681e-10
8.311e-10
8.994e-10
9.73e-10
1.052e-09
1.138e-09
1.227e-09
1.367e-09
4.078e-57
-4.082e-56
2.999e-55
-1.931e-54
1.096e-53
-5.543e-53
2.524e-52
-1.042e-51
3.909e-51
-1.324e-50
3.947e-50
-9.602e-50
1.126e-49
3.032e-49
-2.994e-48
1.153e-47
2.068e-47
-1.904e-45
1.047e-44
-8.046e-44
4.38e-43
-1.464e-42
-7.562e-42
2.235e-40
-3.042e-39
3.226e-38
-2.861e-37
2.29e-36
-1.668e-35
1.299e-34
-6.905e-34
3.134e-33
-5.3e-33
-1.099e-31
1.96e-30
-2.255e-29
2.175e-28
-1.883e-27
1.505e-26
-1.125e-25
7.948e-25
-5.321e-24
3.353e-23
-2.028e-22
1.246e-21
-4.114e-21
2.236e-19
2.888e-18
2.19e-17
1.404e-16
8.184e-16
4.376e-15
2.143e-14
9.588e-14
3.911e-13
1.451e-12
4.893e-12
1.497e-11
4.157e-11
1.047e-10
2.393e-10
4.972e-10
9.404e-10
1.624e-09
2.572e-09
3.762e-09
5.11e-09
6.488e-09
7.738e-09
8.738e-09
9.406e-09
9.529e-09
9.349e-09
8.899e-09
8.226e-09
7.416e-09
6.551e-09
5.694e-09
4.892e-09
4.168e-09
3.535e-09
2.993e-09
2.537e-09
2.158e-09
1.846e-09
1.591e-09
1.382e-09
1.213e-09
1.075e-09
9.639e-10
8.74e-10
8.017e-10
7.439e-10
6.982e-10
6.625e-10
6.356e-10
6.158e-10
6.03e-10
5.943e-10
5.943e-10
5.972e-10
6.044e-10
6.163e-10
6.325e-10
6.531e-10
6.78e-10
7.075e-10
7.415e-10
7.803e-10
8.241e-10
8.732e-10
9.279e-10
9.884e-10
1.055e-09
1.129e-09
1.209e-09
1.297e-09
1.393e-09
1.498e-09
1.611e-09
1.734e-09
1.867e-09
2.011e-09
2.165e-09
2.331e-09
2.51e-09
2.696e-09
2.988e-09
-3.574e-56
3.572e-55
-2.688e-54
1.818e-53
-1.11e-52
6.165e-52
-3.148e-51
1.49e-50
-6.569e-50
2.704e-49
-1.031e-48
3.537e-48
-9.967e-48
1.633e-48
1.71e-46
-1.786e-45
1.545e-44
-1.207e-43
8.969e-43
-6.475e-42
4.569e-41
-3.149e-40
2.107e-39
-1.349e-38
7.927e-38
-4.148e-37
1.62e-36
2.651e-39
-9.511e-35
1.433e-33
-1.593e-32
1.547e-31
-1.382e-30
1.161e-29
-9.268e-29
7.074e-28
-5.18e-27
3.645e-26
-2.466e-25
1.608e-24
-1.003e-23
6.044e-23
-3.471e-22
2.033e-21
-7.635e-21
3.316e-19
4.706e-18
3.931e-17
2.802e-16
1.823e-15
1.088e-14
5.947e-14
2.963e-13
1.343e-12
5.52e-12
2.053e-11
6.898e-11
2.091e-10
5.715e-10
1.408e-09
3.127e-09
6.271e-09
1.138e-08
1.873e-08
2.814e-08
3.889e-08
4.983e-08
5.96e-08
6.683e-08
7.136e-08
7.077e-08
6.812e-08
6.323e-08
5.678e-08
4.957e-08
4.227e-08
3.54e-08
2.923e-08
2.39e-08
1.942e-08
1.575e-08
1.278e-08
1.04e-08
8.519e-09
7.029e-09
5.854e-09
4.927e-09
4.195e-09
3.616e-09
3.157e-09
2.793e-09
2.503e-09
2.272e-09
2.089e-09
1.945e-09
1.832e-09
1.746e-09
1.682e-09
1.636e-09
1.608e-09
1.593e-09
1.596e-09
1.608e-09
1.632e-09
1.668e-09
1.714e-09
1.772e-09
1.84e-09
1.92e-09
2.012e-09
2.115e-09
2.231e-09
2.36e-09
2.503e-09
2.66e-09
2.833e-09
3.021e-09
3.227e-09
3.45e-09
3.692e-09
3.954e-09
4.237e-09
4.542e-09
4.87e-09
5.221e-09
5.598e-09
5.987e-09
6.604e-09
2.766e-55
-2.749e-54
2.107e-53
-1.484e-52
9.629e-52
-5.8e-51
3.271e-50
-1.744e-49
8.859e-49
-4.326e-48
2.046e-47
-9.453e-47
4.314e-46
-1.978e-45
9.332e-45
-4.675e-44
2.551e-43
-1.522e-42
9.787e-42
-6.629e-41
4.661e-40
-3.4e-39
2.588e-38
-2.068e-37
1.751e-36
-1.467e-35
1.217e-34
-9.936e-34
7.953e-33
-6.231e-32
4.774e-31
-3.575e-30
2.614e-29
-1.865e-28
1.298e-27
-8.794e-27
5.801e-26
-3.72e-25
2.318e-24
-1.396e-23
8.254e-23
-4.627e-22
2.67e-21
-1.061e-20
4.034e-19
6.298e-18
5.798e-17
4.604e-16
3.348e-15
2.237e-14
1.368e-13
7.625e-13
3.859e-12
1.767e-11
7.302e-11
2.715e-10
9.064e-10
2.714e-09
7.276e-09
1.746e-08
3.753e-08
7.231e-08
1.252e-07
1.956e-07
2.774e-07
3.611e-07
4.354e-07
4.896e-07
5.17e-07
5.086e-07
4.82e-07
4.385e-07
3.843e-07
3.263e-07
2.699e-07
2.186e-07
1.742e-07
1.373e-07
1.073e-07
8.359e-08
6.511e-08
5.085e-08
3.994e-08
3.162e-08
2.528e-08
2.043e-08
1.673e-08
1.388e-08
1.167e-08
9.96e-09
8.623e-09
7.574e-09
6.748e-09
6.097e-09
5.582e-09
5.178e-09
4.862e-09
4.62e-09
4.438e-09
4.307e-09
4.223e-09
4.167e-09
4.168e-09
4.19e-09
4.241e-09
4.32e-09
4.428e-09
4.562e-09
4.724e-09
4.913e-09
5.13e-09
5.376e-09
5.651e-09
5.956e-09
6.293e-09
6.664e-09
7.069e-09
7.511e-09
7.991e-09
8.511e-09
9.073e-09
9.678e-09
1.033e-08
1.103e-08
1.177e-08
1.258e-08
1.34e-08
1.471e-08
-1.804e-54
1.78e-53
-1.381e-52
1.004e-51
-6.837e-51
4.391e-50
-2.679e-49
1.566e-48
-8.837e-48
4.852e-47
-2.606e-46
1.374e-45
-7.131e-45
3.638e-44
-1.824e-43
9.014e-43
-4.427e-42
2.237e-41
-1.214e-40
7.559e-40
-5.523e-39
4.513e-38
-3.906e-37
3.409e-36
-2.948e-35
2.362e-34
-1.826e-33
1.373e-32
-1.008e-31
7.241e-31
-5.102e-30
3.526e-29
-2.39e-28
1.589e-27
-1.036e-26
6.609e-26
-4.126e-25
2.517e-24
-1.498e-23
8.754e-23
-4.797e-22
2.768e-21
-1.129e-20
3.969e-19
6.811e-18
6.908e-17
6.105e-16
4.962e-15
3.712e-14
2.545e-13
1.59e-12
9.02e-12
4.622e-11
2.132e-10
8.824e-10
3.267e-09
1.08e-08
3.177e-08
8.316e-08
1.935e-07
4.002e-07
7.366e-07
1.211e-06
1.785e-06
2.38e-06
2.912e-06
3.304e-06
3.482e-06
3.41e-06
3.199e-06
2.869e-06
2.469e-06
2.052e-06
1.656e-06
1.306e-06
1.01e-06
7.707e-07
5.825e-07
4.38e-07
3.288e-07
2.473e-07
1.87e-07
1.424e-07
1.095e-07
8.525e-08
6.721e-08
5.374e-08
4.362e-08
3.595e-08
3.01e-08
2.56e-08
2.211e-08
1.939e-08
1.727e-08
1.559e-08
1.428e-08
1.325e-08
1.244e-08
1.182e-08
1.136e-08
1.102e-08
1.08e-08
1.066e-08
1.065e-08
1.07e-08
1.081e-08
1.1e-08
1.126e-08
1.158e-08
1.196e-08
1.242e-08
1.293e-08
1.352e-08
1.417e-08
1.489e-08
1.569e-08
1.656e-08
1.751e-08
1.855e-08
1.966e-08
2.087e-08
2.217e-08
2.357e-08
2.506e-08
2.666e-08
2.837e-08
3.011e-08
3.29e-08
9.486e-54
-9.279e-53
7.256e-52
-5.395e-51
3.806e-50
-2.561e-49
1.654e-48
-1.035e-47
6.324e-47
-3.822e-46
2.31e-45
-1.409e-44
8.74e-44
-5.521e-43
3.545e-42
-2.303e-41
1.509e-40
-9.798e-40
6.419e-39
-4.194e-38
2.727e-37
-1.78e-36
1.151e-35
-7.434e-35
4.835e-34
-3.141e-33
2.041e-32
-1.324e-31
8.569e-31
-5.521e-30
3.537e-29
-2.248e-28
1.415e-27
-8.813e-27
5.417e-26
-3.281e-25
1.955e-24
-1.144e-23
6.584e-23
-3.626e-22
2.237e-21
-9.331e-21
3.118e-19
5.876e-18
6.554e-17
6.433e-16
5.833e-15
4.88e-14
3.748e-13
2.627e-12
1.672e-11
9.611e-11
4.966e-10
2.296e-09
9.467e-09
3.47e-08
1.127e-07
3.239e-07
8.217e-07
1.84e-06
3.635e-06
6.35e-06
9.855e-06
1.365e-05
1.707e-05
1.966e-05
2.093e-05
2.048e-05
1.915e-05
1.705e-05
1.452e-05
1.19e-05
9.45e-06
7.306e-06
5.53e-06
4.117e-06
3.029e-06
2.212e-06
1.61e-06
1.173e-06
8.573e-07
6.31e-07
4.688e-07
3.523e-07
2.683e-07
2.073e-07
1.627e-07
1.297e-07
1.052e-07
8.675e-08
7.275e-08
6.202e-08
5.373e-08
4.728e-08
4.224e-08
3.828e-08
3.517e-08
3.273e-08
3.083e-08
2.937e-08
2.828e-08
2.75e-08
2.7e-08
2.666e-08
2.667e-08
2.68e-08
2.71e-08
2.756e-08
2.818e-08
2.896e-08
2.989e-08
3.097e-08
3.221e-08
3.36e-08
3.515e-08
3.686e-08
3.873e-08
4.078e-08
4.3e-08
4.541e-08
4.801e-08
5.081e-08
5.38e-08
5.701e-08
6.042e-08
6.408e-08
6.778e-08
7.374e-08
-3.865e-53
3.796e-52
-2.993e-51
2.26e-50
-1.629e-49
1.121e-48
-7.363e-48
4.604e-47
-2.735e-46
1.534e-45
-8.04e-45
3.856e-44
-1.608e-43
4.942e-43
-4.288e-44
-1.677e-41
1.982e-40
-1.636e-39
1.18e-38
-7.721e-38
4.555e-37
-2.625e-36
1.395e-35
-3.211e-35
-1.148e-34
2.679e-33
-2.88e-32
2.527e-31
-2.007e-30
1.499e-29
-1.071e-28
7.402e-28
-4.972e-27
3.257e-26
-2.086e-25
1.307e-24
-8.021e-24
4.824e-23
-2.823e-22
1.699e-21
-6.201e-21
1.91e-19
3.998e-18
4.903e-17
5.328e-16
5.368e-15
5.008e-14
4.3e-13
3.377e-12
2.411e-11
1.555e-10
9.006e-10
4.661e-09
2.145e-08
8.741e-08
3.143e-07
9.942e-07
2.759e-06
6.708e-06
1.43e-05
2.673e-05
4.397e-05
6.415e-05
8.32e-05
9.806e-05
0.0001068
0.000105
9.858e-05
8.792e-05
7.481e-05
6.111e-05
4.822e-05
3.695e-05
2.764e-05
2.028e-05
1.466e-05
1.05e-05
7.468e-06
5.304e-06
3.774e-06
2.699e-06
1.947e-06
1.419e-06
1.048e-06
7.851e-07
5.975e-07
4.624e-07
3.64e-07
2.917e-07
2.379e-07
1.974e-07
1.667e-07
1.431e-07
1.249e-07
1.107e-07
9.953e-08
9.078e-08
8.39e-08
7.851e-08
7.433e-08
7.114e-08
6.878e-08
6.712e-08
6.606e-08
6.546e-08
6.556e-08
6.597e-08
6.676e-08
6.794e-08
6.949e-08
7.14e-08
7.366e-08
7.626e-08
7.922e-08
8.252e-08
8.619e-08
9.022e-08
9.462e-08
9.941e-08
1.046e-07
1.102e-07
1.162e-07
1.226e-07
1.295e-07
1.368e-07
1.446e-07
1.525e-07
1.652e-07
1.606e-52
-1.433e-51
1.086e-50
-8.372e-50
6.479e-49
-4.996e-48
3.811e-47
-2.86e-46
2.105e-45
-1.518e-44
1.072e-43
-7.432e-43
5.06e-42
-3.392e-41
2.242e-40
-1.464e-39
9.466e-39
-6.064e-38
3.854e-37
-2.433e-36
1.526e-35
-9.518e-35
5.904e-34
-3.643e-33
2.235e-32
-1.363e-31
8.258e-31
-4.972e-30
2.974e-29
-1.766e-28
1.042e-27
-6.094e-27
3.537e-26
-2.035e-25
1.16e-24
-6.548e-24
3.659e-23
-2.013e-22
1.126e-21
-5.126e-21
6.702e-20
2.064e-18
2.866e-17
3.444e-16
3.84e-15
3.977e-14
3.803e-13
3.337e-12
2.667e-11
1.928e-10
1.252e-09
7.255e-09
3.729e-08
1.691e-07
6.732e-07
2.344e-06
7.114e-06
1.877e-05
4.31e-05
8.616e-05
0.0001506
0.0002316
0.0003165
0.0003849
0.000437
0.0004342
0.0004136
0.0003736
0.0003214
0.0002649
0.0002104
0.000162
0.0001214
8.891e-05
6.397e-05
4.54e-05
3.192e-05
2.232e-05
1.56e-05
1.093e-05
7.701e-06
5.478e-06
3.943e-06
2.878e-06
2.133e-06
1.607e-06
1.232e-06
9.622e-07
7.651e-07
6.195e-07
5.108e-07
4.286e-07
3.659e-07
3.175e-07
2.799e-07
2.505e-07
2.274e-07
2.092e-07
1.949e-07
1.837e-07
1.751e-07
1.686e-07
1.638e-07
1.606e-07
1.586e-07
1.579e-07
1.584e-07
1.597e-07
1.619e-07
1.65e-07
1.689e-07
1.736e-07
1.791e-07
1.853e-07
1.924e-07
2.002e-07
2.089e-07
2.183e-07
2.286e-07
2.397e-07
2.517e-07
2.646e-07
2.784e-07
2.931e-07
3.088e-07
3.254e-07
3.422e-07
3.693e-07
6.595e-52
-6.395e-51
5.079e-50
-3.932e-49
2.95e-48
-2.147e-47
1.518e-46
-1.046e-45
7.036e-45
-4.64e-44
3.01e-43
-1.926e-42
1.22e-41
-7.665e-41
4.79e-40
-2.982e-39
1.853e-38
-1.151e-37
7.148e-37
-4.447e-36
2.772e-35
-1.734e-34
1.088e-33
-6.866e-33
4.327e-32
-2.713e-31
1.693e-30
-1.051e-29
6.488e-29
-3.985e-28
2.435e-27
-1.479e-26
8.935e-26
-5.363e-25
3.198e-24
-1.893e-23
1.114e-22
-6.423e-22
3.982e-21
-1.674e-20
5.464e-19
1.263e-17
1.734e-16
2.13e-15
2.436e-14
2.582e-13
2.521e-12
2.248e-11
1.818e-10
1.323e-09
8.583e-09
4.932e-08
2.491e-07
1.099e-06
4.212e-06
1.396e-05
3.989e-05
9.818e-05
0.000209
0.0003851
0.0006226
0.0008901
0.001136
0.001321
0.001383
0.001342
0.001239
0.001091
0.0009205
0.000748
0.0005877
0.0004484
0.0003334
0.0002425
0.0001732
0.000122
8.511e-05
5.905e-05
4.093e-05
2.845e-05
1.99e-05
1.406e-05
1.005e-05
7.294e-06
5.376e-06
4.032e-06
3.079e-06
2.394e-06
1.897e-06
1.532e-06
1.259e-06
1.054e-06
8.972e-07
7.767e-07
6.831e-07
6.099e-07
5.523e-07
5.069e-07
4.711e-07
4.429e-07
4.211e-07
4.043e-07
3.919e-07
3.831e-07
3.777e-07
3.743e-07
3.748e-07
3.769e-07
3.81e-07
3.871e-07
3.95e-07
4.048e-07
4.164e-07
4.297e-07
4.447e-07
4.614e-07
4.799e-07
5.002e-07
5.222e-07
5.461e-07
5.718e-07
5.994e-07
6.289e-07
6.603e-07
6.937e-07
7.293e-07
7.649e-07
8.226e-07
-1.19e-51
1.153e-50
-9.159e-50
7.096e-49
-5.335e-48
3.892e-47
-2.759e-46
1.902e-45
-1.278e-44
8.398e-44
-5.407e-43
3.424e-42
-2.14e-41
1.324e-40
-8.147e-40
4.999e-39
-3.068e-38
1.89e-37
-1.17e-36
7.295e-36
-4.584e-35
2.903e-34
-1.853e-33
1.193e-32
-7.642e-32
4.856e-31
-3.065e-30
1.922e-29
-1.199e-28
7.435e-28
-4.588e-27
2.818e-26
-1.723e-25
1.049e-24
-6.362e-24
3.846e-23
-2.303e-22
1.445e-21
-5.421e-21
1.865e-19
4.639e-18
6.865e-17
9.196e-16
1.153e-14
1.347e-13
1.456e-12
1.444e-11
1.303e-10
1.06e-09
7.704e-09
4.955e-08
2.795e-07
1.371e-06
5.798e-06
2.102e-05
6.504e-05
0.0001714
0.000386
0.0007482
0.001253
0.001867
0.002476
0.002954
0.003261
0.003226
0.003069
0.002795
0.002449
0.002071
0.001691
0.001338
0.001028
0.0007699
0.0005633
0.0004042
0.0002856
0.0001996
0.0001386
9.607e-05
6.675e-05
4.667e-05
3.295e-05
2.355e-05
1.708e-05
1.259e-05
9.443e-06
7.213e-06
5.613e-06
4.45e-06
3.595e-06
2.958e-06
2.477e-06
2.11e-06
1.827e-06
1.608e-06
1.435e-06
1.3e-06
1.193e-06
1.108e-06
1.041e-06
9.889e-07
9.486e-07
9.185e-07
8.966e-07
8.828e-07
8.727e-07
8.729e-07
8.762e-07
8.839e-07
8.961e-07
9.125e-07
9.33e-07
9.575e-07
9.857e-07
1.018e-06
1.054e-06
1.093e-06
1.136e-06
1.184e-06
1.235e-06
1.29e-06
1.349e-06
1.412e-06
1.478e-06
1.549e-06
1.625e-06
1.7e-06
1.822e-06
2.902e-51
-2.682e-50
2.07e-49
-1.595e-48
1.215e-47
-9.136e-47
6.764e-46
-4.924e-45
3.52e-44
-2.471e-43
1.703e-42
-1.153e-41
7.683e-41
-5.039e-40
3.259e-39
-2.081e-38
1.313e-37
-8.206e-37
5.082e-36
-3.123e-35
1.907e-34
-1.157e-33
6.987e-33
-4.201e-32
2.511e-31
-1.493e-30
8.842e-30
-5.219e-29
3.071e-28
-1.803e-27
1.057e-26
-6.19e-26
3.623e-25
-2.121e-24
1.243e-23
-7.27e-23
4.398e-22
-1.952e-21
3.928e-20
1.309e-18
2.135e-17
3.108e-16
4.247e-15
5.434e-14
6.465e-13
7.094e-12
7.116e-11
6.462e-10
5.258e-09
3.793e-08
2.398e-07
1.314e-06
6.18e-06
2.469e-05
8.319e-05
0.0002356
0.0005622
0.001141
0.001986
0.003023
0.004177
0.005245
0.00579
0.005977
0.005784
0.005423
0.004975
0.004438
0.003811
0.003162
0.002545
0.001992
0.001517
0.001128
0.0008205
0.0005868
0.0004142
0.0002901
0.0002026
0.0001417
9.963e-05
7.072e-05
5.082e-05
3.704e-05
2.744e-05
2.069e-05
1.588e-05
1.241e-05
9.888e-06
8.022e-06
6.627e-06
5.571e-06
4.762e-06
4.138e-06
3.65e-06
3.268e-06
2.965e-06
2.725e-06
2.535e-06
2.385e-06
2.267e-06
2.176e-06
2.107e-06
2.057e-06
2.025e-06
2.002e-06
1.999e-06
2.005e-06
2.021e-06
2.046e-06
2.08e-06
2.124e-06
2.176e-06
2.236e-06
2.305e-06
2.381e-06
2.466e-06
2.559e-06
2.66e-06
2.769e-06
2.886e-06
3.011e-06
3.145e-06
3.287e-06
3.437e-06
3.596e-06
3.754e-06
4.011e-06
4.849e-51
-4.753e-50
3.833e-49
-3.028e-48
2.329e-47
-1.744e-46
1.271e-45
-9.033e-45
6.263e-44
-4.247e-43
2.821e-42
-1.841e-41
1.183e-40
-7.507e-40
4.715e-39
-2.94e-38
1.823e-37
-1.127e-36
6.959e-36
-4.298e-35
2.658e-34
-1.647e-33
1.024e-32
-6.39e-32
3.984e-31
-2.471e-30
1.526e-29
-9.385e-29
5.758e-28
-3.527e-27
2.158e-26
-1.321e-25
8.093e-25
-4.967e-24
3.06e-23
-1.88e-22
1.23e-21
-4.29e-21
1.865e-19
5.098e-18
8.294e-17
1.228e-15
1.709e-14
2.224e-13
2.685e-12
2.98e-11
3.012e-10
2.741e-09
2.22e-08
1.58e-07
9.744e-07
5.142e-06
2.291e-05
8.52e-05
0.0002624
0.0006691
0.001428
0.002596
0.004038
0.00577
0.007453
0.01009
0.01038
0.01021
0.0103
0.01035
0.009668
0.007394
0.006073
0.005108
0.004198
0.003359
0.002615
0.001984
0.001472
0.001071
0.0007683
0.000546
0.0003863
0.0002735
0.0001945
0.0001396
0.0001014
7.465e-05
5.584e-05
4.249e-05
3.291e-05
2.596e-05
2.085e-05
1.705e-05
1.419e-05
1.201e-05
1.033e-05
9.026e-06
8.005e-06
7.199e-06
6.56e-06
6.052e-06
5.649e-06
5.329e-06
5.077e-06
4.882e-06
4.735e-06
4.628e-06
4.558e-06
4.509e-06
4.504e-06
4.517e-06
4.551e-06
4.606e-06
4.681e-06
4.774e-06
4.886e-06
5.016e-06
5.163e-06
5.327e-06
5.508e-06
5.706e-06
5.92e-06
6.152e-06
6.4e-06
6.665e-06
6.946e-06
7.244e-06
7.558e-06
7.891e-06
8.22e-06
8.75e-06
-1.014e-50
9.305e-50
-7.148e-49
5.493e-48
-4.184e-47
3.149e-46
-2.337e-45
1.708e-44
-1.226e-43
8.655e-43
-5.999e-42
4.084e-41
-2.733e-40
1.799e-39
-1.165e-38
7.439e-38
-4.684e-37
2.912e-36
-1.79e-35
1.089e-34
-6.567e-34
3.928e-33
-2.334e-32
1.379e-31
-8.086e-31
4.727e-30
-2.758e-29
1.607e-28
-9.372e-28
5.472e-27
-3.202e-26
1.881e-25
-1.11e-24
6.591e-24
-3.932e-23
2.433e-22
-1.09e-21
2.861e-20
1.002e-18
1.772e-17
2.823e-16
4.242e-15
5.995e-14
7.909e-13
9.659e-12
1.081e-10
1.097e-09
9.973e-09
8.006e-08
5.593e-07
3.345e-06
1.686e-05
7.047e-05
0.000241
0.0006695
0.001521
0.002895
0.00476
0.006689
0.01019
0.009945
0.0107
0.0107
0.01034
0.01045
0.01134
0.01054
0.01007
0.01027
0.008114
0.006337
0.005128
0.004065
0.003145
0.002379
0.001765
0.00129
0.0009332
0.0006718
0.0004836
0.0003496
0.0002548
0.0001878
0.0001404
0.0001065
8.215e-05
6.446e-05
5.147e-05
4.183e-05
3.458e-05
2.908e-05
2.485e-05
2.157e-05
1.9e-05
1.698e-05
1.537e-05
1.409e-05
1.307e-05
1.226e-05
1.162e-05
1.111e-05
1.072e-05
1.042e-05