/*--------------------------------*- C++ -*----------------------------------*\
  =========                 |
  \\      /  F ield         | OpenFOAM: The Open Source CFD Toolbox
   \\    /   O peration     | Website:  https://openfoam.org
    \\  /    A nd           | Version:  7
     \\/     M anipulation  |
\*---------------------------------------------------------------------------*/
FoamFile
{
    version     2.0;
    format      ascii;
    class       volScalarField;
    location    "1319.99947341706002";
    object      p;
}
// * * * * * * * * * * * * * * * * * * * * * * * * * * * * * * * * * * * * * //

dimensions      [0 2 -2 0 0 0 0];

internalField   nonuniform List<scalar> 
4096
(
0.0006075
0.0004366
0.0003524
0.0003102
0.0002868
0.0002729
0.000264
0.0002579
0.0002536
0.0002503
0.0002478
0.0002457
0.0002441
0.0002427
0.0002415
0.0002405
0.0002397
0.0002389
0.0002382
0.0002375
0.0002369
0.0002363
0.0002358
0.0002353
0.0002348
0.0002343
0.0002338
0.0002333
0.0002328
0.0002323
0.0002318
0.0002313
0.0002308
0.0002302
0.0002296
0.000229
0.0002283
0.0002276
0.0002267
0.0002258
0.0002248
0.0002237
0.0002224
0.000221
0.0002194
0.0002176
0.0002155
0.0002132
0.0002106
0.0002077
0.0002044
0.0002008
0.0001968
0.0001924
0.0001875
0.0001823
0.0001767
0.0001707
0.0001643
0.0001576
0.0001506
0.0001435
0.0001361
0.0001287
0.0001212
0.0001137
0.0001064
9.926e-05
9.232e-05
8.566e-05
7.929e-05
7.326e-05
6.758e-05
6.227e-05
5.734e-05
5.278e-05
4.859e-05
4.476e-05
4.127e-05
3.812e-05
3.527e-05
3.272e-05
3.043e-05
2.838e-05
2.656e-05
2.493e-05
2.348e-05
2.219e-05
2.103e-05
1.999e-05
1.906e-05
1.821e-05
1.744e-05
1.673e-05
1.607e-05
1.546e-05
1.488e-05
1.433e-05
1.38e-05
1.33e-05
1.28e-05
1.232e-05
1.185e-05
1.138e-05
1.092e-05
1.045e-05
9.992e-06
9.532e-06
9.07e-06
8.607e-06
8.142e-06
7.675e-06
7.206e-06
6.734e-06
6.258e-06
5.78e-06
5.298e-06
4.813e-06
4.325e-06
3.833e-06
3.339e-06
2.842e-06
2.344e-06
1.847e-06
1.354e-06
8.722e-07
4.162e-07
6.973e-08
0.000463
0.0003993
0.0003495
0.0003175
0.0002965
0.0002823
0.0002722
0.0002649
0.0002594
0.0002552
0.0002519
0.0002492
0.000247
0.0002452
0.0002436
0.0002423
0.0002412
0.0002401
0.0002392
0.0002384
0.0002376
0.0002369
0.0002362
0.0002355
0.0002349
0.0002343
0.0002337
0.0002331
0.0002325
0.0002319
0.0002313
0.0002306
0.00023
0.0002293
0.0002286
0.0002278
0.000227
0.0002261
0.0002252
0.0002241
0.000223
0.0002217
0.0002203
0.0002187
0.000217
0.000215
0.0002129
0.0002104
0.0002077
0.0002048
0.0002015
0.0001978
0.0001939
0.0001895
0.0001848
0.0001797
0.0001743
0.0001685
0.0001624
0.000156
0.0001493
0.0001425
0.0001355
0.0001284
0.0001213
0.0001142
0.0001073
0.0001004
9.382e-05
8.743e-05
8.132e-05
7.551e-05
7.002e-05
6.486e-05
6.004e-05
5.555e-05
5.141e-05
4.76e-05
4.411e-05
4.092e-05
3.802e-05
3.54e-05
3.302e-05
3.088e-05
2.894e-05
2.72e-05
2.563e-05
2.422e-05
2.294e-05
2.178e-05
2.072e-05
1.976e-05
1.887e-05
1.805e-05
1.729e-05
1.658e-05
1.59e-05
1.527e-05
1.466e-05
1.408e-05
1.351e-05
1.296e-05
1.243e-05
1.19e-05
1.139e-05
1.088e-05
1.038e-05
9.875e-06
9.378e-06
8.883e-06
8.389e-06
7.896e-06
7.403e-06
6.91e-06
6.416e-06
5.921e-06
5.424e-06
4.927e-06
4.428e-06
3.928e-06
3.426e-06
2.925e-06
2.424e-06
1.924e-06
1.43e-06
9.447e-07
4.765e-07
9.47e-08
0.0003796
0.0003579
0.0003324
0.0003117
0.0002962
0.0002845
0.0002755
0.0002684
0.0002629
0.0002584
0.0002548
0.0002518
0.0002493
0.0002472
0.0002454
0.0002438
0.0002425
0.0002412
0.0002401
0.0002391
0.0002382
0.0002373
0.0002365
0.0002357
0.000235
0.0002343
0.0002336
0.0002328
0.0002321
0.0002314
0.0002307
0.00023
0.0002292
0.0002284
0.0002276
0.0002267
0.0002257
0.0002247
0.0002236
0.0002225
0.0002212
0.0002198
0.0002183
0.0002166
0.0002147
0.0002127
0.0002104
0.0002079
0.0002052
0.0002022
0.0001988
0.0001952
0.0001913
0.000187
0.0001824
0.0001774
0.0001722
0.0001666
0.0001607
0.0001545
0.0001481
0.0001416
0.0001349
0.0001281
0.0001214
0.0001146
0.000108
0.0001014
9.509e-05
8.897e-05
8.308e-05
7.747e-05
7.215e-05
6.714e-05
6.243e-05
5.803e-05
5.394e-05
5.016e-05
4.667e-05
4.346e-05
4.053e-05
3.785e-05
3.541e-05
3.318e-05
3.116e-05
2.932e-05
2.765e-05
2.613e-05
2.474e-05
2.347e-05
2.231e-05
2.124e-05
2.025e-05
1.933e-05
1.847e-05
1.767e-05
1.691e-05
1.619e-05
1.55e-05
1.485e-05
1.421e-05
1.36e-05
1.301e-05
1.243e-05
1.186e-05
1.131e-05
1.076e-05
1.022e-05
9.691e-06
9.164e-06
8.641e-06
8.122e-06
7.605e-06
7.091e-06
6.578e-06
6.066e-06
5.555e-06
5.045e-06
4.535e-06
4.025e-06
3.516e-06
3.007e-06
2.499e-06
1.994e-06
1.492e-06
9.959e-07
5.082e-07
9.867e-08
0.0003348
0.0003278
0.0003144
0.0003013
0.0002904
0.0002816
0.0002745
0.0002686
0.0002637
0.0002596
0.0002561
0.0002532
0.0002506
0.0002484
0.0002465
0.0002449
0.0002434
0.000242
0.0002408
0.0002397
0.0002387
0.0002377
0.0002368
0.0002359
0.0002351
0.0002342
0.0002334
0.0002326
0.0002318
0.000231
0.0002302
0.0002294
0.0002285
0.0002276
0.0002267
0.0002257
0.0002246
0.0002235
0.0002223
0.0002211
0.0002197
0.0002182
0.0002166
0.0002148
0.0002128
0.0002107
0.0002084
0.0002058
0.0002031
0.0002
0.0001967
0.0001931
0.0001892
0.000185
0.0001805
0.0001756
0.0001705
0.0001651
0.0001594
0.0001534
0.0001472
0.0001409
0.0001345
0.0001279
0.0001214
0.0001149
0.0001085
0.0001022
9.606e-05
9.014e-05
8.444e-05
7.9e-05
7.383e-05
6.893e-05
6.432e-05
6e-05
5.597e-05
5.222e-05
4.875e-05
4.555e-05
4.259e-05
3.988e-05
3.739e-05
3.512e-05
3.303e-05
3.112e-05
2.938e-05
2.777e-05
2.63e-05
2.495e-05
2.37e-05
2.254e-05
2.146e-05
2.046e-05
1.952e-05
1.864e-05
1.781e-05
1.702e-05
1.626e-05
1.554e-05
1.485e-05
1.418e-05
1.354e-05
1.291e-05
1.23e-05
1.17e-05
1.112e-05
1.055e-05
9.983e-06
9.427e-06
8.877e-06
8.334e-06
7.796e-06
7.262e-06
6.731e-06
6.204e-06
5.679e-06
5.156e-06
4.635e-06
4.116e-06
3.597e-06
3.08e-06
2.565e-06
2.051e-06
1.538e-06
1.029e-06
5.226e-07
9.541e-08
0.0003079
0.0003069
0.0003
0.0002914
0.0002836
0.000277
0.0002715
0.0002668
0.0002628
0.0002593
0.0002562
0.0002535
0.0002511
0.000249
0.0002471
0.0002454
0.0002439
0.0002425
0.0002412
0.0002401
0.000239
0.0002379
0.0002369
0.000236
0.0002351
0.0002342
0.0002333
0.0002324
0.0002315
0.0002306
0.0002297
0.0002288
0.0002279
0.0002269
0.0002259
0.0002248
0.0002237
0.0002225
0.0002212
0.0002199
0.0002184
0.0002168
0.0002151
0.0002133
0.0002113
0.0002091
0.0002068
0.0002042
0.0002014
0.0001983
0.000195
0.0001915
0.0001876
0.0001835
0.000179
0.0001743
0.0001692
0.0001639
0.0001583
0.0001525
0.0001465
0.0001404
0.0001341
0.0001277
0.0001214
0.0001151
0.0001088
0.0001027
9.676e-05
9.1e-05
8.546e-05
8.016e-05
7.51e-05
7.031e-05
6.579e-05
6.154e-05
5.756e-05
5.385e-05
5.04e-05
4.721e-05
4.425e-05
4.152e-05
3.901e-05
3.67e-05
3.457e-05
3.261e-05
3.081e-05
2.915e-05
2.761e-05
2.619e-05
2.488e-05
2.365e-05
2.251e-05
2.144e-05
2.043e-05
1.949e-05
1.859e-05
1.774e-05
1.693e-05
1.616e-05
1.542e-05
1.47e-05
1.401e-05
1.334e-05
1.269e-05
1.206e-05
1.144e-05
1.084e-05
1.025e-05
9.664e-06
9.091e-06
8.526e-06
7.969e-06
7.417e-06
6.871e-06
6.329e-06
5.792e-06
5.258e-06
4.726e-06
4.197e-06
3.67e-06
3.145e-06
2.62e-06
2.097e-06
1.575e-06
1.053e-06
5.315e-07
9.168e-08
0.0002906
0.0002921
0.0002887
0.0002831
0.0002774
0.0002723
0.000268
0.0002642
0.0002609
0.000258
0.0002554
0.000253
0.0002509
0.0002489
0.0002472
0.0002455
0.0002441
0.0002427
0.0002414
0.0002402
0.0002391
0.000238
0.000237
0.000236
0.000235
0.0002341
0.0002331
0.0002322
0.0002313
0.0002303
0.0002294
0.0002284
0.0002274
0.0002263
0.0002252
0.0002241
0.0002229
0.0002216
0.0002203
0.0002189
0.0002174
0.0002157
0.000214
0.0002121
0.0002101
0.0002079
0.0002055
0.0002029
0.0002001
0.000197
0.0001938
0.0001902
0.0001864
0.0001823
0.0001779
0.0001732
0.0001683
0.0001631
0.0001576
0.0001519
0.000146
0.0001399
0.0001338
0.0001276
0.0001213
0.0001151
0.000109
0.0001031
9.724e-05
9.161e-05
8.618e-05
8.099e-05
7.603e-05
7.132e-05
6.688e-05
6.269e-05
5.876e-05
5.508e-05
5.166e-05
4.848e-05
4.553e-05
4.28e-05
4.028e-05
3.795e-05
3.579e-05
3.38e-05
3.197e-05
3.026e-05
2.868e-05
2.721e-05
2.585e-05
2.457e-05
2.338e-05
2.226e-05
2.12e-05
2.02e-05
1.926e-05
1.836e-05
1.75e-05
1.668e-05
1.59e-05
1.514e-05
1.441e-05
1.371e-05
1.303e-05
1.237e-05
1.172e-05
1.109e-05
1.047e-05
9.87e-06
9.277e-06
8.694e-06
8.119e-06
7.553e-06
6.993e-06
6.439e-06
5.89e-06
5.346e-06
4.805e-06
4.268e-06
3.733e-06
3.199e-06
2.667e-06
2.136e-06
1.605e-06
1.073e-06
5.385e-07
8.896e-08
0.0002786
0.0002811
0.0002798
0.0002762
0.000272
0.000268
0.0002645
0.0002615
0.0002587
0.0002563
0.0002541
0.0002521
0.0002502
0.0002484
0.0002468
0.0002453
0.0002439
0.0002426
0.0002414
0.0002402
0.0002391
0.000238
0.0002369
0.0002359
0.0002349
0.0002339
0.000233
0.000232
0.000231
0.00023
0.000229
0.000228
0.0002269
0.0002258
0.0002247
0.0002235
0.0002223
0.000221
0.0002196
0.0002181
0.0002166
0.0002149
0.0002131
0.0002112
0.0002092
0.0002069
0.0002045
0.0002019
0.0001991
0.0001961
0.0001928
0.0001893
0.0001855
0.0001815
0.0001771
0.0001725
0.0001676
0.0001625
0.0001571
0.0001514
0.0001456
0.0001396
0.0001335
0.0001274
0.0001213
0.0001152
0.0001091
0.0001033
9.753e-05
9.198e-05
8.665e-05
8.153e-05
7.665e-05
7.201e-05
6.762e-05
6.348e-05
5.959e-05
5.595e-05
5.256e-05
4.94e-05
4.646e-05
4.374e-05
4.122e-05
3.888e-05
3.672e-05
3.471e-05
3.285e-05
3.112e-05
2.951e-05
2.801e-05
2.661e-05
2.53e-05
2.407e-05
2.291e-05
2.181e-05
2.078e-05
1.979e-05
1.886e-05
1.796e-05
1.711e-05
1.629e-05
1.55e-05
1.475e-05
1.401e-05
1.331e-05
1.262e-05
1.195e-05
1.13e-05
1.066e-05
1.004e-05
9.43e-06
8.832e-06
8.244e-06
7.665e-06
7.094e-06
6.53e-06
5.972e-06
5.419e-06
4.87e-06
4.326e-06
3.784e-06
3.244e-06
2.706e-06
2.168e-06
1.629e-06
1.089e-06
5.453e-07
8.783e-08
0.00027
0.0002728
0.0002727
0.0002704
0.0002674
0.0002643
0.0002614
0.0002588
0.0002565
0.0002545
0.0002526
0.0002509
0.0002492
0.0002477
0.0002462
0.0002449
0.0002436
0.0002423
0.0002412
0.00024
0.0002389
0.0002379
0.0002368
0.0002358
0.0002348
0.0002338
0.0002328
0.0002318
0.0002308
0.0002298
0.0002288
0.0002277
0.0002266
0.0002255
0.0002243
0.0002231
0.0002218
0.0002205
0.0002191
0.0002176
0.000216
0.0002143
0.0002125
0.0002106
0.0002085
0.0002063
0.0002039
0.0002013
0.0001985
0.0001955
0.0001923
0.0001888
0.000185
0.000181
0.0001767
0.0001721
0.0001673
0.0001621
0.0001568
0.0001512
0.0001454
0.0001394
0.0001334
0.0001272
0.0001211
0.0001151
0.0001091
0.0001033
9.762e-05
9.214e-05
8.687e-05
8.181e-05
7.698e-05
7.238e-05
6.804e-05
6.394e-05
6.008e-05
5.648e-05
5.311e-05
4.997e-05
4.706e-05
4.435e-05
4.184e-05
3.951e-05
3.735e-05
3.534e-05
3.347e-05
3.173e-05
3.011e-05
2.859e-05
2.717e-05
2.584e-05
2.458e-05
2.339e-05
2.227e-05
2.121e-05
2.02e-05
1.923e-05
1.832e-05
1.744e-05
1.659e-05
1.578e-05
1.5e-05
1.425e-05
1.352e-05
1.281e-05
1.212e-05
1.146e-05
1.081e-05
1.017e-05
9.548e-06
8.938e-06
8.339e-06
7.751e-06
7.171e-06
6.599e-06
6.034e-06
5.475e-06
4.921e-06
4.371e-06
3.824e-06
3.279e-06
2.736e-06
2.193e-06
1.65e-06
1.103e-06
5.524e-07
8.855e-08
0.0002635
0.0002662
0.0002668
0.0002656
0.0002634
0.000261
0.0002586
0.0002564
0.0002545
0.0002527
0.0002511
0.0002496
0.0002481
0.0002468
0.0002455
0.0002443
0.0002431
0.0002419
0.0002408
0.0002397
0.0002387
0.0002377
0.0002366
0.0002356
0.0002346
0.0002336
0.0002326
0.0002316
0.0002306
0.0002296
0.0002286
0.0002275
0.0002264
0.0002252
0.0002241
0.0002228
0.0002215
0.0002202
0.0002188
0.0002173
0.0002157
0.000214
0.0002122
0.0002102
0.0002082
0.000206
0.0002036
0.000201
0.0001982
0.0001952
0.000192
0.0001886
0.0001848
0.0001808
0.0001765
0.000172
0.0001671
0.000162
0.0001566
0.000151
0.0001452
0.0001393
0.0001332
0.0001271
0.000121
0.0001149
0.000109
0.0001032
9.755e-05
9.21e-05
8.686e-05
8.183e-05
7.703e-05
7.247e-05
6.815e-05
6.408e-05
6.025e-05
5.667e-05
5.333e-05
5.022e-05
4.733e-05
4.464e-05
4.215e-05
3.984e-05
3.769e-05
3.57e-05
3.384e-05
3.21e-05
3.048e-05
2.896e-05
2.753e-05
2.618e-05
2.491e-05
2.371e-05
2.258e-05
2.15e-05
2.047e-05
1.949e-05
1.855e-05
1.766e-05
1.68e-05
1.597e-05
1.517e-05
1.441e-05
1.366e-05
1.294e-05
1.224e-05
1.157e-05
1.09e-05
1.026e-05
9.627e-06
9.009e-06
8.403e-06
7.808e-06
7.223e-06
6.646e-06
6.076e-06
5.513e-06
4.955e-06
4.402e-06
3.852e-06
3.304e-06
2.758e-06
2.213e-06
1.666e-06
1.116e-06
5.604e-07
9.129e-08
0.0002585
0.000261
0.000262
0.0002614
0.0002599
0.0002581
0.0002561
0.0002543
0.0002526
0.000251
0.0002496
0.0002483
0.000247
0.0002458
0.0002447
0.0002436
0.0002425
0.0002414
0.0002404
0.0002394
0.0002384
0.0002374
0.0002364
0.0002354
0.0002345
0.0002335
0.0002325
0.0002315
0.0002305
0.0002295
0.0002284
0.0002274
0.0002262
0.0002251
0.0002239
0.0002227
0.0002214
0.00022
0.0002186
0.0002171
0.0002155
0.0002139
0.0002121
0.0002101
0.0002081
0.0002059
0.0002035
0.000201
0.0001983
0.0001953
0.0001921
0.0001886
0.0001849
0.0001809
0.0001767
0.0001721
0.0001673
0.0001621
0.0001567
0.0001511
0.0001452
0.0001392
0.0001331
0.0001269
0.0001208
0.0001147
0.0001088
0.0001029
9.731e-05
9.186e-05
8.662e-05
8.16e-05
7.681e-05
7.226e-05
6.795e-05
6.389e-05
6.009e-05
5.653e-05
5.322e-05
5.014e-05
4.728e-05
4.463e-05
4.217e-05
3.988e-05
3.776e-05
3.579e-05
3.395e-05
3.223e-05
3.062e-05
2.911e-05
2.768e-05
2.634e-05
2.507e-05
2.387e-05
2.273e-05
2.165e-05
2.061e-05
1.962e-05
1.868e-05
1.777e-05
1.691e-05
1.607e-05
1.527e-05
1.449e-05
1.374e-05
1.301e-05
1.231e-05
1.162e-05
1.095e-05
1.03e-05
9.667e-06
9.045e-06
8.435e-06
7.837e-06
7.248e-06
6.669e-06
6.097e-06
5.532e-06
4.973e-06
4.418e-06
3.867e-06
3.319e-06
2.772e-06
2.226e-06
1.678e-06
1.127e-06
5.694e-07
9.619e-08
0.0002544
0.0002568
0.000258
0.0002578
0.0002569
0.0002555
0.0002539
0.0002524
0.0002509
0.0002495
0.0002483
0.0002471
0.000246
0.0002449
0.0002439
0.0002429
0.0002419
0.0002409
0.00024
0.000239
0.0002381
0.0002371
0.0002362
0.0002353
0.0002343
0.0002334
0.0002324
0.0002314
0.0002304
0.0002294
0.0002284
0.0002273
0.0002262
0.0002251
0.0002239
0.0002227
0.0002214
0.0002201
0.0002187
0.0002172
0.0002156
0.000214
0.0002122
0.0002103
0.0002083
0.0002061
0.0002038
0.0002013
0.0001986
0.0001957
0.0001925
0.0001891
0.0001854
0.0001814
0.0001771
0.0001725
0.0001676
0.0001625
0.000157
0.0001513
0.0001454
0.0001393
0.000133
0.0001268
0.0001206
0.0001144
0.0001084
0.0001026
9.689e-05
9.142e-05
8.616e-05
8.112e-05
7.631e-05
7.175e-05
6.744e-05
6.339e-05
5.959e-05
5.606e-05
5.277e-05
4.973e-05
4.691e-05
4.43e-05
4.188e-05
3.964e-05
3.756e-05
3.563e-05
3.382e-05
3.213e-05
3.054e-05
2.905e-05
2.765e-05
2.632e-05
2.506e-05
2.387e-05
2.273e-05
2.165e-05
2.062e-05
1.964e-05
1.869e-05
1.779e-05
1.692e-05
1.608e-05
1.528e-05
1.45e-05
1.375e-05
1.302e-05
1.231e-05
1.162e-05
1.095e-05
1.03e-05
9.666e-06
9.044e-06
8.434e-06
7.835e-06
7.247e-06
6.667e-06
6.096e-06
5.532e-06
4.973e-06
4.42e-06
3.87e-06
3.323e-06
2.778e-06
2.233e-06
1.686e-06
1.136e-06
5.796e-07
1.033e-07
0.0002511
0.0002533
0.0002546
0.0002548
0.0002542
0.0002532
0.000252
0.0002507
0.0002494
0.0002482
0.0002471
0.000246
0.000245
0.000244
0.0002431
0.0002422
0.0002413
0.0002404
0.0002395
0.0002386
0.0002377
0.0002369
0.000236
0.0002351
0.0002342
0.0002332
0.0002323
0.0002314
0.0002304
0.0002294
0.0002284
0.0002274
0.0002263
0.0002252
0.000224
0.0002228
0.0002216
0.0002203
0.0002189
0.0002174
0.0002159
0.0002143
0.0002126
0.0002107
0.0002088
0.0002067
0.0002044
0.0002019
0.0001993
0.0001964
0.0001932
0.0001898
0.0001862
0.0001822
0.0001779
0.0001733
0.0001683
0.0001631
0.0001575
0.0001517
0.0001456
0.0001394
0.000133
0.0001266
0.0001203
0.000114
0.0001079
0.000102
9.628e-05
9.075e-05
8.544e-05
8.035e-05
7.551e-05
7.092e-05
6.659e-05
6.253e-05
5.875e-05
5.524e-05
5.199e-05
4.899e-05
4.622e-05
4.366e-05
4.13e-05
3.912e-05
3.709e-05
3.521e-05
3.345e-05
3.18e-05
3.025e-05
2.88e-05
2.742e-05
2.612e-05
2.488e-05
2.371e-05
2.259e-05
2.153e-05
2.051e-05
1.953e-05
1.86e-05
1.77e-05
1.684e-05
1.601e-05
1.521e-05
1.443e-05
1.368e-05
1.296e-05
1.226e-05
1.157e-05
1.091e-05
1.026e-05
9.626e-06
9.006e-06
8.399e-06
7.804e-06
7.218e-06
6.642e-06
6.074e-06
5.513e-06
4.958e-06
4.407e-06
3.861e-06
3.318e-06
2.776e-06
2.234e-06
1.691e-06
1.144e-06
5.911e-07
1.128e-07
0.0002484
0.0002504
0.0002517
0.0002521
0.0002519
0.0002512
0.0002502
0.0002491
0.0002481
0.000247
0.000246
0.000245
0.0002441
0.0002432
0.0002424
0.0002415
0.0002407
0.0002399
0.0002391
0.0002382
0.0002374
0.0002366
0.0002358
0.0002349
0.000234
0.0002332
0.0002323
0.0002314
0.0002304
0.0002295
0.0002285
0.0002275
0.0002265
0.0002254
0.0002243
0.0002231
0.0002219
0.0002206
0.0002193
0.0002179
0.0002164
0.0002148
0.0002132
0.0002114
0.0002095
0.0002075
0.0002053
0.0002029
0.0002003
0.0001974
0.0001944
0.000191
0.0001873
0.0001833
0.000179
0.0001743
0.0001693
0.000164
0.0001583
0.0001523
0.0001461
0.0001396
0.0001331
0.0001265
0.00012
0.0001136
0.0001073
0.0001013
9.545e-05
8.983e-05
8.443e-05
7.927e-05
7.436e-05
6.972e-05
6.537e-05
6.13e-05
5.753e-05
5.405e-05
5.084e-05
4.79e-05
4.52e-05
4.271e-05
4.043e-05
3.832e-05
3.636e-05
3.454e-05
3.284e-05
3.125e-05
2.976e-05
2.835e-05
2.701e-05
2.575e-05
2.455e-05
2.34e-05
2.231e-05
2.127e-05
2.027e-05
1.931e-05
1.84e-05
1.751e-05
1.666e-05
1.585e-05
1.506e-05
1.43e-05
1.356e-05
1.284e-05
1.215e-05
1.147e-05
1.081e-05
1.017e-05
9.546e-06
8.933e-06
8.333e-06
7.743e-06
7.164e-06
6.593e-06
6.031e-06
5.475e-06
4.925e-06
4.381e-06
3.84e-06
3.302e-06
2.766e-06
2.23e-06
1.692e-06
1.151e-06
6.039e-07
1.245e-07
0.0002461
0.0002479
0.0002492
0.0002498
0.0002498
0.0002493
0.0002486
0.0002478
0.0002468
0.0002459
0.000245
0.0002441
0.0002433
0.0002425
0.0002417
0.0002409
0.0002402
0.0002394
0.0002387
0.0002379
0.0002371
0.0002364
0.0002356
0.0002348
0.000234
0.0002331
0.0002323
0.0002314
0.0002305
0.0002296
0.0002287
0.0002277
0.0002267
0.0002257
0.0002246
0.0002235
0.0002223
0.0002211
0.0002198
0.0002185
0.0002171
0.0002156
0.000214
0.0002123
0.0002105
0.0002085
0.0002064
0.0002041
0.0002016
0.0001989
0.0001959
0.0001926
0.0001889
0.0001849
0.0001806
0.0001758
0.0001707
0.0001652
0.0001594
0.0001532
0.0001467
0.0001401
0.0001332
0.0001264
0.0001196
0.000113
0.0001065
0.0001003
9.435e-05
8.859e-05
8.307e-05
7.78e-05
7.281e-05
6.811e-05
6.373e-05
5.966e-05
5.59e-05
5.246e-05
4.932e-05
4.645e-05
4.384e-05
4.145e-05
3.925e-05
3.723e-05
3.537e-05
3.363e-05
3.201e-05
3.049e-05
2.906e-05
2.771e-05
2.643e-05
2.522e-05
2.406e-05
2.295e-05
2.19e-05
2.088e-05
1.992e-05
1.899e-05
1.809e-05
1.723e-05
1.641e-05
1.561e-05
1.484e-05
1.409e-05
1.337e-05
1.267e-05
1.198e-05
1.132e-05
1.068e-05
1.005e-05
9.429e-06
8.826e-06
8.235e-06
7.655e-06
7.084e-06
6.522e-06
5.967e-06
5.42e-06
4.878e-06
4.341e-06
3.807e-06
3.277e-06
2.748e-06
2.22e-06
1.69e-06
1.157e-06
6.179e-07
1.383e-07
0.0002441
0.0002458
0.0002471
0.0002478
0.000248
0.0002477
0.0002472
0.0002465
0.0002458
0.000245
0.0002442
0.0002434
0.0002426
0.0002419
0.0002411
0.0002404
0.0002397
0.000239
0.0002383
0.0002376
0.0002369
0.0002362
0.0002354
0.0002347
0.0002339
0.0002332
0.0002324
0.0002315
0.0002307
0.0002298
0.0002289
0.000228
0.0002271
0.0002261
0.0002251
0.000224
0.0002229
0.0002218
0.0002206
0.0002193
0.000218
0.0002165
0.0002151
0.0002135
0.0002118
0.0002099
0.0002079
0.0002057
0.0002034
0.0002007
0.0001978
0.0001946
0.000191
0.000187
0.0001827
0.0001779
0.0001727
0.000167
0.0001609
0.0001545
0.0001477
0.0001407
0.0001335
0.0001263
0.0001192
0.0001122
0.0001055
9.91e-05
9.29e-05
8.696e-05
8.127e-05
7.587e-05
7.078e-05
6.602e-05
6.161e-05
5.754e-05
5.383e-05
5.045e-05
4.74e-05
4.463e-05
4.213e-05
3.986e-05
3.778e-05
3.588e-05
3.412e-05
3.249e-05
3.097e-05
2.953e-05
2.818e-05
2.69e-05
2.569e-05
2.453e-05
2.342e-05
2.237e-05
2.136e-05
2.039e-05
1.945e-05
1.856e-05
1.77e-05
1.687e-05
1.607e-05
1.529e-05
1.455e-05
1.382e-05
1.312e-05
1.244e-05
1.177e-05
1.113e-05
1.05e-05
9.88e-06
9.278e-06
8.688e-06
8.109e-06
7.541e-06
6.981e-06
6.43e-06
5.886e-06
5.348e-06
4.816e-06
4.288e-06
3.764e-06
3.243e-06
2.724e-06
2.204e-06
1.684e-06
1.161e-06
6.331e-07
1.542e-07
0.0002425
0.0002441
0.0002453
0.0002461
0.0002464
0.0002463
0.0002459
0.0002454
0.0002448
0.0002441
0.0002434
0.0002427
0.000242
0.0002413
0.0002406
0.00024
0.0002393
0.0002387
0.000238
0.0002374
0.0002367
0.000236
0.0002354
0.0002347
0.0002339
0.0002332
0.0002325
0.0002317
0.0002309
0.0002301
0.0002293
0.0002284
0.0002275
0.0002266
0.0002256
0.0002246
0.0002236
0.0002225
0.0002214
0.0002202
0.000219
0.0002177
0.0002163
0.0002148
0.0002133
0.0002116
0.0002097
0.0002077
0.0002055
0.000203
0.0002002
0.0001971
0.0001936
0.0001897
0.0001854
0.0001805
0.0001752
0.0001694
0.0001631
0.0001563
0.0001491
0.0001416
0.0001339
0.0001262
0.0001186
0.0001113
0.0001042
9.744e-05
9.096e-05
8.478e-05
7.89e-05
7.335e-05
6.817e-05
6.335e-05
5.893e-05
5.49e-05
5.126e-05
4.798e-05
4.505e-05
4.242e-05
4.007e-05
3.795e-05
3.602e-05
3.426e-05
3.263e-05
3.112e-05
2.971e-05
2.838e-05
2.712e-05
2.593e-05
2.479e-05
2.37e-05
2.266e-05
2.166e-05
2.07e-05
1.978e-05
1.889e-05
1.804e-05
1.722e-05
1.642e-05
1.565e-05
1.491e-05
1.419e-05
1.349e-05
1.282e-05
1.216e-05
1.152e-05
1.089e-05
1.028e-05
9.681e-06
9.095e-06
8.521e-06
7.958e-06
7.403e-06
6.857e-06
6.319e-06
5.787e-06
5.261e-06
4.74e-06
4.224e-06
3.711e-06
3.201e-06
2.693e-06
2.185e-06
1.676e-06
1.165e-06
6.494e-07
1.719e-07
0.000241
0.0002426
0.0002438
0.0002446
0.0002449
0.000245
0.0002448
0.0002444
0.0002439
0.0002433
0.0002427
0.0002421
0.0002415
0.0002408
0.0002402
0.0002396
0.000239
0.0002384
0.0002378
0.0002372
0.0002366
0.000236
0.0002353
0.0002347
0.000234
0.0002333
0.0002326
0.0002319
0.0002312
0.0002304
0.0002297
0.0002289
0.000228
0.0002272
0.0002263
0.0002254
0.0002244
0.0002234
0.0002224
0.0002213
0.0002202
0.000219
0.0002178
0.0002164
0.000215
0.0002135
0.0002118
0.00021
0.0002079
0.0002057
0.0002031
0.0002002
0.0001969
0.0001931
0.0001888
0.000184
0.0001787
0.0001727
0.0001661
0.000159
0.0001513
0.0001431
0.0001347
0.0001262
0.000118
0.00011
0.0001024
9.512e-05
8.83e-05
8.185e-05
7.577e-05
7.009e-05
6.483e-05
6.001e-05
5.563e-05
5.168e-05
4.815e-05
4.503e-05
4.227e-05
3.983e-05
3.766e-05
3.573e-05
3.398e-05
3.239e-05
3.092e-05
2.955e-05
2.827e-05
2.706e-05
2.591e-05
2.481e-05
2.376e-05
2.275e-05
2.178e-05
2.085e-05
1.995e-05
1.908e-05
1.825e-05
1.744e-05
1.666e-05
1.591e-05
1.518e-05
1.447e-05
1.378e-05
1.312e-05
1.247e-05
1.184e-05
1.122e-05
1.062e-05
1.003e-05
9.451e-06
8.885e-06
8.329e-06
7.783e-06
7.245e-06
6.714e-06
6.191e-06
5.673e-06
5.161e-06
4.653e-06
4.15e-06
3.65e-06
3.152e-06
2.656e-06
2.161e-06
1.665e-06
1.168e-06
6.666e-07
1.913e-07
0.0002398
0.0002413
0.0002424
0.0002433
0.0002437
0.0002439
0.0002438
0.0002435
0.0002431
0.0002427
0.0002421
0.0002416
0.000241
0.0002404
0.0002399
0.0002393
0.0002388
0.0002382
0.0002376
0.0002371
0.0002365
0.0002359
0.0002353
0.0002347
0.0002341
0.0002335
0.0002329
0.0002322
0.0002315
0.0002308
0.0002301
0.0002294
0.0002286
0.0002279
0.000227
0.0002262
0.0002254
0.0002245
0.0002235
0.0002226
0.0002215
0.0002205
0.0002194
0.0002182
0.000217
0.0002156
0.0002142
0.0002126
0.0002108
0.0002088
0.0002065
0.0002039
0.0002008
0.0001973
0.0001932
0.0001885
0.0001832
0.0001772
0.0001704
0.0001628
0.0001545
0.0001455
0.000136
0.0001264
0.000117
0.000108
9.956e-05
9.175e-05
8.453e-05
7.784e-05
7.161e-05
6.587e-05
6.064e-05
5.589e-05
5.162e-05
4.783e-05
4.449e-05
4.158e-05
3.905e-05
3.685e-05
3.492e-05
3.321e-05
3.168e-05
3.029e-05
2.9e-05
2.78e-05
2.666e-05
2.558e-05
2.455e-05
2.356e-05
2.26e-05
2.168e-05
2.079e-05
1.993e-05
1.91e-05
1.83e-05
1.752e-05
1.677e-05
1.604e-05
1.533e-05
1.464e-05
1.398e-05
1.333e-05
1.27e-05
1.208e-05
1.148e-05
1.089e-05
1.031e-05
9.749e-06
9.195e-06
8.651e-06
8.116e-06
7.589e-06
7.069e-06
6.556e-06
6.049e-06
5.547e-06
5.05e-06
4.557e-06
4.067e-06
3.581e-06
3.097e-06
2.615e-06
2.134e-06
1.652e-06
1.17e-06
6.845e-07
2.119e-07
0.0002388
0.0002401
0.0002413
0.0002421
0.0002426
0.0002429
0.0002429
0.0002427
0.0002424
0.000242
0.0002416
0.0002411
0.0002406
0.0002401
0.0002396
0.0002391
0.0002385
0.000238
0.0002375
0.000237
0.0002365
0.0002359
0.0002354
0.0002348
0.0002343
0.0002337
0.0002331
0.0002325
0.0002319
0.0002313
0.0002306
0.00023
0.0002293
0.0002286
0.0002279
0.0002271
0.0002263
0.0002256
0.0002247
0.0002239
0.000223
0.0002221
0.0002211
0.0002201
0.0002191
0.000218
0.0002168
0.0002154
0.000214
0.0002123
0.0002103
0.0002081
0.0002054
0.0002022
0.0001985
0.0001941
0.0001891
0.0001832
0.0001765
0.0001687
0.0001598
0.0001498
0.0001384
0.0001267
0.0001153
0.0001047
9.502e-05
8.656e-05
7.909e-05
7.235e-05
6.614e-05
6.052e-05
5.545e-05
5.091e-05
4.688e-05
4.334e-05
4.027e-05
3.765e-05
3.542e-05
3.352e-05
3.188e-05
3.044e-05
2.916e-05
2.799e-05
2.691e-05
2.589e-05
2.491e-05
2.398e-05
2.308e-05
2.22e-05
2.135e-05
2.053e-05
1.972e-05
1.894e-05
1.819e-05
1.745e-05
1.674e-05
1.604e-05
1.536e-05
1.471e-05
1.407e-05
1.344e-05
1.283e-05
1.224e-05
1.166e-05
1.109e-05
1.053e-05
9.985e-06
9.448e-06
8.919e-06
8.399e-06
7.886e-06
7.38e-06
6.88e-06
6.385e-06
5.895e-06
5.41e-06
4.93e-06
4.452e-06
3.978e-06
3.507e-06
3.037e-06
2.57e-06
2.103e-06
1.637e-06
1.171e-06
7.03e-07
2.336e-07
0.0002379
0.0002392
0.0002403
0.0002411
0.0002417
0.000242
0.0002421
0.000242
0.0002418
0.0002415
0.0002411
0.0002407
0.0002403
0.0002398
0.0002394
0.0002389
0.0002384
0.0002379
0.0002374
0.000237
0.0002365
0.000236
0.0002355
0.000235
0.0002345
0.0002339
0.0002334
0.0002329
0.0002323
0.0002318
0.0002312
0.0002306
0.00023
0.0002294
0.0002287
0.0002281
0.0002274
0.0002267
0.000226
0.0002253
0.0002245
0.0002238
0.000223
0.0002222
0.0002214
0.0002205
0.0002195
0.0002185
0.0002174
0.0002161
0.0002146
0.0002128
0.0002106
0.0002079
0.0002047
0.0002009
0.0001965
0.0001913
0.0001852
0.0001778
0.0001688
0.0001579
0.0001434
0.0001273
0.0001119
9.832e-05
8.712e-05
7.849e-05
7.118e-05
6.483e-05
5.905e-05
5.387e-05
4.923e-05
4.508e-05
4.141e-05
3.823e-05
3.553e-05
3.328e-05
3.142e-05
2.988e-05
2.858e-05
2.746e-05
2.646e-05
2.554e-05
2.468e-05
2.386e-05
2.306e-05
2.228e-05
2.151e-05
2.076e-05
2.002e-05
1.93e-05
1.859e-05
1.789e-05
1.721e-05
1.655e-05
1.59e-05
1.527e-05
1.465e-05
1.405e-05
1.346e-05
1.288e-05
1.231e-05
1.176e-05
1.121e-05
1.068e-05
1.016e-05
9.639e-06
9.13e-06
8.628e-06
8.133e-06
7.643e-06
7.159e-06
6.68e-06
6.205e-06
5.734e-06
5.267e-06
4.803e-06
4.342e-06
3.884e-06
3.428e-06
2.974e-06
2.522e-06
2.071e-06
1.621e-06
1.172e-06
7.217e-07
2.559e-07
0.0002372
0.0002384
0.0002395
0.0002403
0.0002409
0.0002412
0.0002414
0.0002414
0.0002413
0.000241
0.0002407
0.0002404
0.00024
0.0002396
0.0002392
0.0002387
0.0002383
0.0002378
0.0002374
0.000237
0.0002365
0.0002361
0.0002356
0.0002351
0.0002347
0.0002342
0.0002337
0.0002333
0.0002328
0.0002323
0.0002318
0.0002312
0.0002307
0.0002302
0.0002296
0.0002291
0.0002285
0.0002279
0.0002273
0.0002267
0.0002261
0.0002255
0.0002249
0.0002243
0.0002237
0.0002231
0.0002224
0.0002217
0.000221
0.0002201
0.0002191
0.0002178
0.0002162
0.0002142
0.0002117
0.0002088
0.0002054
0.0002015
0.0001971
0.0001913
0.0001822
0.0001714
0.0001529
0.0001279
0.0001049
8.789e-05
7.588e-05
6.742e-05
6.015e-05
5.491e-05
5.018e-05
4.59e-05
4.204e-05
3.85e-05
3.534e-05
3.263e-05
3.038e-05
2.857e-05
2.715e-05
2.602e-05
2.51e-05
2.433e-05
2.364e-05
2.299e-05
2.237e-05
2.175e-05
2.113e-05
2.051e-05
1.989e-05
1.926e-05
1.864e-05
1.802e-05
1.741e-05
1.68e-05
1.62e-05
1.562e-05
1.504e-05
1.447e-05
1.391e-05
1.336e-05
1.282e-05
1.229e-05
1.177e-05
1.126e-05
1.075e-05
1.026e-05
9.766e-06
9.282e-06
8.802e-06
8.328e-06
7.859e-06
7.394e-06
6.932e-06
6.474e-06
6.02e-06
5.568e-06
5.119e-06
4.673e-06
4.228e-06
3.786e-06
3.347e-06
2.908e-06
2.472e-06
2.037e-06
1.604e-06
1.172e-06
7.404e-07
2.785e-07
0.0002365
0.0002377
0.0002387
0.0002396
0.0002402
0.0002406
0.0002408
0.0002409
0.0002408
0.0002406
0.0002404
0.0002401
0.0002398
0.0002394
0.000239
0.0002386
0.0002382
0.0002378
0.0002374
0.000237
0.0002366
0.0002362
0.0002358
0.0002353
0.0002349
0.0002345
0.0002341
0.0002337
0.0002332
0.0002328
0.0002324
0.0002319
0.0002315
0.000231
0.0002305
0.0002301
0.0002296
0.0002291
0.0002287
0.0002282
0.0002277
0.0002273
0.0002269
0.0002264
0.000226
0.0002257
0.0002253
0.000225
0.0002246
0.0002242
0.0002237
0.000223
0.000222
0.0002207
0.000219
0.000217
0.0002149
0.0002129
0.0002104
0.000208
0.0002035
0.0001844
0.0001339
0.00012
0.0001143
9.906e-05
6.389e-05
5.057e-05
4.75e-05
4.502e-05
3.998e-05
3.695e-05
3.42e-05
3.145e-05
2.89e-05
2.671e-05
2.496e-05
2.365e-05
2.271e-05
2.204e-05
2.154e-05
2.113e-05
2.076e-05
2.039e-05
2.001e-05
1.961e-05
1.917e-05
1.871e-05
1.823e-05
1.774e-05
1.724e-05
1.672e-05
1.621e-05
1.569e-05
1.518e-05
1.466e-05
1.416e-05
1.365e-05
1.316e-05
1.267e-05
1.218e-05
1.17e-05
1.122e-05
1.075e-05
1.029e-05
9.829e-06
9.373e-06
8.92e-06
8.471e-06
8.025e-06
7.582e-06
7.141e-06
6.703e-06
6.267e-06
5.833e-06
5.4e-06
4.97e-06
4.541e-06
4.114e-06
3.688e-06
3.264e-06
2.842e-06
2.422e-06
2.003e-06
1.586e-06
1.172e-06
7.589e-07
3.01e-07
0.000236
0.0002371
0.0002381
0.0002389
0.0002395
0.00024
0.0002403
0.0002404
0.0002404
0.0002403
0.0002401
0.0002399
0.0002396
0.0002392
0.0002389
0.0002385
0.0002382
0.0002378
0.0002374
0.0002371
0.0002367
0.0002363
0.0002359
0.0002356
0.0002352
0.0002348
0.0002344
0.0002341
0.0002337
0.0002333
0.000233
0.0002326
0.0002322
0.0002318
0.0002315
0.0002311
0.0002307
0.0002304
0.00023
0.0002297
0.0002293
0.000229
0.0002288
0.0002285
0.0002283
0.0002282
0.0002281
0.0002281
0.0002281
0.0002282
0.0002282
0.000228
0.0002276
0.0002269
0.0002258
0.0002246
0.0002234
0.0002222
0.0002228
0.0002134
0.000159
0.0001492
0.0001086
0.0001141
0.0001241
0.0001207
9.404e-05
9.193e-05
5.915e-05
3.533e-05
3.021e-05
2.876e-05
2.627e-05
2.438e-05
2.243e-05
2.074e-05
1.949e-05
1.868e-05
1.824e-05
1.805e-05
1.798e-05
1.795e-05
1.791e-05
1.782e-05
1.768e-05
1.748e-05
1.722e-05
1.692e-05
1.659e-05
1.622e-05
1.583e-05
1.543e-05
1.501e-05
1.458e-05
1.415e-05
1.372e-05
1.328e-05
1.284e-05
1.241e-05
1.197e-05
1.154e-05
1.111e-05
1.068e-05
1.025e-05
9.828e-06
9.405e-06
8.983e-06
8.562e-06
8.143e-06
7.725e-06
7.308e-06
6.891e-06
6.476e-06
6.061e-06
5.647e-06
5.234e-06
4.822e-06
4.411e-06
4e-06
3.591e-06
3.183e-06
2.776e-06
2.372e-06
1.969e-06
1.569e-06
1.171e-06
7.768e-07
3.23e-07
0.0002355
0.0002366
0.0002376
0.0002384
0.000239
0.0002395
0.0002398
0.00024
0.00024
0.00024
0.0002398
0.0002396
0.0002394
0.0002391
0.0002388
0.0002385
0.0002382
0.0002378
0.0002375