/*--------------------------------*- C++ -*----------------------------------*\
  =========                 |
  \\      /  F ield         | OpenFOAM: The Open Source CFD Toolbox
   \\    /   O peration     | Website:  https://openfoam.org
    \\  /    A nd           | Version:  7
     \\/     M anipulation  |
\*---------------------------------------------------------------------------*/
FoamFile
{
    version     2.0;
    format      ascii;
    class       surfaceScalarField;
    location    "1319.99947341706002";
    object      phi;
}
// * * * * * * * * * * * * * * * * * * * * * * * * * * * * * * * * * * * * * //

dimensions      [0 3 -1 0 0 0 0];

internalField   nonuniform List<scalar> 
8032
(
6.857e-10
2.518e-10
4.804e-10
2.053e-10
3.48e-10
1.324e-10
2.643e-10
8.372e-11
2.101e-10
5.416e-11
1.738e-10
3.637e-11
1.483e-10
2.55e-11
1.296e-10
1.865e-11
1.155e-10
1.414e-11
1.045e-10
1.103e-11
9.566e-11
8.793e-12
8.853e-11
7.13e-12
8.268e-11
5.853e-12
7.783e-11
4.847e-12
7.379e-11
4.036e-12
7.042e-11
3.369e-12
6.761e-11
2.813e-12
6.527e-11
2.34e-12
6.334e-11
1.933e-12
6.176e-11
1.577e-12
6.05e-11
1.262e-12
5.952e-11
9.782e-13
5.88e-11
7.193e-13
5.832e-11
4.796e-13
5.807e-11
2.543e-13
5.803e-11
3.946e-14
5.82e-11
-1.684e-13
5.857e-11
-3.721e-13
5.914e-11
-5.745e-13
5.992e-11
-7.777e-13
6.091e-11
-9.837e-13
6.21e-11
-1.195e-12
6.351e-11
-1.411e-12
6.515e-11
-1.636e-12
6.702e-11
-1.869e-12
6.913e-11
-2.111e-12
7.149e-11
-2.363e-12
7.411e-11
-2.625e-12
7.701e-11
-2.896e-12
8.019e-11
-3.175e-12
8.365e-11
-3.461e-12
8.74e-11
-3.752e-12
9.144e-11
-4.046e-12
9.578e-11
-4.338e-12
1.004e-10
-4.624e-12
1.053e-10
-4.899e-12
1.105e-10
-5.158e-12
1.159e-10
-5.392e-12
1.214e-10
-5.594e-12
1.272e-10
-5.757e-12
1.331e-10
-5.87e-12
1.39e-10
-5.926e-12
1.449e-10
-5.915e-12
1.507e-10
-5.829e-12
1.564e-10
-5.661e-12
1.618e-10
-5.406e-12
1.669e-10
-5.061e-12
1.715e-10
-4.624e-12
1.756e-10
-4.099e-12
1.791e-10
-3.492e-12
1.819e-10
-2.813e-12
1.84e-10
-2.077e-12
1.853e-10
-1.299e-12
1.858e-10
-4.982e-13
1.855e-10
3.058e-13
1.844e-10
1.094e-12
1.825e-10
1.849e-12
1.8e-10
2.556e-12
1.768e-10
3.203e-12
1.73e-10
3.781e-12
1.687e-10
4.283e-12
1.64e-10
4.707e-12
1.589e-10
5.051e-12
1.536e-10
5.317e-12
1.481e-10
5.508e-12
1.425e-10
5.628e-12
1.368e-10
5.682e-12
1.311e-10
5.676e-12
1.255e-10
5.617e-12
1.2e-10
5.511e-12
1.146e-10
5.365e-12
1.095e-10
5.186e-12
1.045e-10
4.98e-12
9.972e-11
4.754e-12
9.521e-11
4.513e-12
9.095e-11
4.263e-12
8.694e-11
4.008e-12
8.318e-11
3.752e-12
7.969e-11
3.498e-12
7.644e-11
3.25e-12
7.343e-11
3.009e-12
7.065e-11
2.777e-12
6.81e-11
2.555e-12
6.575e-11
2.344e-12
6.361e-11
2.145e-12
6.165e-11
1.959e-12
5.986e-11
1.784e-12
5.824e-11
1.622e-12
5.677e-11
1.472e-12
5.544e-11
1.333e-12
5.423e-11
1.204e-12
5.315e-11
1.087e-12
5.217e-11
9.788e-13
5.129e-11
8.802e-13
5.05e-11
7.903e-13
4.979e-11
7.084e-13
4.915e-11
6.341e-13
4.859e-11
5.667e-13
4.808e-11
5.057e-13
4.763e-11
4.507e-13
4.723e-11
4.011e-13
4.687e-11
3.566e-13
4.656e-11
3.167e-13
4.628e-11
2.812e-13
4.603e-11
2.498e-13
4.58e-11
2.222e-13
4.561e-11
1.982e-13
4.543e-11
1.779e-13
4.527e-11
1.612e-13
4.512e-11
1.483e-13
4.498e-11
1.394e-13
4.484e-11
1.353e-13
4.471e-11
1.371e-13
4.456e-11
1.472e-13
4.439e-11
1.697e-13
4.418e-11
2.117e-13
4.39e-11
2.813e-13
3.655e-13
9.523e-10
2.37e-10
8.501e-10
3.075e-10
7.275e-10
2.55e-10
6.183e-10
1.929e-10
5.294e-10
1.43e-10
4.593e-10
1.065e-10
4.042e-10
8.054e-11
3.607e-10
6.215e-11
3.26e-10
4.891e-11
2.978e-10
3.917e-11
2.748e-10
3.183e-11
2.557e-10
2.616e-11
2.399e-10
2.17e-11
2.266e-10
1.811e-11
2.155e-10
1.517e-11
2.061e-10
1.273e-11
1.983e-10
1.067e-11
1.917e-10
8.91e-12
1.863e-10
7.382e-12
1.818e-10
6.039e-12
1.782e-10
4.843e-12
1.754e-10
3.763e-12
1.734e-10
2.775e-12
1.72e-10
1.858e-12
1.713e-10
9.953e-13
1.711e-10
1.718e-13
1.716e-10
-6.249e-13
1.726e-10
-1.406e-12
1.742e-10
-2.18e-12
1.764e-10
-2.957e-12
1.792e-10
-3.743e-12
1.825e-10
-4.545e-12
1.865e-10
-5.368e-12
1.91e-10
-6.218e-12
1.963e-10
-7.097e-12
2.022e-10
-8.008e-12
2.088e-10
-8.953e-12
2.161e-10
-9.93e-12
2.241e-10
-1.094e-11
2.329e-10
-1.198e-11
2.425e-10
-1.303e-11
2.528e-10
-1.411e-11
2.64e-10
-1.518e-11
2.759e-10
-1.625e-11
2.886e-10
-1.729e-11
3.019e-10
-1.828e-11
3.16e-10
-1.921e-11
3.306e-10
-2.004e-11
3.458e-10
-2.076e-11
3.614e-10
-2.132e-11
3.772e-10
-2.17e-11
3.931e-10
-2.186e-11
4.09e-10
-2.178e-11
4.246e-10
-2.143e-11
4.397e-10
-2.078e-11
4.541e-10
-1.982e-11
4.676e-10
-1.853e-11
4.799e-10
-1.691e-11
4.908e-10
-1.498e-11
5e-10
-1.276e-11
5.075e-10
-1.029e-11
5.131e-10
-7.609e-12
5.165e-10
-4.783e-12
5.179e-10
-1.874e-12
5.172e-10
1.049e-12
5.143e-10
3.919e-12
5.095e-10
6.675e-12
5.028e-10
9.263e-12
4.944e-10
1.164e-11
4.844e-10
1.377e-11
4.73e-10
1.563e-11
4.605e-10
1.721e-11
4.471e-10
1.851e-11
4.329e-10
1.952e-11
4.181e-10
2.027e-11
4.03e-10
2.075e-11
3.877e-10
2.099e-11
3.724e-10
2.101e-11
3.571e-10
2.083e-11
3.422e-10
2.047e-11
3.276e-10
1.997e-11
3.134e-10
1.934e-11
2.998e-10
1.861e-11
2.867e-10
1.78e-11
2.743e-10
1.694e-11
2.625e-10
1.603e-11
2.514e-10
1.51e-11
2.41e-10
1.417e-11
2.313e-10
1.323e-11
2.222e-10
1.232e-11
2.138e-10
1.142e-11
2.06e-10
1.056e-11
1.988e-10
9.738e-12
1.922e-10
8.952e-12
1.862e-10
8.209e-12
1.806e-10
7.509e-12
1.756e-10
6.853e-12
1.709e-10
6.241e-12
1.667e-10
5.673e-12
1.629e-10
5.146e-12
1.595e-10
4.66e-12
1.563e-10
4.212e-12
1.535e-10
3.801e-12
1.51e-10
3.425e-12
1.487e-10
3.081e-12
1.466e-10
2.768e-12
1.448e-10
2.482e-12
1.431e-10
2.223e-12
1.416e-10
1.989e-12
1.403e-10
1.776e-12
1.391e-10
1.585e-12
1.381e-10
1.412e-12
1.371e-10
1.258e-12
1.363e-10
1.12e-12
1.355e-10
9.976e-13
1.349e-10
8.899e-13
1.343e-10
7.963e-13
1.337e-10
7.164e-13
1.332e-10
6.501e-13
1.328e-10
5.979e-13
1.324e-10
5.604e-13
1.32e-10
5.393e-13
1.316e-10
5.37e-13
1.312e-10
5.572e-13
1.307e-10
6.054e-13
1.303e-10
6.88e-13
1.297e-10
8.038e-13
9.131e-13
9.779e-10
1.966e-10
9.637e-10
3.217e-10
9.013e-10
3.174e-10
8.212e-10
2.73e-10
7.41e-10
2.233e-10
6.68e-10
1.794e-10
6.047e-10
1.439e-10
5.508e-10
1.16e-10
5.054e-10
9.436e-11
4.671e-10
7.745e-11
4.348e-10
6.411e-11
4.075e-10
5.346e-11
3.844e-10
4.482e-11
3.647e-10
3.774e-11
3.481e-10
3.184e-11
3.34e-10
2.686e-11
3.22e-10
2.262e-11
3.12e-10
1.896e-11
3.036e-10
1.575e-11
2.967e-10
1.292e-11
2.912e-10
1.038e-11
2.869e-10
8.081e-12
2.837e-10
5.967e-12
2.815e-10
3.999e-12
2.804e-10
2.142e-12
2.802e-10
3.677e-13
2.809e-10
-1.351e-12
2.825e-10
-3.036e-12
2.851e-10
-4.708e-12
2.885e-10
-6.383e-12
2.928e-10
-8.077e-12
2.981e-10
-9.803e-12
3.043e-10
-1.157e-11
3.115e-10
-1.34e-11
3.196e-10
-1.528e-11
3.289e-10
-1.723e-11
3.392e-10
-1.924e-11
3.506e-10
-2.133e-11
3.631e-10
-2.347e-11
3.768e-10
-2.567e-11
3.916e-10
-2.791e-11
4.077e-10
-3.017e-11
4.25e-10
-3.243e-11
4.434e-10
-3.467e-11
4.629e-10
-3.685e-11
4.836e-10
-3.892e-11
5.052e-10
-4.085e-11
5.277e-10
-4.257e-11
5.51e-10
-4.403e-11
5.749e-10
-4.518e-11
5.991e-10
-4.593e-11
6.235e-10
-4.624e-11
6.477e-10
-4.603e-11
6.715e-10
-4.524e-11
6.946e-10
-4.384e-11
7.166e-10
-4.178e-11
7.371e-10
-3.904e-11
7.558e-10
-3.562e-11
7.723e-10
-3.155e-11
7.864e-10
-2.688e-11
7.978e-10
-2.168e-11
8.063e-10
-1.605e-11
8.116e-10
-1.012e-11
8.138e-10
-4.021e-12
8.127e-10
2.113e-12
8.085e-10
8.14e-12
8.012e-10
1.393e-11
7.911e-10
1.938e-11
7.784e-10
2.439e-11
7.632e-10
2.89e-11
7.46e-10
3.285e-11
7.27e-10
3.622e-11
7.065e-10
3.899e-11
6.849e-10
4.118e-11
6.624e-10
4.279e-11
6.392e-10
4.386e-11
6.158e-10
4.442e-11
5.923e-10
4.451e-11
5.69e-10
4.419e-11
5.459e-10
4.349e-11
5.234e-10
4.247e-11
5.016e-10
4.119e-11
4.805e-10
3.969e-11
4.603e-10
3.801e-11
4.41e-10
3.62e-11
4.228e-10
3.431e-11
4.055e-10
3.236e-11
3.893e-10
3.039e-11
3.741e-10
2.843e-11
3.599e-10
2.65e-11
3.467e-10
2.461e-11
3.345e-10
2.278e-11
3.232e-10
2.103e-11
3.128e-10
1.936e-11
3.032e-10
1.777e-11
2.945e-10
1.628e-11
2.865e-10
1.487e-11
2.791e-10
1.356e-11
2.725e-10
1.234e-11
2.664e-10
1.121e-11
2.609e-10
1.017e-11
2.559e-10
9.203e-12
2.514e-10
8.316e-12
2.473e-10
7.503e-12
2.436e-10
6.759e-12
2.403e-10
6.08e-12
2.373e-10
5.461e-12
2.347e-10
4.899e-12
2.323e-10
4.388e-12
2.301e-10
3.926e-12
2.282e-10
3.508e-12
2.265e-10
3.132e-12
2.249e-10
2.794e-12
2.236e-10
2.492e-12
2.223e-10
2.224e-12
2.212e-10
1.987e-12
2.202e-10
1.781e-12
2.194e-10
1.603e-12
2.186e-10
1.455e-12
2.178e-10
1.336e-12
2.171e-10
1.246e-12
2.165e-10
1.189e-12
2.159e-10
1.166e-12
2.152e-10
1.181e-12
2.146e-10
1.237e-12
2.14e-10
1.334e-12
2.133e-10
1.459e-12
1.56e-12
9.752e-10
1.589e-10
9.93e-10
3.038e-10
9.728e-10
3.377e-10
9.269e-10
3.189e-10
8.69e-10
2.811e-10
8.085e-10
2.4e-10
7.504e-10
2.02e-10
6.973e-10
1.692e-10
6.498e-10
1.418e-10
6.081e-10
1.191e-10
5.718e-10
1.005e-10
5.402e-10
8.502e-11
5.129e-10
7.213e-11
4.893e-10
6.13e-11
4.691e-10
5.212e-11
4.517e-10
4.426e-11
4.368e-10
3.746e-11
4.243e-10
3.152e-11
4.137e-10
2.628e-11
4.05e-10
2.161e-11
3.98e-10
1.74e-11
3.926e-10
1.356e-11
3.885e-10
1.001e-11
3.858e-10
6.696e-12
3.844e-10
3.558e-12
3.842e-10
5.511e-13
3.852e-10
-2.367e-12
3.874e-10
-5.231e-12
3.908e-10
-8.073e-12
3.953e-10
-1.092e-11
4.011e-10
-1.38e-11
4.08e-10
-1.674e-11
4.162e-10
-1.974e-11
4.256e-10
-2.283e-11
4.363e-10
-2.602e-11
4.484e-10
-2.932e-11
4.619e-10
-3.272e-11
4.768e-10
-3.623e-11
4.932e-10
-3.984e-11
5.11e-10
-4.353e-11
5.304e-10
-4.728e-11
5.513e-10
-5.107e-11
5.737e-10
-5.485e-11
5.976e-10
-5.858e-11
6.23e-10
-6.22e-11
6.497e-10
-6.564e-11
6.777e-10
-6.883e-11
7.068e-10
-7.167e-11
7.368e-10
-7.407e-11
7.676e-10
-7.593e-11
7.988e-10
-7.714e-11
8.302e-10
-7.76e-11
8.613e-10
-7.72e-11
8.919e-10
-7.584e-11
9.215e-10
-7.345e-11
9.497e-10
-6.997e-11
9.761e-10
-6.536e-11
1e-09
-5.963e-11
1.021e-09
-5.282e-11
1.039e-09
-4.5e-11
1.054e-09
-3.632e-11
1.065e-09
-2.692e-11
1.072e-09
-1.702e-11
1.075e-09
-6.833e-12
1.073e-09
3.409e-12
1.068e-09
1.348e-11
1.059e-09
2.316e-11
1.046e-09
3.228e-11
1.03e-09
4.067e-11
1.01e-09
4.823e-11
9.883e-10
5.487e-11
9.639e-10
6.055e-11
9.377e-10
6.524e-11
9.099e-10
6.896e-11
8.81e-10
7.172e-11
8.513e-10
7.357e-11
8.211e-10
7.458e-11
7.908e-10
7.481e-11
7.607e-10
7.433e-11
7.309e-10
7.323e-11
7.018e-10
7.159e-11
6.735e-10
6.949e-11
6.462e-10
6.702e-11
6.199e-10
6.426e-11
5.949e-10
6.127e-11
5.71e-10
5.812e-11
5.485e-10
5.488e-11
5.273e-10
5.16e-11
5.074e-10
4.832e-11
4.888e-10
4.508e-11
4.715e-10
4.191e-11
4.555e-10
3.884e-11
4.406e-10
3.589e-11
4.269e-10
3.308e-11
4.143e-10
3.04e-11
4.027e-10
2.788e-11
3.92e-10
2.55e-11
3.823e-10
2.328e-11
3.735e-10
2.121e-11
3.654e-10
1.929e-11
3.58e-10
1.751e-11
3.514e-10
1.587e-11
3.453e-10
1.435e-11
3.399e-10
1.297e-11
3.349e-10
1.169e-11
3.305e-10
1.053e-11
3.265e-10
9.472e-12
3.229e-10
8.507e-12
3.196e-10
7.63e-12
3.167e-10
6.835e-12
3.141e-10
6.116e-12
3.118e-10
5.468e-12
3.097e-10
4.885e-12
3.078e-10
4.363e-12
3.061e-10
3.898e-12
3.046e-10
3.486e-12
3.033e-10
3.126e-12
3.021e-10
2.816e-12
3.01e-10
2.553e-12
3e-10
2.338e-12
2.991e-10
2.171e-12
2.982e-10
2.054e-12
2.974e-10
1.987e-12
2.966e-10
1.973e-12
2.958e-10
2.011e-12
2.95e-10
2.096e-12
2.943e-10
2.205e-12
2.289e-12
9.668e-10
1.296e-10
9.944e-10
2.762e-10
9.979e-10
3.342e-10
9.781e-10
3.387e-10
9.426e-10
3.166e-10
8.987e-10
2.838e-10
8.52e-10
2.487e-10
8.058e-10
2.154e-10
7.621e-10
1.854e-10
7.22e-10
1.593e-10
6.857e-10
1.368e-10
6.533e-10
1.174e-10
6.246e-10
1.008e-10
5.994e-10
8.652e-11
5.774e-10
7.416e-11
5.582e-10
6.339e-11
5.417e-10
5.395e-11
5.276e-10
4.56e-11
5.158e-10
3.816e-11
5.059e-10
3.146e-11
4.98e-10
2.537e-11
4.917e-10
1.978e-11
4.871e-10
1.459e-11
4.841e-10
9.717e-12
4.826e-10
5.085e-12
4.825e-10
6.308e-13
4.839e-10
-3.701e-12
4.866e-10
-7.961e-12
4.907e-10
-1.219e-11
4.962e-10
-1.644e-11
5.032e-10
-2.073e-11
5.115e-10
-2.51e-11
5.214e-10
-2.958e-11
5.327e-10
-3.418e-11
5.456e-10
-3.892e-11
5.601e-10
-4.381e-11
5.762e-10
-4.886e-11
5.941e-10
-5.406e-11
6.136e-10
-5.939e-11
6.349e-10
-6.485e-11
6.58e-10
-7.038e-11
6.829e-10
-7.596e-11
7.096e-10
-8.153e-11
7.38e-10
-8.7e-11
7.681e-10
-9.231e-11
7.998e-10
-9.735e-11
8.33e-10
-1.02e-10
8.675e-10
-1.061e-10
9.031e-10
-1.096e-10
9.394e-10
-1.123e-10
9.764e-10
-1.141e-10
1.013e-09
-1.147e-10
1.05e-09
-1.14e-10
1.086e-09
-1.12e-10
1.121e-09
-1.084e-10
1.155e-09
-1.033e-10
1.186e-09
-9.647e-11
1.214e-09
-8.802e-11
1.239e-09
-7.797e-11
1.261e-09
-6.645e-11
1.278e-09
-5.365e-11
1.291e-09
-3.981e-11
1.299e-09
-2.522e-11
1.303e-09
-1.021e-11
1.301e-09
4.887e-12
1.295e-09
1.972e-11
1.284e-09
3.4e-11
1.269e-09
4.744e-11
1.25e-09
5.983e-11
1.227e-09
7.099e-11
1.201e-09
8.082e-11
1.172e-09
8.923e-11
1.141e-09
9.62e-11
1.109e-09
1.017e-10
1.074e-09
1.059e-10
1.039e-09
1.087e-10
1.004e-09
1.103e-10
9.678e-10
1.107e-10
9.321e-10
1.1e-10
8.969e-10
1.085e-10
8.623e-10
1.061e-10
8.287e-10
1.031e-10
7.962e-10
9.952e-11
7.65e-10
9.55e-11
7.351e-10
9.113e-11
7.067e-10
8.653e-11
6.798e-10
8.178e-11
6.544e-10
7.695e-11
6.306e-10
7.212e-11
6.084e-10
6.735e-11
5.876e-10
6.268e-11
5.683e-10
5.814e-11
5.504e-10
5.378e-11
5.339e-10
4.96e-11
5.187e-10
4.564e-11
5.046e-10
4.189e-11
4.918e-10
3.836e-11
4.8e-10
3.505e-11
4.693e-10
3.197e-11
4.595e-10
2.91e-11
4.505e-10
2.644e-11
4.424e-10
2.398e-11
4.35e-10
2.172e-11
4.284e-10
1.964e-11
4.223e-10
1.773e-11
4.169e-10
1.599e-11
4.12e-10
1.439e-11
4.075e-10
1.294e-11
4.035e-10
1.162e-11
4e-10
1.042e-11
3.967e-10
9.335e-12
3.938e-10
8.355e-12
3.913e-10
7.472e-12
3.889e-10
6.681e-12
3.869e-10
5.974e-12
3.85e-10
5.348e-12
3.833e-10
4.798e-12
3.818e-10
4.32e-12
3.805e-10
3.912e-12
3.792e-10
3.573e-12
3.781e-10
3.302e-12
3.771e-10
3.099e-12
3.761e-10
2.965e-12
3.752e-10
2.897e-12
3.743e-10
2.893e-12
3.734e-10
2.942e-12
3.726e-10
3.021e-12
3.084e-12
9.592e-10
1.079e-10
9.876e-10
2.478e-10
1.003e-09
3.19e-10
1e-09
3.413e-10
9.826e-10
3.342e-10
9.546e-10
3.118e-10
9.206e-10
2.828e-10
8.84e-10
2.52e-10
8.471e-10
2.223e-10
8.116e-10
1.948e-10
7.783e-10
1.701e-10
7.477e-10
1.481e-10
7.198e-10
1.286e-10
6.949e-10
1.115e-10
6.727e-10
9.633e-11
6.532e-10
8.29e-11
6.362e-10
7.095e-11
6.215e-10
6.024e-11
6.091e-10
5.059e-11
5.988e-10
4.182e-11
5.904e-10
3.378e-11
5.838e-10
2.634e-11
5.79e-10
1.939e-11
5.759e-10
1.282e-11
5.744e-10
6.559e-12
5.745e-10
5.137e-13
5.762e-10
-5.384e-12
5.795e-10
-1.12e-11
5.842e-10
-1.698e-11
5.906e-10
-2.279e-11
5.985e-10
-2.867e-11
6.081e-10
-3.465e-11
6.193e-10
-4.078e-11
6.322e-10
-4.707e-11
6.468e-10
-5.356e-11
6.632e-10
-6.024e-11
6.815e-10
-6.713e-11
7.017e-10
-7.422e-11
7.238e-10
-8.149e-11
7.478e-10
-8.892e-11
7.739e-10
-9.645e-11
8.02e-10
-1.04e-10
8.32e-10
-1.116e-10
8.64e-10
-1.19e-10
8.979e-10
-1.262e-10
9.336e-10
-1.33e-10
9.709e-10
-1.393e-10
1.01e-09
-1.449e-10
1.05e-09
-1.496e-10
1.09e-09
-1.532e-10
1.132e-09
-1.555e-10
1.174e-09
-1.563e-10
1.215e-09
-1.555e-10
1.256e-09
-1.527e-10
1.295e-09
-1.478e-10
1.333e-09
-1.408e-10
1.368e-09
-1.315e-10
1.4e-09
-1.2e-10
1.428e-09
-1.063e-10
1.452e-09
-9.064e-11
1.472e-09
-7.321e-11
1.486e-09
-5.436e-11
1.495e-09
-3.448e-11
1.499e-09
-1.404e-11
1.498e-09
6.522e-12
1.491e-09
2.673e-11
1.479e-09
4.617e-11
1.461e-09
6.447e-11
1.44e-09
8.134e-11
1.414e-09
9.655e-11
1.385e-09
1.099e-10
1.353e-09
1.214e-10
1.318e-09
1.309e-10
1.282e-09
1.385e-10
1.243e-09
1.442e-10
1.204e-09
1.481e-10
1.164e-09
1.503e-10
1.123e-09
1.51e-10
1.083e-09
1.502e-10
1.044e-09
1.481e-10
1.005e-09
1.45e-10
9.668e-10
1.41e-10
9.302e-10
1.362e-10
8.95e-10
1.307e-10
8.613e-10
1.248e-10
8.292e-10
1.186e-10
7.988e-10
1.122e-10
7.701e-10
1.056e-10
7.431e-10
9.908e-11
7.179e-10
9.26e-11
6.943e-10
8.624e-11
6.724e-10
8.006e-11
6.521e-10
7.411e-11
6.333e-10
6.842e-11
6.159e-10
6.3e-11
5.999e-10
5.787e-11
5.853e-10
5.304e-11
5.718e-10
4.851e-11
5.595e-10
4.428e-11
5.482e-10
4.034e-11
5.38e-10
3.669e-11
5.287e-10
3.331e-11
5.202e-10
3.019e-11
5.125e-10
2.733e-11
5.055e-10
2.469e-11
4.992e-10
2.228e-11
4.936e-10
2.008e-11
4.884e-10
1.807e-11
4.838e-10
1.624e-11
4.796e-10
1.458e-11
4.759e-10
1.308e-11
4.725e-10
1.171e-11
4.695e-10
1.049e-11
4.668e-10
9.385e-12
4.644e-10
8.399e-12
4.622e-10
7.522e-12
4.603e-10
6.749e-12
4.585e-10
6.075e-12
4.569e-10
5.494e-12
4.555e-10
5.005e-12
4.542e-10
4.605e-12
4.53e-10
4.293e-12
4.519e-10
4.067e-12
4.509e-10
3.923e-12
4.499e-10
3.856e-12
4.49e-10
3.852e-12
4.481e-10
3.89e-12
3.928e-12
9.536e-10
9.183e-11
9.795e-10
2.219e-10
9.996e-10
2.989e-10
1.008e-09
3.333e-10
1.003e-09
3.389e-10
9.879e-10
3.268e-10
9.657e-10
3.05e-10
9.391e-10
2.787e-10
9.103e-10
2.511e-10
8.809e-10
2.241e-10
8.523e-10
1.987e-10
8.251e-10
1.753e-10
7.997e-10
1.54e-10
7.765e-10
1.347e-10
7.555e-10
1.173e-10
7.367e-10
1.017e-10
7.202e-10
8.748e-11
7.058e-10
7.461e-11
6.935e-10
6.288e-11
6.833e-10
5.21e-11
6.749e-10
4.213e-11
6.684e-10
3.284e-11
6.637e-10
2.41e-11
6.607e-10
1.58e-11
6.594e-10
7.832e-12
6.598e-10
1.148e-13
6.619e-10
-7.438e-12
6.656e-10
-1.49e-11
6.71e-10
-2.234e-11
6.78e-10
-2.983e-11
6.867e-10
-3.74e-11
6.972e-10
-4.512e-11
7.095e-10
-5.303e-11
7.235e-10
-6.115e-11
7.395e-10
-6.951e-11
7.574e-10
-7.813e-11
7.773e-10
-8.701e-11
7.992e-10
-9.614e-11
8.232e-10
-1.055e-10
8.493e-10
-1.15e-10
8.776e-10
-1.247e-10
9.08e-10
-1.345e-10
9.406e-10
-1.442e-10
9.753e-10
-1.537e-10
1.012e-09
-1.629e-10
1.051e-09
-1.717e-10
1.091e-09
-1.797e-10
1.133e-09
-1.869e-10
1.176e-09
-1.929e-10
1.221e-09
-1.976e-10
1.266e-09
-2.005e-10
1.311e-09
-2.016e-10
1.356e-09
-2.004e-10
1.4e-09
-1.969e-10
1.443e-09
-1.906e-10
1.484e-09
-1.816e-10
1.522e-09
-1.697e-10
1.557e-09
-1.549e-10
1.588e-09
-1.373e-10
1.614e-09
-1.171e-10
1.636e-09
-9.46e-11
1.652e-09
-7.027e-11
1.662e-09
-4.462e-11
1.666e-09
-1.822e-11
1.664e-09
8.313e-12
1.656e-09
3.438e-11
1.643e-09
5.945e-11
1.625e-09
8.303e-11
1.601e-09
1.048e-10
1.573e-09
1.243e-10
1.542e-09
1.416e-10
1.507e-09
1.564e-10
1.469e-09
1.687e-10
1.429e-09
1.785e-10
1.388e-09
1.858e-10
1.345e-09
1.909e-10
1.301e-09
1.938e-10
1.258e-09
1.947e-10
1.214e-09
1.937e-10
1.171e-09
1.912e-10
1.129e-09
1.872e-10
1.088e-09
1.821e-10
1.048e-09
1.759e-10
1.01e-09
1.69e-10
9.73e-10
1.615e-10
9.382e-10
1.535e-10
9.051e-10
1.452e-10
8.739e-10
1.368e-10
8.445e-10
1.284e-10
8.17e-10
1.201e-10
7.913e-10
1.119e-10
7.674e-10
1.04e-10
7.452e-10
9.632e-11
7.246e-10
8.898e-11
7.057e-10
8.199e-11
6.882e-10
7.537e-11
6.721e-10
6.913e-11
6.573e-10
6.327e-11
6.438e-10
5.78e-11
6.314e-10
5.27e-11
6.202e-10
4.796e-11
6.099e-10
4.358e-11
6.005e-10
3.954e-11
5.921e-10
3.581e-11
5.844e-10
3.239e-11
5.774e-10
2.925e-11
5.711e-10
2.638e-11
5.654e-10
2.376e-11
5.603e-10
2.138e-11
5.556e-10
1.921e-11
5.515e-10
1.724e-11
5.477e-10
1.546e-11
5.444e-10
1.385e-11
5.413e-10
1.24e-11
5.386e-10
1.111e-11
5.362e-10
9.951e-12
5.34e-10
8.929e-12
5.321e-10
8.032e-12
5.303e-10
7.256e-12
5.287e-10
6.594e-12
5.273e-10
6.044e-12
5.26e-10
5.602e-12
5.248e-10
5.263e-12
5.237e-10
5.024e-12
5.227e-10
4.876e-12
5.217e-10
4.807e-12
5.208e-10
4.794e-12
4.805e-12
9.498e-10
7.954e-11
9.725e-10
1.992e-10
9.939e-10
2.774e-10
1.008e-09
3.196e-10
1.012e-09
3.348e-10
1.007e-09
3.317e-10
9.946e-10
3.172e-10
9.771e-10
2.961e-10
9.563e-10
2.719e-10
9.337e-10
2.467e-10
9.106e-10
2.219e-10
8.878e-10
1.981e-10
8.659e-10
1.759e-10
8.454e-10
1.552e-10
8.265e-10
1.362e-10
8.093e-10
1.188e-10
7.94e-10
1.028e-10
7.806e-10
8.804e-11
7.691e-10
7.443e-11
7.594e-10
6.181e-11
7.515e-10
5.003e-11
7.454e-10
3.895e-11
7.41e-10
2.846e-11
7.384e-10
1.844e-11
7.374e-10
8.773e-12
7.382e-10
-6.331e-13
7.406e-10
-9.871e-12
7.447e-10
-1.903e-11
7.506e-10
-2.818e-11
7.581e-10
-3.739e-11
7.675e-10
-4.673e-11
7.786e-10
-5.626e-11
7.916e-10
-6.602e-11
8.065e-10
-7.604e-11
8.233e-10
-8.637e-11
8.422e-10
-9.701e-11
8.632e-10
-1.08e-10
8.863e-10
-1.192e-10
9.115e-10
-1.308e-10
9.391e-10
-1.426e-10
9.688e-10
-1.545e-10
1.001e-09
-1.665e-10
1.035e-09
-1.784e-10
1.072e-09
-1.902e-10
1.11e-09
-2.016e-10
1.151e-09
-2.123e-10
1.194e-09
-2.223e-10
1.238e-09
-2.311e-10
1.283e-09
-2.386e-10
1.33e-09
-2.444e-10
1.378e-09
-2.481e-10
1.426e-09
-2.494e-10
1.473e-09
-2.481e-10
1.52e-09
-2.437e-10
1.566e-09
-2.361e-10
1.609e-09
-2.25e-10
1.65e-09
-2.103e-10
1.687e-09
-1.921e-10
1.72e-09
-1.703e-10
1.748e-09
-1.453e-10
1.771e-09
-1.174e-10
1.788e-09
-8.726e-11
1.799e-09
-5.542e-11
1.803e-09
-2.265e-11
1.801e-09
1.027e-11
1.793e-09
4.26e-11
1.779e-09
7.364e-11
1.759e-09
1.028e-10
1.734e-09
1.297e-10
1.705e-09
1.539e-10
1.671e-09
1.752e-10
1.634e-09
1.934e-10
1.594e-09
2.086e-10
1.552e-09
2.207e-10
1.508e-09
2.298e-10
1.462e-09
2.361e-10
1.417e-09
2.397e-10
1.37e-09
2.408e-10
1.324e-09
2.397e-10
1.279e-09
2.366e-10
1.234e-09
2.318e-10
1.191e-09
2.254e-10
1.149e-09
2.179e-10
1.109e-09
2.094e-10
1.07e-09
2.001e-10
1.033e-09
1.903e-10
9.984e-10
1.801e-10
9.655e-10
1.698e-10
9.345e-10
1.594e-10
9.054e-10
1.492e-10
8.783e-10
1.391e-10
8.53e-10
1.293e-10
8.295e-10
1.198e-10
8.077e-10
1.107e-10
7.876e-10
1.021e-10
7.691e-10
9.392e-11
7.52e-10
8.619e-11
7.363e-10
7.894e-11
7.219e-10
7.216e-11
7.088e-10
6.584e-11
6.968e-10
5.997e-11
6.858e-10
5.453e-11
6.759e-10
4.95e-11
6.668e-10
4.487e-11
6.586e-10
4.061e-11
6.511e-10
3.671e-11
6.444e-10
3.313e-11
6.383e-10
2.987e-11
6.328e-10
2.689e-11
6.278e-10
2.418e-11
6.233e-10
2.172e-11
6.193e-10
1.948e-11
6.157e-10
1.747e-11
6.124e-10
1.565e-11
6.095e-10
1.403e-11
6.069e-10
1.257e-11
6.045e-10
1.128e-11
6.024e-10
1.014e-11
6.005e-10
9.15e-12
5.988e-10
8.298e-12
5.973e-10
7.58e-12
5.959e-10
6.99e-12
5.947e-10
6.523e-12
5.935e-10
6.174e-12
5.925e-10
5.932e-12
5.915e-10
5.786e-12
5.905e-10
5.717e-12
5.698e-12
9.472e-10
6.987e-11
9.669e-10
1.795e-10
9.879e-10
2.563e-10
1.005e-09
3.028e-10
1.014e-09
3.25e-10
1.017e-09
3.294e-10
1.013e-09
3.215e-10
1.003e-09
3.057e-10
9.894e-10
2.854e-10
9.734e-10
2.627e-10
9.559e-10
2.393e-10
9.379e-10
2.161e-10
9.201e-10
1.937e-10
9.029e-10
1.724e-10
8.867e-10
1.524e-10
8.718e-10
1.337e-10
8.583e-10
1.163e-10
8.463e-10
9.999e-11
8.36e-10
8.479e-11
8.272e-10
7.054e-11
8.201e-10
5.712e-11
8.147e-10
4.44e-11
8.109e-10
3.226e-11
8.087e-10
2.06e-11
8.082e-10
9.284e-12
8.094e-10
-1.773e-12
8.122e-10
-1.267e-11
8.166e-10
-2.351e-11
8.228e-10
-3.437e-11
8.308e-10
-4.532e-11
8.405e-10
-5.644e-11
8.52e-10
-6.78e-11
8.654e-10
-7.943e-11
8.808e-10
-9.139e-11
8.981e-10
-1.037e-10
9.175e-10
-1.164e-10
9.39e-10
-1.295e-10
9.628e-10
-1.429e-10
9.887e-10
-1.567e-10
1.017e-09
-1.708e-10
1.047e-09
-1.85e-10
1.08e-09
-1.994e-10
1.116e-09
-2.136e-10
1.153e-09
-2.277e-10
1.193e-09
-2.413e-10
1.235e-09
-2.542e-10
1.278e-09
-2.661e-10
1.324e-09
-2.767e-10
1.371e-09
-2.857e-10
1.419e-09
-2.927e-10
1.468e-09
-2.972e-10
1.518e-09
-2.989e-10
1.567e-09
-2.974e-10
1.616e-09
-2.924e-10
1.663e-09
-2.834e-10
1.708e-09
-2.702e-10
1.751e-09
-2.528e-10
1.79e-09
-2.31e-10
1.824e-09
-2.049e-10
1.854e-09
-1.749e-10
1.878e-09
-1.414e-10
1.896e-09
-1.05e-10
1.907e-09
-6.668e-11
1.912e-09
-2.721e-11
1.909e-09
1.243e-11
1.901e-09
5.131e-11
1.886e-09
8.86e-11
1.865e-09
1.236e-10
1.839e-09
1.558e-10
1.808e-09
1.847e-10
1.773e-09
2.101e-10
1.735e-09
2.319e-10
1.693e-09
2.5e-10
1.649e-09
2.645e-10
1.604e-09
2.754e-10
1.557e-09
2.828e-10
1.51e-09
2.871e-10
1.462e-09
2.885e-10
1.415e-09
2.872e-10
1.368e-09
2.835e-10
1.322e-09
2.777e-10
1.277e-09
2.701e-10
1.234e-09
2.611e-10
1.192e-09
2.51e-10
1.153e-09
2.399e-10
1.115e-09
2.282e-10
1.079e-09
2.161e-10
1.045e-09
2.037e-10
1.013e-09
1.913e-10
9.829e-10
1.791e-10
9.55e-10
1.67e-10
9.289e-10
1.553e-10
9.047e-10
1.44e-10
8.823e-10
1.332e-10
8.616e-10
1.228e-10
8.424e-10
1.131e-10
8.248e-10
1.038e-10
8.086e-10
9.513e-11
7.938e-10
8.701e-11
7.802e-10
7.943e-11
7.677e-10
7.239e-11
7.564e-10
6.587e-11
7.461e-10
5.983e-11
7.367e-10
5.427e-11
7.281e-10
4.915e-11
7.204e-10
4.446e-11
7.134e-10
4.015e-11
7.07e-10
3.622e-11
7.013e-10
3.263e-11
6.961e-10
2.936e-11
6.914e-10
2.639e-11
6.872e-10
2.369e-11
6.834e-10
2.126e-11
6.8e-10
1.906e-11
6.77e-10
1.708e-11
6.742e-10
1.531e-11
6.718e-10
1.374e-11
6.696e-10
1.235e-11
6.676e-10
1.113e-11
6.658e-10
1.007e-11
6.642e-10
9.173e-12
6.628e-10
8.424e-12
6.615e-10
7.817e-12
6.603e-10
7.346e-12
6.593e-10
7.001e-12
6.583e-10
6.771e-12
6.573e-10
6.641e-12
6.592e-12
9.453e-10
6.203e-11
9.625e-10
1.624e-10
9.825e-10
2.364e-10
1e-09
2.848e-10
1.014e-09
3.117e-10
1.021e-09
3.219e-10
1.023e-09
3.197e-10
1.02e-09
3.089e-10
1.013e-09
2.925e-10
1.003e-09
2.728e-10
9.908e-10
2.514e-10
9.776e-10
2.293e-10
9.639e-10
2.074e-10
9.504e-10
1.86e-10
9.372e-10
1.655e-10
9.249e-10
1.46e-10
9.136e-10
1.276e-10
9.035e-10
1.101e-10
8.946e-10
9.364e-11
8.871e-10
7.802e-11
8.811e-10
6.317e-11
8.765e-10
4.898e-11
8.734e-10
3.535e-11
8.719e-10
2.216e-11
8.718e-10
9.304e-12
8.734e-10
-3.321e-12
8.765e-10
-1.582e-11
8.813e-10
-2.828e-11
8.877e-10
-4.079e-11
8.958e-10
-5.345e-11
9.057e-10
-6.631e-11
9.174e-10
-7.947e-11
9.309e-10
-9.296e-11
9.463e-10
-1.068e-10
9.638e-10
-1.211e-10
9.832e-10
-1.359e-10
1.005e-09
-1.511e-10
1.029e-09
-1.667e-10
1.055e-09
-1.827e-10
1.083e-09
-1.991e-10
1.113e-09
-2.156e-10
1.146e-09
-2.323e-10
1.182e-09
-2.489e-10
1.219e-09
-2.653e-10
1.259e-09
-2.812e-10
1.301e-09
-2.962e-10
1.345e-09
-3.102e-10
1.391e-09
-3.227e-10
1.439e-09
-3.333e-10
1.488e-09
-3.415e-10
1.538e-09
-3.47e-10
1.588e-09
-3.492e-10
1.638e-09
-3.477e-10
1.688e-09
-3.42e-10
1.736e-09
-3.317e-10
1.782e-09
-3.166e-10
1.826e-09
-2.963e-10
1.866e-09
-2.709e-10
1.902e-09
-2.405e-10
1.932e-09
-2.054e-10
1.957e-09
-1.661e-10
1.975e-09
-1.233e-10
1.987e-09
-7.821e-11
1.991e-09
-3.176e-11
1.989e-09
1.483e-11
1.98e-09
6.046e-11
1.964e-09
1.041e-10
1.943e-09
1.451e-10
1.916e-09
1.826e-10
1.884e-09
2.163e-10
1.848e-09
2.459e-10
1.809e-09
2.712e-10
1.767e-09
2.922e-10
1.723e-09
3.089e-10
1.676e-09
3.216e-10
1.629e-09
3.302e-10
1.581e-09
3.352e-10
1.533e-09
3.367e-10
1.485e-09
3.352e-10
1.437e-09
3.308e-10
1.391e-09
3.241e-10
1.346e-09
3.152e-10
1.302e-09
3.047e-10
1.26e-09
2.929e-10
1.22e-09
2.8e-10
1.182e-09
2.663e-10
1.146e-09
2.522e-10
1.112e-09
2.379e-10
1.08e-09
2.234e-10
1.05e-09
2.092e-10
1.021e-09
1.951e-10
9.952e-10
1.815e-10
9.709e-10
1.684e-10
9.483e-10
1.557e-10
9.274e-10
1.437e-10
9.082e-10
1.323e-10
8.904e-10
1.216e-10
8.741e-10
1.114e-10
8.592e-10
1.02e-10
8.455e-10
9.314e-11
8.329e-10
8.493e-11
8.215e-10
7.731e-11
8.11e-10
7.027e-11
8.015e-10
6.377e-11
7.929e-10
5.779e-11
7.851e-10
5.23e-11
7.779e-10
4.727e-11
7.715e-10
4.266e-11
7.657e-10
3.846e-11
7.604e-10
3.462e-11
7.557e-10
3.114e-11
7.514e-10
2.797e-11
7.475e-10
2.511e-11
7.441e-10
2.252e-11
7.409e-10
2.019e-11
7.382e-10
1.811e-11
7.356e-10
1.624e-11
7.334e-10
1.459e-11
7.314e-10
1.314e-11
7.296e-10
1.187e-11
7.28e-10
1.078e-11
7.265e-10
9.868e-12
7.252e-10
9.114e-12
7.241e-10
8.515e-12
7.23e-10
8.061e-12
7.22e-10
7.743e-12
7.211e-10
7.55e-12
7.469e-12
9.44e-10
5.549e-11
9.591e-10
1.474e-10
9.777e-10
2.177e-10
9.96e-10
2.665e-10
1.011e-09
2.964e-10
1.022e-09
3.108e-10
1.029e-09
3.133e-10
1.031e-09
3.069e-10
1.029e-09
2.943e-10
1.024e-09
2.776e-10
1.017e-09
2.584e-10
1.009e-09
2.379e-10
9.991e-10
2.169e-10
9.892e-10
1.96e-10
9.793e-10
1.754e-10
9.697e-10
1.556e-10
9.608e-10
1.365e-10
9.527e-10
1.182e-10
9.455e-10
1.008e-10
9.395e-10
8.406e-11
9.347e-10
6.802e-11
9.311e-10
5.257e-11
9.288e-10
3.762e-11
9.279e-10
2.307e-11
9.284e-10
8.806e-12
9.303e-10
-5.262e-12
9.338e-10
-1.924e-11
9.387e-10
-3.323e-11
9.452e-10
-4.731e-11
9.534e-10
-6.158e-11
9.632e-10
-7.612e-11
9.747e-10
-9.1e-11
9.88e-10
-1.063e-10
1.003e-09
-1.22e-10
1.02e-09
-1.382e-10
1.039e-09
-1.55e-10
1.061e-09
-1.722e-10
1.084e-09
-1.9e-10
1.109e-09
-2.082e-10
1.137e-09
-2.268e-10
1.167e-09
-2.456e-10
1.199e-09
-2.646e-10
1.234e-09
-2.836e-10
1.271e-09
-3.023e-10
1.31e-09
-3.204e-10
1.352e-09
-3.377e-10
1.395e-09
-3.537e-10
1.441e-09
-3.681e-10
1.488e-09
-3.804e-10
1.536e-09
-3.9e-10
1.586e-09
-3.965e-10
1.636e-09
-3.993e-10
1.686e-09
-3.978e-10
1.736e-09
-3.916e-10
1.784e-09
-3.802e-10
1.831e-09
-3.631e-10
1.875e-09
-3.402e-10
1.915e-09
-3.114e-10
1.951e-09
-2.766e-10
1.982e-09
-2.363e-10
2.007e-09
-1.911e-10
2.026e-09
-1.418e-10
2.037e-09
-8.976e-11
2.042e-09
-3.617e-11
2.039e-09
1.751e-11
2.029e-09
6.999e-11
2.013e-09
1.201e-10
1.992e-09
1.669e-10
1.964e-09
2.097e-10
1.933e-09
2.481e-10
1.897e-09
2.817e-10
1.857e-09
3.105e-10
1.815e-09
3.343e-10
1.771e-09
3.533e-10
1.725e-09
3.676e-10
1.678e-09
3.774e-10
1.63e-09
3.83e-10
1.582e-09
3.846e-10
1.535e-09
3.828e-10
1.488e-09
3.777e-10
1.442e-09
3.7e-10
1.397e-09
3.599e-10
1.354e-09
3.478e-10
1.313e-09
3.343e-10
1.273e-09
3.195e-10
1.236e-09
3.039e-10
1.2e-09
2.878e-10
1.166e-09
2.714e-10
1.135e-09
2.55e-10
1.105e-09
2.387e-10
1.078e-09
2.228e-10
1.052e-09
2.073e-10
1.028e-09
1.923e-10
1.006e-09
1.779e-10
9.852e-10
1.642e-10
9.663e-10
1.512e-10
9.489e-10
1.39e-10
9.328e-10
1.275e-10
9.181e-10
1.167e-10
9.046e-10
1.066e-10
8.923e-10
9.727e-11
8.81e-10
8.859e-11
8.707e-10
8.055e-11
8.614e-10
7.314e-11
8.528e-10
6.632e-11
8.451e-10
6.005e-11
8.381e-10
5.43e-11
8.317e-10
4.903e-11
8.259e-10
4.422e-11
8.207e-10
3.984e-11
8.16e-10
3.584e-11
8.118e-10
3.222e-11
8.08e-10
2.893e-11
8.045e-10
2.596e-11
8.014e-10
2.328e-11
7.986e-10
2.088e-11
7.962e-10
1.873e-11
7.939e-10
1.682e-11
7.919e-10
1.513e-11
7.902e-10
1.365e-11
7.886e-10
1.237e-11
7.872e-10
1.129e-11
7.859e-10
1.038e-11
7.847e-10
9.653e-12
7.837e-10
9.089e-12
7.828e-10
8.682e-12
7.819e-10
8.425e-12
8.312e-12
9.431e-10
4.992e-11
9.564e-10
1.341e-10
9.737e-10
2.003e-10
9.918e-10
2.484e-10
1.008e-09
2.799e-10
1.022e-09
2.974e-10
1.031e-09
3.035e-10
1.038e-09
3.008e-10
1.04e-09
2.916e-10
1.04e-09
2.779e-10
1.037e-09
2.611e-10
1.033e-09
2.423e-10
1.027e-09
2.226e-10
1.021e-09
2.024e-10
1.014e-09
1.822e-10
1.007e-09
1.624e-10
1.001e-09
1.43e-10
9.946e-10
1.242e-10
9.893e-10
1.061e-10
9.848e-10
8.855e-11
9.813e-10
7.157e-11
9.788e-10
5.509e-11
9.773e-10
3.903e-11
9.771e-10
2.33e-11
9.781e-10
7.803e-12
9.804e-10
-7.554e-12
9.84e-10
-2.287e-11
9.891e-10
-3.825e-11
9.955e-10
-5.378e-11
1.003e-09
-6.955e-11
1.013e-09
-8.564e-11
1.024e-09
-1.021e-10
1.037e-09
-1.191e-10
1.052e-09
-1.366e-10
1.068e-09
-1.546e-10
1.086e-09
-1.733e-10
1.106e-09
-1.925e-10
1.129e-09
-2.123e-10
1.153e-09
-2.326e-10
1.18e-09
-2.533e-10
1.208e-09
-2.744e-10
1.239e-09
-2.956e-10
1.273e-09
-3.169e-10
1.308e-09
-3.378e-10
1.346e-09
-3.582e-10
1.386e-09
-3.777e-10
1.428e-09
-3.958e-10
1.472e-09
-4.121e-10
1.518e-09
-4.26e-10
1.565e-09
-4.371e-10
1.613e-09
-4.447e-10
1.662e-09
-4.482e-10
1.711e-09
-4.469e-10
1.76e-09
-4.403e-10
1.807e-09