/*--------------------------------*- C++ -*----------------------------------*\
  =========                 |
  \\      /  F ield         | OpenFOAM: The Open Source CFD Toolbox
   \\    /   O peration     | Website:  https://openfoam.org
    \\  /    A nd           | Version:  7
     \\/     M anipulation  |
\*---------------------------------------------------------------------------*/
FoamFile
{
    version     2.0;
    format      ascii;
    class       volVectorField;
    location    "1319.99947341706002";
    object      U;
}
// * * * * * * * * * * * * * * * * * * * * * * * * * * * * * * * * * * * * * //

dimensions      [0 1 -1 0 0 0 0];

internalField   nonuniform List<vector> 
4096
(
(0.001039 0.0001611 0)
(0.0007463 0.0001314 0)
(0.0005302 8.473e-05 0)
(0.0003919 5.358e-05 0)
(0.0003036 3.466e-05 0)
(0.0002457 2.328e-05 0)
(0.0002061 1.632e-05 0)
(0.0001778 1.194e-05 0)
(0.0001569 9.047e-06 0)
(0.0001408 7.057e-06 0)
(0.0001281 5.628e-06 0)
(0.0001179 4.563e-06 0)
(0.0001096 3.746e-06 0)
(0.0001027 3.102e-06 0)
(9.704e-05 2.583e-06 0)
(9.23e-05 2.156e-06 0)
(8.834e-05 1.8e-06 0)
(8.505e-05 1.498e-06 0)
(8.231e-05 1.237e-06 0)
(8.006e-05 1.009e-06 0)
(7.825e-05 8.076e-07 0)
(7.681e-05 6.26e-07 0)
(7.573e-05 4.603e-07 0)
(7.496e-05 3.069e-07 0)
(7.449e-05 1.627e-07 0)
(7.43e-05 2.525e-08 0)
(7.438e-05 -1.077e-07 0)
(7.473e-05 -2.382e-07 0)
(7.534e-05 -3.677e-07 0)
(7.62e-05 -4.977e-07 0)
(7.733e-05 -6.296e-07 0)
(7.872e-05 -7.645e-07 0)
(8.039e-05 -9.033e-07 0)
(8.234e-05 -1.047e-06 0)
(8.458e-05 -1.196e-06 0)
(8.713e-05 -1.351e-06 0)
(9e-05 -1.512e-06 0)
(9.319e-05 -1.68e-06 0)
(9.672e-05 -1.853e-06 0)
(0.0001006 -2.032e-06 0)
(0.0001049 -2.215e-06 0)
(0.0001095 -2.402e-06 0)
(0.0001145 -2.589e-06 0)
(0.0001198 -2.776e-06 0)
(0.0001256 -2.959e-06 0)
(0.0001317 -3.136e-06 0)
(0.0001381 -3.301e-06 0)
(0.0001448 -3.451e-06 0)
(0.0001519 -3.58e-06 0)
(0.0001591 -3.684e-06 0)
(0.0001666 -3.757e-06 0)
(0.0001741 -3.793e-06 0)
(0.0001817 -3.786e-06 0)
(0.0001892 -3.731e-06 0)
(0.0001966 -3.623e-06 0)
(0.0002037 -3.46e-06 0)
(0.0002104 -3.239e-06 0)
(0.0002166 -2.959e-06 0)
(0.0002221 -2.623e-06 0)
(0.000227 -2.235e-06 0)
(0.000231 -1.8e-06 0)
(0.0002342 -1.329e-06 0)
(0.0002363 -8.312e-07 0)
(0.0002375 -3.189e-07 0)
(0.0002376 1.957e-07 0)
(0.0002367 7.002e-07 0)
(0.0002348 1.184e-06 0)
(0.000232 1.636e-06 0)
(0.0002283 2.05e-06 0)
(0.0002238 2.42e-06 0)
(0.0002187 2.741e-06 0)
(0.0002129 3.012e-06 0)
(0.0002067 3.233e-06 0)
(0.0002 3.403e-06 0)
(0.0001931 3.525e-06 0)
(0.000186 3.602e-06 0)
(0.0001788 3.637e-06 0)
(0.0001715 3.633e-06 0)
(0.0001643 3.595e-06 0)
(0.0001571 3.527e-06 0)
(0.0001502 3.433e-06 0)
(0.0001434 3.319e-06 0)
(0.0001369 3.187e-06 0)
(0.0001307 3.043e-06 0)
(0.0001248 2.889e-06 0)
(0.0001191 2.728e-06 0)
(0.0001138 2.565e-06 0)
(0.0001089 2.401e-06 0)
(0.0001042 2.239e-06 0)
(9.992e-05 2.08e-06 0)
(9.591e-05 1.926e-06 0)
(9.221e-05 1.777e-06 0)
(8.88e-05 1.635e-06 0)
(8.566e-05 1.5e-06 0)
(8.279e-05 1.373e-06 0)
(8.016e-05 1.254e-06 0)
(7.777e-05 1.142e-06 0)
(7.559e-05 1.038e-06 0)
(7.361e-05 9.418e-07 0)
(7.181e-05 8.528e-07 0)
(7.019e-05 7.708e-07 0)
(6.872e-05 6.955e-07 0)
(6.74e-05 6.264e-07 0)
(6.621e-05 5.633e-07 0)
(6.514e-05 5.058e-07 0)
(6.418e-05 4.534e-07 0)
(6.332e-05 4.058e-07 0)
(6.255e-05 3.627e-07 0)
(6.187e-05 3.237e-07 0)
(6.126e-05 2.884e-07 0)
(6.071e-05 2.567e-07 0)
(6.023e-05 2.282e-07 0)
(5.98e-05 2.027e-07 0)
(5.941e-05 1.8e-07 0)
(5.907e-05 1.599e-07 0)
(5.877e-05 1.422e-07 0)
(5.85e-05 1.269e-07 0)
(5.826e-05 1.139e-07 0)
(5.804e-05 1.032e-07 0)
(5.785e-05 9.489e-08 0)
(5.766e-05 8.922e-08 0)
(5.749e-05 8.66e-08 0)
(5.731e-05 8.777e-08 0)
(5.713e-05 9.42e-08 0)
(5.693e-05 1.086e-07 0)
(5.668e-05 1.355e-07 0)
(5.637e-05 1.8e-07 0)
(5.595e-05 2.339e-07 0)
(0.001209 0.0003128 0)
(0.001154 0.0003282 0)
(0.00101 0.000248 0)
(0.0008613 0.0001771 0)
(0.0007345 0.0001262 0)
(0.0006327 9.143e-05 0)
(0.0005526 6.787e-05 0)
(0.0004896 5.171e-05 0)
(0.0004395 4.035e-05 0)
(0.0003992 3.213e-05 0)
(0.0003665 2.6e-05 0)
(0.0003395 2.131e-05 0)
(0.0003172 1.763e-05 0)
(0.0002986 1.469e-05 0)
(0.000283 1.229e-05 0)
(0.0002698 1.03e-05 0)
(0.0002588 8.63e-06 0)
(0.0002496 7.2e-06 0)
(0.0002419 5.962e-06 0)
(0.0002356 4.874e-06 0)
(0.0002304 3.907e-06 0)
(0.0002263 3.034e-06 0)
(0.0002232 2.236e-06 0)
(0.000221 1.496e-06 0)
(0.0002197 7.998e-07 0)
(0.0002191 1.352e-07 0)
(0.0002193 -5.077e-07 0)
(0.0002203 -1.138e-06 0)
(0.000222 -1.763e-06 0)
(0.0002244 -2.39e-06 0)
(0.0002276 -3.025e-06 0)
(0.0002315 -3.673e-06 0)
(0.0002361 -4.339e-06 0)
(0.0002416 -5.026e-06 0)
(0.0002479 -5.738e-06 0)
(0.000255 -6.476e-06 0)
(0.000263 -7.242e-06 0)
(0.0002719 -8.035e-06 0)
(0.0002817 -8.854e-06 0)
(0.0002925 -9.697e-06 0)
(0.0003043 -1.056e-05 0)
(0.000317 -1.143e-05 0)
(0.0003308 -1.231e-05 0)
(0.0003455 -1.318e-05 0)
(0.0003612 -1.402e-05 0)
(0.0003779 -1.484e-05 0)
(0.0003955 -1.56e-05 0)
(0.0004138 -1.628e-05 0)
(0.0004329 -1.686e-05 0)
(0.0004526 -1.733e-05 0)
(0.0004727 -1.764e-05 0)
(0.000493 -1.778e-05 0)
(0.0005134 -1.773e-05 0)
(0.0005335 -1.745e-05 0)
(0.0005532 -1.692e-05 0)
(0.0005721 -1.614e-05 0)
(0.0005899 -1.51e-05 0)
(0.0006064 -1.378e-05 0)
(0.0006212 -1.221e-05 0)
(0.0006341 -1.04e-05 0)
(0.0006448 -8.386e-06 0)
(0.0006532 -6.199e-06 0)
(0.0006589 -3.892e-06 0)
(0.0006621 -1.518e-06 0)
(0.0006625 8.673e-07 0)
(0.0006602 3.209e-06 0)
(0.0006553 5.456e-06 0)
(0.0006479 7.564e-06 0)
(0.0006382 9.499e-06 0)
(0.0006264 1.123e-05 0)
(0.0006128 1.275e-05 0)
(0.0005975 1.403e-05 0)
(0.0005809 1.508e-05 0)
(0.0005632 1.59e-05 0)
(0.0005446 1.65e-05 0)
(0.0005255 1.688e-05 0)
(0.000506 1.707e-05 0)
(0.0004864 1.708e-05 0)
(0.0004669 1.692e-05 0)
(0.0004476 1.663e-05 0)
(0.0004286 1.622e-05 0)
(0.0004102 1.57e-05 0)
(0.0003924 1.51e-05 0)
(0.0003754 1.444e-05 0)
(0.0003591 1.373e-05 0)
(0.0003436 1.299e-05 0)
(0.0003289 1.223e-05 0)
(0.0003152 1.147e-05 0)
(0.0003023 1.071e-05 0)
(0.0002903 9.963e-06 0)
(0.0002791 9.237e-06 0)
(0.0002687 8.538e-06 0)
(0.0002591 7.867e-06 0)
(0.0002503 7.23e-06 0)
(0.0002422 6.627e-06 0)
(0.0002347 6.059e-06 0)
(0.000228 5.528e-06 0)
(0.0002218 5.033e-06 0)
(0.0002161 4.572e-06 0)
(0.000211 4.146e-06 0)
(0.0002063 3.753e-06 0)
(0.0002021 3.391e-06 0)
(0.0001983 3.059e-06 0)
(0.0001949 2.755e-06 0)
(0.0001918 2.478e-06 0)
(0.000189 2.225e-06 0)
(0.0001865 1.995e-06 0)
(0.0001842 1.786e-06 0)
(0.0001822 1.596e-06 0)
(0.0001804 1.425e-06 0)
(0.0001788 1.271e-06 0)
(0.0001774 1.132e-06 0)
(0.0001761 1.008e-06 0)
(0.000175 8.967e-07 0)
(0.000174 7.983e-07 0)
(0.0001731 7.117e-07 0)
(0.0001723 6.365e-07 0)
(0.0001715 5.723e-07 0)
(0.0001709 5.192e-07 0)
(0.0001703 4.775e-07 0)
(0.0001697 4.479e-07 0)
(0.0001692 4.318e-07 0)
(0.0001687 4.315e-07 0)
(0.0001682 4.508e-07 0)
(0.0001676 4.96e-07 0)
(0.000167 5.758e-07 0)
(0.0001664 6.944e-07 0)
(0.0001657 8.183e-07 0)
(0.001226 0.0002775 0)
(0.001243 0.0004027 0)
(0.001194 0.0003664 0)
(0.001102 0.0002982 0)
(0.0009998 0.0002345 0)
(0.0009018 0.000183 0)
(0.0008145 0.0001436 0)
(0.0007395 0.000114 0)
(0.0006759 9.169e-05 0)
(0.0006224 7.464e-05 0)
(0.0005772 6.14e-05 0)
(0.0005391 5.096e-05 0)
(0.0005068 4.258e-05 0)
(0.0004794 3.574e-05 0)
(0.0004562 3.009e-05 0)
(0.0004365 2.534e-05 0)
(0.0004198 2.131e-05 0)
(0.0004057 1.783e-05 0)
(0.000394 1.481e-05 0)
(0.0003842 1.213e-05 0)
(0.0003762 9.744e-06 0)
(0.0003699 7.58e-06 0)
(0.0003651 5.595e-06 0)
(0.0003617 3.749e-06 0)
(0.0003596 2.008e-06 0)
(0.0003587 3.453e-07 0)
(0.0003591 -1.265e-06 0)
(0.0003606 -2.843e-06 0)
(0.0003633 -4.408e-06 0)
(0.0003671 -5.977e-06 0)
(0.000372 -7.564e-06 0)
(0.0003782 -9.183e-06 0)
(0.0003855 -1.084e-05 0)
(0.0003941 -1.255e-05 0)
(0.0004039 -1.432e-05 0)
(0.000415 -1.615e-05 0)
(0.0004275 -1.805e-05 0)
(0.0004414 -2e-05 0)
(0.0004567 -2.202e-05 0)
(0.0004735 -2.409e-05 0)
(0.0004918 -2.62e-05 0)
(0.0005116 -2.834e-05 0)
(0.0005329 -3.047e-05 0)
(0.0005557 -3.259e-05 0)
(0.00058 -3.465e-05 0)
(0.0006058 -3.661e-05 0)
(0.0006328 -3.844e-05 0)
(0.0006611 -4.007e-05 0)
(0.0006904 -4.147e-05 0)
(0.0007206 -4.256e-05 0)
(0.0007514 -4.328e-05 0)
(0.0007825 -4.358e-05 0)
(0.0008136 -4.34e-05 0)
(0.0008443 -4.267e-05 0)
(0.0008743 -4.136e-05 0)
(0.0009031 -3.942e-05 0)
(0.0009303 -3.684e-05 0)
(0.0009554 -3.362e-05 0)
(0.000978 -2.978e-05 0)
(0.0009976 -2.537e-05 0)
(0.001014 -2.046e-05 0)
(0.001027 -1.514e-05 0)
(0.001035 -9.54e-06 0)
(0.00104 -3.772e-06 0)
(0.001041 2.024e-06 0)
(0.001038 7.718e-06 0)
(0.00103 1.319e-05 0)
(0.001019 1.833e-05 0)
(0.001004 2.306e-05 0)
(0.0009866 2.731e-05 0)
(0.0009659 3.103e-05 0)
(0.0009427 3.42e-05 0)
(0.0009175 3.68e-05 0)
(0.0008905 3.885e-05 0)
(0.0008622 4.036e-05 0)
(0.000833 4.135e-05 0)
(0.0008032 4.186e-05 0)
(0.0007732 4.193e-05 0)
(0.0007432 4.161e-05 0)
(0.0007135 4.094e-05 0)
(0.0006844 3.997e-05 0)
(0.000656 3.874e-05 0)
(0.0006285 3.731e-05 0)
(0.0006021 3.572e-05 0)
(0.0005769 3.401e-05 0)
(0.0005528 3.222e-05 0)
(0.0005301 3.038e-05 0)
(0.0005087 2.852e-05 0)
(0.0004886 2.666e-05 0)
(0.0004698 2.484e-05 0)
(0.0004522 2.306e-05 0)
(0.000436 2.134e-05 0)
(0.0004209 1.969e-05 0)
(0.0004071 1.812e-05 0)
(0.0003943 1.663e-05 0)
(0.0003825 1.522e-05 0)
(0.0003718 1.391e-05 0)
(0.000362 1.268e-05 0)
(0.000353 1.153e-05 0)
(0.0003449 1.047e-05 0)
(0.0003375 9.489e-06 0)
(0.0003307 8.586e-06 0)
(0.0003247 7.755e-06 0)
(0.0003192 6.994e-06 0)
(0.0003142 6.298e-06 0)
(0.0003097 5.663e-06 0)
(0.0003057 5.084e-06 0)
(0.0003021 4.558e-06 0)
(0.0002988 4.081e-06 0)
(0.0002959 3.649e-06 0)
(0.0002933 3.26e-06 0)
(0.000291 2.908e-06 0)
(0.0002889 2.593e-06 0)
(0.000287 2.312e-06 0)
(0.0002854 2.062e-06 0)
(0.0002839 1.841e-06 0)
(0.0002825 1.649e-06 0)
(0.0002814 1.485e-06 0)
(0.0002803 1.347e-06 0)
(0.0002793 1.237e-06 0)
(0.0002784 1.156e-06 0)
(0.0002775 1.106e-06 0)
(0.0002767 1.09e-06 0)
(0.0002759 1.113e-06 0)
(0.0002751 1.179e-06 0)
(0.0002743 1.294e-06 0)
(0.0002734 1.448e-06 0)
(0.0002726 1.583e-06 0)
(0.001224 0.0002275 0)
(0.00126 0.0004003 0)
(0.001258 0.0004193 0)
(0.001216 0.0003788 0)
(0.001149 0.0003228 0)
(0.001074 0.0002684 0)
(0.0009977 0.0002213 0)
(0.0009265 0.0001825 0)
(0.0008622 0.0001511 0)
(0.0008051 0.0001258 0)
(0.0007552 0.0001053 0)
(0.0007117 8.862e-05 0)
(0.000674 7.485e-05 0)
(0.0006415 6.338e-05 0)
(0.0006134 5.373e-05 0)
(0.0005893 4.552e-05 0)
(0.0005686 3.845e-05 0)
(0.0005511 3.231e-05 0)
(0.0005363 2.69e-05 0)
(0.000524 2.21e-05 0)
(0.000514 1.778e-05 0)
(0.000506 1.385e-05 0)
(0.0004999 1.023e-05 0)
(0.0004956 6.845e-06 0)
(0.0004929 3.648e-06 0)
(0.0004919 5.88e-07 0)
(0.0004924 -2.379e-06 0)
(0.0004945 -5.291e-06 0)
(0.0004981 -8.18e-06 0)
(0.0005031 -1.108e-05 0)
(0.0005097 -1.4e-05 0)
(0.0005178 -1.699e-05 0)
(0.0005275 -2.004e-05 0)
(0.0005387 -2.319e-05 0)
(0.0005516 -2.643e-05 0)
(0.0005663 -2.979e-05 0)
(0.0005826 -3.326e-05 0)
(0.0006008 -3.684e-05 0)
(0.0006208 -4.052e-05 0)
(0.0006427 -4.429e-05 0)
(0.0006665 -4.812e-05 0)
(0.0006923 -5.199e-05 0)
(0.00072 -5.586e-05 0)
(0.0007497 -5.968e-05 0)
(0.0007812 -6.339e-05 0)
(0.0008145 -6.692e-05 0)
(0.0008495 -7.019e-05 0)
(0.0008861 -7.311e-05 0)
(0.0009239 -7.559e-05 0)
(0.0009628 -7.751e-05 0)
(0.001002 -7.877e-05 0)
(0.001043 -7.925e-05 0)
(0.001083 -7.886e-05 0)
(0.001122 -7.749e-05 0)
(0.001161 -7.507e-05 0)
(0.001198 -7.152e-05 0)
(0.001232 -6.681e-05 0)
(0.001265 -6.096e-05 0)
(0.001294 -5.4e-05 0)
(0.001319 -4.6e-05 0)
(0.00134 -3.712e-05 0)
(0.001356 -2.751e-05 0)
(0.001368 -1.737e-05 0)
(0.001374 -6.946e-06 0)
(0.001375 3.534e-06 0)
(0.00137 1.383e-05 0)
(0.001361 2.374e-05 0)
(0.001347 3.306e-05 0)
(0.001328 4.164e-05 0)
(0.001306 4.936e-05 0)
(0.001279 5.614e-05 0)
(0.001249 6.193e-05 0)
(0.001217 6.671e-05 0)
(0.001182 7.048e-05 0)
(0.001146 7.328e-05 0)
(0.001109 7.516e-05 0)
(0.00107 7.616e-05 0)
(0.001032 7.636e-05 0)
(0.0009929 7.585e-05 0)
(0.0009546 7.47e-05 0)
(0.000917 7.3e-05 0)
(0.0008802 7.084e-05 0)
(0.0008446 6.829e-05 0)
(0.0008103 6.545e-05 0)
(0.0007775 6.238e-05 0)
(0.0007462 5.916e-05 0)
(0.0007165 5.584e-05 0)
(0.0006885 5.248e-05 0)
(0.0006622 4.912e-05 0)
(0.0006376 4.581e-05 0)
(0.0006147 4.257e-05 0)
(0.0005933 3.944e-05 0)
(0.0005735 3.643e-05 0)
(0.0005552 3.356e-05 0)
(0.0005383 3.083e-05 0)
(0.0005228 2.826e-05 0)
(0.0005086 2.584e-05 0)
(0.0004956 2.358e-05 0)
(0.0004837 2.148e-05 0)
(0.0004729 1.952e-05 0)
(0.000463 1.771e-05 0)
(0.000454 1.604e-05 0)
(0.0004459 1.451e-05 0)
(0.0004385 1.31e-05 0)
(0.0004319 1.181e-05 0)
(0.0004259 1.063e-05 0)
(0.0004205 9.557e-06 0)
(0.0004156 8.58e-06 0)
(0.0004112 7.692e-06 0)
(0.0004073 6.887e-06 0)
(0.0004037 6.16e-06 0)
(0.0004006 5.504e-06 0)
(0.0003977 4.915e-06 0)
(0.0003952 4.387e-06 0)
(0.0003929 3.918e-06 0)
(0.0003909 3.503e-06 0)
(0.0003891 3.14e-06 0)
(0.0003874 2.828e-06 0)
(0.000386 2.565e-06 0)
(0.0003846 2.351e-06 0)
(0.0003834 2.187e-06 0)
(0.0003822 2.075e-06 0)
(0.0003812 2.018e-06 0)
(0.0003801 2.019e-06 0)
(0.0003791 2.079e-06 0)
(0.0003782 2.195e-06 0)
(0.0003772 2.345e-06 0)
(0.0003762 2.463e-06 0)
(0.001219 0.0001846 0)
(0.001255 0.0003712 0)
(0.001275 0.00043 0)
(0.001265 0.0004209 0)
(0.001229 0.0003826 0)
(0.001178 0.0003352 0)
(0.00112 0.0002884 0)
(0.001061 0.0002461 0)
(0.001003 0.0002094 0)
(0.0009498 0.0001782 0)
(0.0009009 0.0001518 0)
(0.0008569 0.0001296 0)
(0.0008179 0.0001107 0)
(0.0007834 9.461e-05 0)
(0.0007531 8.082e-05 0)
(0.0007268 6.889e-05 0)
(0.000704 5.85e-05 0)
(0.0006844 4.936e-05 0)
(0.0006678 4.124e-05 0)
(0.0006539 3.397e-05 0)
(0.0006425 2.737e-05 0)
(0.0006334 2.134e-05 0)
(0.0006265 1.575e-05 0)
(0.0006216 1.05e-05 0)
(0.0006187 5.531e-06 0)
(0.0006177 7.564e-07 0)
(0.0006185 -3.883e-06 0)
(0.0006211 -8.443e-06 0)
(0.0006255 -1.297e-05 0)
(0.0006316 -1.751e-05 0)
(0.0006396 -2.21e-05 0)
(0.0006494 -2.678e-05 0)
(0.000661 -3.157e-05 0)
(0.0006746 -3.649e-05 0)
(0.0006901 -4.156e-05 0)
(0.0007076 -4.68e-05 0)
(0.0007272 -5.221e-05 0)
(0.000749 -5.778e-05 0)
(0.0007729 -6.351e-05 0)
(0.0007991 -6.936e-05 0)
(0.0008275 -7.531e-05 0)
(0.0008582 -8.13e-05 0)
(0.0008912 -8.728e-05 0)
(0.0009265 -9.318e-05 0)
(0.0009639 -9.889e-05 0)
(0.001004 -0.0001043 0)
(0.001045 -0.0001093 0)
(0.001088 -0.0001138 0)
(0.001133 -0.0001176 0)
(0.001179 -0.0001205 0)
(0.001226 -0.0001224 0)
(0.001273 -0.0001231 0)
(0.001321 -0.0001224 0)
(0.001368 -0.0001202 0)
(0.001413 -0.0001164 0)
(0.001457 -0.0001109 0)
(0.001498 -0.0001036 0)
(0.001536 -9.449e-05 0)
(0.00157 -8.37e-05 0)
(0.0016 -7.133e-05 0)
(0.001625 -5.758e-05 0)
(0.001644 -4.271e-05 0)
(0.001658 -2.703e-05 0)
(0.001665 -1.09e-05 0)
(0.001666 5.309e-06 0)
(0.001661 2.125e-05 0)
(0.001651 3.658e-05 0)
(0.001634 5.102e-05 0)
(0.001612 6.432e-05 0)
(0.001585 7.63e-05 0)
(0.001554 8.684e-05 0)
(0.001519 9.586e-05 0)
(0.001481 0.0001033 0)
(0.00144 0.0001092 0)
(0.001397 0.0001137 0)
(0.001353 0.0001166 0)
(0.001308 0.0001183 0)
(0.001262 0.0001187 0)
(0.001216 0.000118 0)
(0.001171 0.0001163 0)
(0.001126 0.0001137 0)
(0.001082 0.0001105 0)
(0.00104 0.0001066 0)
(0.0009991 0.0001022 0)
(0.00096 9.753e-05 0)
(0.0009227 9.258e-05 0)
(0.0008874 8.746e-05 0)
(0.0008539 8.227e-05 0)
(0.0008225 7.708e-05 0)
(0.000793 7.195e-05 0)
(0.0007654 6.694e-05 0)
(0.0007398 6.207e-05 0)
(0.000716 5.739e-05 0)
(0.000694 5.292e-05 0)
(0.0006736 4.866e-05 0)
(0.0006549 4.465e-05 0)
(0.0006377 4.087e-05 0)
(0.000622 3.733e-05 0)
(0.0006075 3.403e-05 0)
(0.0005944 3.097e-05 0)
(0.0005824 2.813e-05 0)
(0.0005715 2.55e-05 0)
(0.0005616 2.309e-05 0)
(0.0005526 2.087e-05 0)
(0.0005445 1.883e-05 0)
(0.0005371 1.697e-05 0)
(0.0005305 1.527e-05 0)
(0.0005245 1.373e-05 0)
(0.0005191 1.232e-05 0)
(0.0005142 1.104e-05 0)
(0.0005099 9.888e-06 0)
(0.000506 8.846e-06 0)
(0.0005025 7.908e-06 0)
(0.0004993 7.068e-06 0)
(0.0004965 6.318e-06 0)
(0.000494 5.654e-06 0)
(0.0004917 5.071e-06 0)
(0.0004897 4.567e-06 0)
(0.0004879 4.137e-06 0)
(0.0004862 3.783e-06 0)
(0.0004847 3.503e-06 0)
(0.0004833 3.298e-06 0)
(0.000482 3.169e-06 0)
(0.0004808 3.117e-06 0)
(0.0004796 3.139e-06 0)
(0.0004785 3.224e-06 0)
(0.0004775 3.345e-06 0)
(0.0004764 3.439e-06 0)
(0.001214 0.000152 0)
(0.001246 0.0003354 0)
(0.001274 0.0004181 0)
(0.001282 0.0004352 0)
(0.001269 0.0004166 0)
(0.00124 0.0003812 0)
(0.0012 0.0003401 0)
(0.001155 0.0002991 0)
(0.001108 0.0002609 0)
(0.001062 0.0002266 0)
(0.001018 0.0001964 0)
(0.0009766 0.0001699 0)
(0.0009392 0.0001468 0)
(0.0009054 0.0001267 0)
(0.0008752 0.0001091 0)
(0.0008486 9.363e-05 0)
(0.0008252 7.993e-05 0)
(0.000805 6.774e-05 0)
(0.0007876 5.68e-05 0)
(0.000773 4.69e-05 0)
(0.000761 3.786e-05 0)
(0.0007515 2.952e-05 0)
(0.0007442 2.175e-05 0)
(0.0007391 1.443e-05 0)
(0.0007362 7.452e-06 0)
(0.0007353 7.325e-07 0)
(0.0007365 -5.814e-06 0)
(0.0007396 -1.226e-05 0)
(0.0007448 -1.867e-05 0)
(0.0007519 -2.511e-05 0)
(0.000761 -3.162e-05 0)
(0.0007722 -3.824e-05 0)
(0.0007855 -4.503e-05 0)
(0.0008009 -5.2e-05 0)
(0.0008185 -5.918e-05 0)
(0.0008384 -6.659e-05 0)
(0.0008606 -7.423e-05 0)
(0.0008852 -8.21e-05 0)
(0.0009123 -9.017e-05 0)
(0.0009418 -9.841e-05 0)
(0.0009739 -0.0001068 0)
(0.001009 -0.0001152 0)
(0.001046 -0.0001236 0)
(0.001085 -0.0001318 0)
(0.001128 -0.0001398 0)
(0.001172 -0.0001474 0)
(0.001219 -0.0001544 0)
(0.001267 -0.0001607 0)
(0.001318 -0.0001659 0)
(0.00137 -0.0001699 0)
(0.001422 -0.0001725 0)
(0.001476 -0.0001735 0)
(0.001529 -0.0001725 0)
(0.001581 -0.0001694 0)
(0.001632 -0.000164 0)
(0.001682 -0.0001562 0)
(0.001728 -0.0001459 0)
(0.001771 -0.0001331 0)
(0.00181 -0.0001179 0)
(0.001843 -0.0001005 0)
(0.001871 -8.119e-05 0)
(0.001893 -6.027e-05 0)
(0.001908 -3.821e-05 0)
(0.001917 -1.551e-05 0)
(0.001918 7.302e-06 0)
(0.001913 2.973e-05 0)
(0.0019 5.131e-05 0)
(0.001882 7.163e-05 0)
(0.001857 9.035e-05 0)
(0.001827 0.0001072 0)
(0.001792 0.0001221 0)
(0.001753 0.0001348 0)
(0.00171 0.0001454 0)
(0.001664 0.0001538 0)
(0.001616 0.0001601 0)
(0.001566 0.0001644 0)
(0.001515 0.0001668 0)
(0.001464 0.0001674 0)
(0.001412 0.0001665 0)
(0.001361 0.0001642 0)
(0.001311 0.0001607 0)
(0.001262 0.0001562 0)
(0.001214 0.0001508 0)
(0.001168 0.0001448 0)
(0.001124 0.0001382 0)
(0.001082 0.0001313 0)
(0.001042 0.0001241 0)
(0.001004 0.0001169 0)
(0.0009685 0.0001096 0)
(0.0009351 0.0001024 0)
(0.0009038 9.531e-05 0)
(0.0008747 8.845e-05 0)
(0.0008477 8.185e-05 0)
(0.0008226 7.553e-05 0)
(0.0007995 6.952e-05 0)
(0.0007781 6.384e-05 0)
(0.0007585 5.849e-05 0)
(0.0007405 5.348e-05 0)
(0.000724 4.879e-05 0)
(0.0007089 4.444e-05 0)
(0.0006952 4.04e-05 0)
(0.0006827 3.667e-05 0)
(0.0006713 3.322e-05 0)
(0.0006609 3.006e-05 0)
(0.0006516 2.715e-05 0)
(0.0006431 2.449e-05 0)
(0.0006354 2.206e-05 0)
(0.0006285 1.985e-05 0)
(0.0006222 1.783e-05 0)
(0.0006166 1.6e-05 0)
(0.0006115 1.434e-05 0)
(0.000607 1.284e-05 0)
(0.0006029 1.149e-05 0)
(0.0005993 1.028e-05 0)
(0.000596 9.199e-06 0)
(0.000593 8.237e-06 0)
(0.0005904 7.39e-06 0)
(0.000588 6.652e-06 0)
(0.0005859 6.02e-06 0)
(0.000584 5.49e-06 0)
(0.0005822 5.061e-06 0)
(0.0005806 4.731e-06 0)
(0.0005791 4.5e-06 0)
(0.0005778 4.365e-06 0)
(0.0005765 4.319e-06 0)
(0.0005753 4.349e-06 0)
(0.0005742 4.423e-06 0)
(0.0005731 4.488e-06 0)
(0.00121 0.0001279 0)
(0.001237 0.0003006 0)
(0.001267 0.0003954 0)
(0.001285 0.0004317 0)
(0.001287 0.0004308 0)
(0.001274 0.0004087 0)
(0.00125 0.0003761 0)
(0.001219 0.0003396 0)
(0.001184 0.0003029 0)
(0.001146 0.0002681 0)
(0.001109 0.000236 0)
(0.001074 0.000207 0)
(0.00104 0.0001809 0)
(0.001009 0.0001576 0)
(0.0009805 0.0001367 0)
(0.000955 0.0001181 0)
(0.0009324 0.0001014 0)
(0.0009127 8.631e-05 0)
(0.0008956 7.262e-05 0)
(0.0008812 6.011e-05 0)
(0.0008692 4.858e-05 0)
(0.0008597 3.787e-05 0)
(0.0008525 2.783e-05 0)
(0.0008476 1.832e-05 0)
(0.0008449 9.21e-06 0)
(0.0008443 4.023e-07 0)
(0.0008459 -8.206e-06 0)
(0.0008496 -1.67e-05 0)
(0.0008554 -2.517e-05 0)
(0.0008633 -3.367e-05 0)
(0.0008734 -4.228e-05 0)
(0.0008857 -5.106e-05 0)
(0.0009003 -6.004e-05 0)
(0.0009171 -6.926e-05 0)
(0.0009363 -7.876e-05 0)
(0.000958 -8.856e-05 0)
(0.0009822 -9.865e-05 0)
(0.001009 -0.000109 0)
(0.001038 -0.0001197 0)
(0.00107 -0.0001305 0)
(0.001105 -0.0001416 0)
(0.001143 -0.0001526 0)
(0.001183 -0.0001637 0)
(0.001226 -0.0001745 0)
(0.001272 -0.000185 0)
(0.00132 -0.000195 0)
(0.001371 -0.0002042 0)
(0.001423 -0.0002123 0)
(0.001478 -0.0002192 0)
(0.001534 -0.0002245 0)
(0.001591 -0.0002279 0)
(0.001649 -0.0002291 0)
(0.001707 -0.0002278 0)
(0.001764 -0.0002237 0)
(0.00182 -0.0002166 0)
(0.001873 -0.0002063 0)
(0.001924 -0.0001928 0)
(0.00197 -0.0001759 0)
(0.002013 -0.0001559 0)
(0.002049 -0.0001329 0)
(0.00208 -0.0001074 0)
(0.002104 -7.976e-05 0)
(0.002121 -5.062e-05 0)
(0.00213 -2.064e-05 0)
(0.002131 9.495e-06 0)
(0.002125 3.911e-05 0)
(0.002112 6.759e-05 0)
(0.002091 9.44e-05 0)
(0.002065 0.0001191 0)
(0.002032 0.0001414 0)
(0.001994 0.000161 0)
(0.001951 0.0001778 0)
(0.001905 0.0001918 0)
(0.001855 0.0002029 0)
(0.001803 0.0002112 0)
(0.001749 0.000217 0)
(0.001693 0.0002202 0)
(0.001638 0.0002212 0)
(0.001582 0.0002201 0)
(0.001526 0.0002172 0)
(0.001472 0.0002126 0)
(0.001419 0.0002067 0)
(0.001367 0.0001997 0)
(0.001317 0.0001918 0)
(0.001269 0.0001832 0)
(0.001223 0.0001741 0)
(0.00118 0.0001647 0)
(0.001139 0.0001552 0)
(0.0011 0.0001456 0)
(0.001063 0.0001361 0)
(0.001029 0.0001268 0)
(0.0009976 0.0001178 0)
(0.0009681 0.0001091 0)
(0.0009407 0.0001007 0)
(0.0009154 9.279e-05 0)
(0.000892 8.527e-05 0)
(0.0008705 7.818e-05 0)
(0.0008508 7.154e-05 0)
(0.0008327 6.533e-05 0)
(0.0008161 5.954e-05 0)
(0.000801 5.418e-05 0)
(0.0007872 4.921e-05 0)
(0.0007747 4.463e-05 0)
(0.0007633 4.041e-05 0)
(0.0007529 3.653e-05 0)
(0.0007435 3.298e-05 0)
(0.000735 2.974e-05 0)
(0.0007273 2.678e-05 0)
(0.0007204 2.408e-05 0)
(0.0007142 2.163e-05 0)
(0.0007085 1.94e-05 0)
(0.0007035 1.739e-05 0)
(0.0006989 1.557e-05 0)
(0.0006949 1.394e-05 0)
(0.0006912 1.248e-05 0)
(0.0006879 1.118e-05 0)
(0.000685 1.003e-05 0)
(0.0006823 9.028e-06 0)
(0.0006799 8.16e-06 0)
(0.0006778 7.424e-06 0)
(0.0006758 6.816e-06 0)
(0.0006741 6.333e-06 0)
(0.0006725 5.971e-06 0)
(0.000671 5.726e-06 0)
(0.0006697 5.589e-06 0)
(0.0006684 5.542e-06 0)
(0.0006672 5.557e-06 0)
(0.0006661 5.589e-06 0)
(0.001208 0.0001097 0)
(0.00123 0.0002695 0)
(0.001259 0.0003688 0)
(0.001281 0.0004178 0)
(0.001292 0.0004312 0)
(0.001292 0.0004215 0)
(0.001281 0.0003982 0)
(0.001262 0.0003679 0)
(0.001237 0.0003347 0)
(0.00121 0.0003013 0)
(0.00118 0.0002692 0)
(0.001151 0.000239 0)
(0.001122 0.0002111 0)
(0.001095 0.0001856 0)
(0.00107 0.0001623 0)
(0.001047 0.0001411 0)
(0.001026 0.0001218 0)
(0.001008 0.0001041 0)
(0.0009918 8.788e-05 0)
(0.0009782 7.29e-05 0)
(0.0009669 5.898e-05 0)
(0.000958 4.595e-05 0)
(0.0009513 3.364e-05 0)
(0.0009468 2.191e-05 0)
(0.0009445 1.063e-05 0)
(0.0009444 -3.317e-07 0)
(0.0009464 -1.108e-05 0)
(0.0009506 -2.171e-05 0)
(0.000957 -3.233e-05 0)
(0.0009656 -4.302e-05 0)
(0.0009764 -5.385e-05 0)
(0.0009895 -6.489e-05 0)
(0.001005 -7.619e-05 0)
(0.001023 -8.78e-05 0)
(0.001043 -9.976e-05 0)
(0.001066 -0.0001121 0)
(0.001091 -0.0001248 0)
(0.00112 -0.0001378 0)
(0.001151 -0.0001512 0)
(0.001184 -0.0001649 0)
(0.001221 -0.0001787 0)
(0.001261 -0.0001926 0)
(0.001303 -0.0002065 0)
(0.001348 -0.0002201 0)
(0.001396 -0.0002333 0)
(0.001447 -0.0002458 0)
(0.0015 -0.0002573 0)
(0.001556 -0.0002675 0)
(0.001614 -0.0002762 0)
(0.001673 -0.0002828 0)
(0.001733 -0.0002871 0)
(0.001794 -0.0002886 0)
(0.001855 -0.000287 0)
(0.001916 -0.000282 0)
(0.001975 -0.0002731 0)
(0.002032 -0.0002602 0)
(0.002086 -0.0002432 0)
(0.002135 -0.0002221 0)
(0.00218 -0.0001969 0)
(0.002219 -0.0001679 0)
(0.002252 -0.0001357 0)
(0.002278 -0.0001008 0)
(0.002295 -6.402e-05 0)
(0.002305 -2.615e-05 0)
(0.002307 1.19e-05 0)
(0.0023 4.927e-05 0)
(0.002286 8.518e-05 0)
(0.002264 0.000119 0)
(0.002236 0.0001501 0)
(0.002201 0.0001781 0)
(0.00216 0.0002027 0)
(0.002115 0.0002239 0)
(0.002066 0.0002415 0)
(0.002013 0.0002555 0)
(0.001958 0.000266 0)
(0.001901 0.0002733 0)
(0.001843 0.0002774 0)
(0.001784 0.0002787 0)
(0.001725 0.0002774 0)
(0.001666 0.0002738 0)
(0.001609 0.0002681 0)
(0.001552 0.0002608 0)
(0.001498 0.000252 0)
(0.001445 0.0002422 0)
(0.001395 0.0002314 0)
(0.001346 0.00022 0)
(0.0013 0.0002082 0)
(0.001257 0.0001963 0)
(0.001216 0.0001842 0)
(0.001178 0.0001723 0)
(0.001142 0.0001606 0)
(0.001108 0.0001493 0)
(0.001077 0.0001383 0)
(0.001048 0.0001278 0)
(0.001021 0.0001178 0)
(0.0009963 0.0001083 0)
(0.0009735 9.94e-05 0)
(0.0009525 9.102e-05 0)
(0.0009333 8.317e-05 0)
(0.0009157 7.586e-05 0)
(0.0008996 6.908e-05 0)
(0.0008849 6.279e-05 0)
(0.0008715 5.699e-05 0)
(0.0008593 5.164e-05 0)
(0.0008483 4.672e-05 0)
(0.0008382 4.222e-05 0)
(0.0008291 3.809e-05 0)
(0.0008209 3.432e-05 0)
(0.0008135 3.089e-05 0)
(0.0008068 2.777e-05 0)
(0.0008007 2.493e-05 0)
(0.0007953 2.236e-05 0)
(0.0007904 2.004e-05 0)
(0.000786 1.796e-05 0)
(0.0007821 1.608e-05 0)
(0.0007785 1.441e-05 0)
(0.0007753 1.293e-05 0)
(0.0007725 1.163e-05 0)
(0.0007699 1.05e-05 0)
(0.0007676 9.531e-06 0)
(0.0007655 8.719e-06 0)
(0.0007637 8.059e-06 0)
(0.000762 7.543e-06 0)
(0.0007604 7.167e-06 0)
(0.000759 6.917e-06 0)
(0.0007577 6.779e-06 0)
(0.0007565 6.726e-06 0)
(0.0007553 6.722e-06 0)
(0.001206 9.563e-05 0)
(0.001225 0.0002424 0)
(0.001251 0.0003416 0)
(0.001275 0.0003983 0)
(0.001292 0.0004223 0)
(0.0013 0.0004231 0)
(0.001299 0.0004088 0)
(0.00129 0.0003852 0)
(0.001275 0.0003567 0)
(0.001256 0.000326 0)
(0.001235 0.0002952 0)
(0.001212 0.0002651 0)
(0.001189 0.0002365 0)
(0.001167 0.0002097 0)
(0.001145 0.0001847 0)
(0.001125 0.0001616 0)
(0.001107 0.0001402 0)
(0.001091 0.0001203 0)
(0.001077 0.0001019 0)
(0.001064 8.47e-05 0)
(0.001054 6.857e-05 0)
(0.001046 5.335e-05 0)
(0.00104 3.886e-05 0)
(0.001037 2.498e-05 0)
(0.001035 1.156e-05 0)
(0.001035 -1.54e-06 0)
(0.001038 -1.443e-05 0)
(0.001042 -2.722e-05 0)
(0.001049 -4.003e-05 0)
(0.001058 -5.294e-05 0)
(0.00107 -6.603e-05 0)
(0.001083 -7.94e-05 0)
(0.001099 -9.309e-05 0)
(0.001118 -0.0001072 0)
(0.001138 -0.0001217 0)
(0.001162 -0.0001366 0)
(0.001188 -0.000152 0)
(0.001217 -0.0001678 0)
(0.001249 -0.000184 0)
(0.001284 -0.0002005 0)
(0.001321 -0.0002173 0)
(0.001362 -0.0002341 0)
(0.001405 -0.0002509 0)
(0.001452 -0.0002674 0)
(0.001501 -0.0002834 0)
(0.001553 -0.0002986 0)
(0.001608 -0.0003126 0)
(0.001665 -0.000325 0)
(0.001725 -0.0003356 0)
(0.001786 -0.0003437 0)
(0.001848 -0.000349 0)
(0.001911 -0.0003509 0)
(0.001975 -0.0003491 0)
(0.002037 -0.0003431 0)
(0.002099 -0.0003325 0)
(0.002158 -0.000317 0)
(0.002214 -0.0002964 0)
(0.002266 -0.0002707 0)
(0.002313 -0.0002401 0)
(0.002354 -0.0002049 0)
(0.002388 -0.0001657 0)
(0.002415 -0.0001231 0)
(0.002434 -7.814e-05 0)
(0.002444 -3.191e-05 0)
(0.002445 1.453e-05 0)
(0.002438 6.01e-05 0)
(0.002423 0.0001038 0)
(0.0024 0.0001449 0)
(0.00237 0.0001827 0)
(0.002334 0.0002167 0)
(0.002292 0.0002466 0)
(0.002245 0.0002722 0)
(0.002194 0.0002935 0)
(0.002139 0.0003105 0)
(0.002082 0.0003233 0)
(0.002023 0.0003321 0)
(0.001963 0.0003372 0)
(0.001902 0.0003388 0)
(0.001841 0.0003372 0)
(0.001781 0.0003328 0)
(0.001721 0.000326 0)
(0.001663 0.0003172 0)
(0.001607 0.0003066 0)
(0.001553 0.0002946 0)
(0.001501 0.0002816 0)
(0.001451 0.0002678 0)
(0.001404 0.0002536 0)
(0.001359 0.0002391 0)
(0.001317 0.0002245 0)
(0.001277 0.0002101 0)
(0.00124 0.0001959 0)
(0.001206 0.0001821 0)
(0.001174 0.0001689 0)
(0.001144 0.0001561 0)
(0.001116 0.000144 0)
(0.001091 0.0001325 0)
(0.001067 0.0001216 0)
(0.001045 0.0001114 0)
(0.001026 0.0001019 0)
(0.001007 9.298e-05 0)
(0.0009907 8.471e-05 0)
(0.0009755 7.705e-05 0)
(0.0009616 6.998e-05 0)
(0.000949 6.345e-05 0)
(0.0009375 5.745e-05 0)
(0.0009271 5.195e-05 0)
(0.0009176 4.69e-05 0)
(0.0009091 4.229e-05 0)
(0.0009013 3.809e-05 0)
(0.0008943 3.426e-05 0)
(0.000888 3.079e-05 0)
(0.0008823 2.763e-05 0)
(0.0008772 2.478e-05 0)
(0.0008726 2.222e-05 0)
(0.0008685 1.991e-05 0)
(0.0008648 1.784e-05 0)
(0.0008614 1.601e-05 0)
(0.0008585 1.439e-05 0)
(0.0008558 1.298e-05 0)
(0.0008534 1.176e-05 0)
(0.0008512 1.072e-05 0)
(0.0008493 9.865e-06 0)
(0.0008475 9.178e-06 0)
(0.000846 8.653e-06 0)
(0.0008445 8.277e-06 0)
(0.0008432 8.037e-06 0)
(0.000842 7.909e-06 0)
(0.0008408 7.866e-06 0)
(0.001205 8.442e-05 0)
(0.001221 0.0002188 0)
(0.001245 0.0003153 0)
(0.001269 0.0003761 0)
(0.001289 0.0004075 0)
(0.001302 0.0004168 0)
(0.001308 0.0004103 0)
(0.001308 0.0003934 0)
(0.001301 0.0003699 0)
(0.00129 0.0003427 0)
(0.001276 0.000314 0)
(0.00126 0.0002851 0)
(0.001243 0.0002567 0)
(0.001225 0.0002294 0)
(0.001208 0.0002035 0)
(0.001192 0.000179 0)
(0.001177 0.0001561 0)
(0.001163 0.0001345 0)
(0.001151 0.0001142 0)
(0.00114 9.508e-05 0)
(0.001132 7.699e-05 0)
(0.001125 5.977e-05 0)
(0.00112 4.327e-05 0)
(0.001117 2.736e-05 0)
(0.001116 1.19e-05 0)
(0.001117 -3.261e-06 0)
(0.00112 -1.823e-05 0)
(0.001125 -3.314e-05 0)
(0.001132 -4.81e-05 0)
(0.001141 -6.321e-05 0)
(0.001153 -7.857e-05 0)
(0.001167 -9.425e-05 0)
(0.001183 -0.0001103 0)
(0.001201 -0.0001269 0)
(0.001222 -0.0001439 0)
(0.001246 -0.0001615 0)
(0.001272 -0.0001796 0)
(0.001301 -0.0001982 0)
(0.001333 -0.0002172 0)
(0.001368 -0.0002367 0)
(0.001406 -0.0002564 0)
(0.001446 -0.0002763 0)
(0.00149 -0.000296 0)
(0.001537 -0.0003155 0)
(0.001586 -0.0003343 0)
(0.001639 -0.0003523 0)
(0.001694 -0.0003688 0)
(0.001752 -0.0003836 0)
(0.001812 -0.0003961 0)
(0.001873 -0.0004059 0)
(0.001936 -0.0004123 0)
(0.002 -0.0004148 0)
(0.002065 -0.0004129 0)
(0.002129 -0.000406 0)
(0.002191 -0.0003937 0)
(0.002252 -0.0003755 0)
(0.002309 -0.0003514 0)
(0.002363 -0.0003212 0)
(0.002411 -0.0002851 0)
(0.002453 -0.0002434 0)
(0.002489 -0.0001968 0)
(0.002516 -0.0001462 0)
(0.002535 -9.273e-05 0)
(0.002546 -3.774e-05 0)
(0.002547 1.745e-05 0)
(0.00254 7.153e-05 0)
(0.002524 0.0001234 0)
(0.0025 0.0001719 0)
(0.002469 0.0002165 0)
(0.002432 0.0002566 0)
(0.002389 0.0002918 0)
(0.002341 0.000322 0)
(0.002289 0.000347 0)
(0.002233 0.000367 0)
(0.002175 0.000382 0)
(0.002115 0.0003924 0)
(0.002054 0.0003983 0)
(0.001993 0.0004001 0)
(0.001931 0.0003983 0)
(0.00187 0.0003931 0)
(0.00181 0.0003851 0)
(0.001751 0.0003746 0)
(0.001695 0.0003622 0)
(0.00164 0.0003481 0)
(0.001587 0.0003327 0)
(0.001537 0.0003165 0)