/*--------------------------------*- C++ -*----------------------------------*\
  =========                 |
  \\      /  F ield         | OpenFOAM: The Open Source CFD Toolbox
   \\    /   O peration     | Website:  https://openfoam.org
    \\  /    A nd           | Version:  7
     \\/     M anipulation  |
\*---------------------------------------------------------------------------*/
FoamFile
{
    version     2.0;
    format      ascii;
    class       volScalarField;
    location    "1319.99947341706002";
    object      Y.K;
}
// * * * * * * * * * * * * * * * * * * * * * * * * * * * * * * * * * * * * * //

dimensions      [0 0 0 0 0 0 0];

internalField   nonuniform List<scalar> 
4096
(
4.688e-70
-2.648e-71
6.049e-69
-3.602e-69
-4.794e-70
1.019e-69
-5.289e-70
-2.53e-70
2.576e-70
-3.017e-69
4.005e-68
-6.122e-67
9.341e-66
-1.268e-64
1.693e-63
-2.107e-62
2.501e-61
-2.874e-60
3.081e-59
-3.236e-58
3.256e-57
-3.135e-56
2.908e-55
-2.575e-54
2.162e-53
-1.719e-52
1.223e-51
-8.266e-51
5.275e-50
-2.936e-49
1.46e-48
-2.76e-48
-4.253e-47
7.94e-46
-8.913e-45
8.749e-44
-7.249e-43
5.426e-42
-3.669e-41
2.23e-40
-1.165e-39
4.851e-39
-1.166e-38
-3.435e-38
7.497e-37
-6.812e-36
4.076e-35
-2.036e-34
7.553e-34
-1.907e-33
1.947e-33
3.318e-32
-1.576e-31
6.778e-31
2.369e-30
5.552e-30
1.791e-28
4.146e-28
6.925e-27
2.645e-26
2.272e-25
1.232e-24
2.552e-24
2.113e-23
6.65e-23
1.964e-22
1.385e-21
6.24e-21
8.48e-20
1.217e-18
3.544e-18
7.632e-18
1.458e-17
2.613e-17
4.485e-17
7.455e-17
1.206e-16
1.905e-16
2.944e-16
4.459e-16
6.628e-16
9.68e-16
1.39e-15
1.966e-15
2.739e-15
3.763e-15
5.103e-15
6.835e-15
9.052e-15
1.186e-14
1.538e-14
1.976e-14
2.517e-14
3.179e-14
3.984e-14
4.959e-14
6.13e-14
7.53e-14
9.196e-14
1.117e-13
1.35e-13
1.623e-13
1.943e-13
2.316e-13
2.75e-13
3.253e-13
3.833e-13
4.503e-13
5.272e-13
6.155e-13
7.164e-13
8.316e-13
9.628e-13
1.112e-12
1.281e-12
1.473e-12
1.689e-12
1.934e-12
2.209e-12
2.518e-12
2.865e-12
3.252e-12
3.685e-12
4.163e-12
4.685e-12
5.238e-12
5.783e-12
6.21e-12
1.102e-68
-6.266e-68
7.195e-68
-1.024e-68
-4.999e-68
4.295e-68
-3.509e-69
-1.483e-68
1.233e-68
-1.764e-67
2.198e-66
-3.44e-65
5.128e-64
-7.18e-63
9.461e-62
-1.178e-60
1.391e-59
-1.567e-58
1.691e-57
-1.753e-56
1.749e-55
-1.679e-54
1.549e-53
-1.367e-52
1.144e-51
-9.057e-51
6.451e-50
-4.378e-49
2.806e-48
-1.587e-47
8.122e-47
-1.825e-46
-1.821e-45
3.87e-44
-4.45e-43
4.362e-42
-3.606e-41
2.737e-40
-1.86e-39
1.127e-38
-5.949e-38
2.546e-37
-6.945e-37
-8.27e-37
3.175e-35
-3.125e-34
1.902e-33
-9.754e-33
3.741e-32
-9.734e-32
1.582e-31
1.443e-30
-6.696e-30
3.268e-29
1.273e-28
4.995e-28
8.466e-27
3.061e-26
3.492e-25
1.522e-24
1.178e-23
5.655e-23
1.394e-22
9.489e-22
3.02e-21
8.592e-21
5.194e-20
1.818e-19
1.148e-18
3.237e-18
6.97e-18
1.338e-17
2.406e-17
4.136e-17
6.869e-17
1.109e-16
1.746e-16
2.688e-16
4.055e-16
6.003e-16
8.731e-16
1.249e-15
1.76e-15
2.444e-15
3.348e-15
4.53e-15
6.057e-15
8.009e-15
1.048e-14
1.359e-14
1.745e-14
2.222e-14
2.808e-14
3.522e-14
4.387e-14
5.428e-14
6.676e-14
8.163e-14
9.928e-14
1.201e-13
1.447e-13
1.735e-13
2.071e-13
2.463e-13
2.918e-13
3.444e-13
4.052e-13
4.752e-13
5.556e-13
6.478e-13
7.531e-13
8.733e-13
1.01e-12
1.165e-12
1.342e-12
1.541e-12
1.766e-12
2.02e-12
2.306e-12
2.628e-12
2.988e-12
3.392e-12
3.842e-12
4.342e-12
4.894e-12
5.494e-12
6.124e-12
6.719e-12
-2.546e-67
1.772e-66
-4.432e-66
5.885e-66
-4.029e-66
6.657e-67
9.747e-67
-5.395e-67
5.21e-67
-1.005e-65
1.175e-64
-1.836e-63
2.734e-62
-3.814e-61
4.999e-60
-6.182e-59
7.25e-58
-8.107e-57
8.683e-56
-8.94e-55
8.864e-54
-8.465e-53
7.77e-52
-6.829e-51
5.701e-50
-4.503e-49
3.22e-48
-2.204e-47
1.428e-46
-8.303e-46
4.437e-45
-1.28e-44
-5.369e-44
1.615e-42
-1.957e-41
1.979e-40
-1.65e-39
1.269e-38
-8.72e-38
5.353e-37
-2.896e-36
1.301e-35
-4.236e-35
2.631e-35
1.061e-33
-1.275e-32
8.089e-32
-4.379e-31
1.768e-30
-5.069e-30
1.252e-29
5.254e-29
-2.366e-28
1.576e-27
6.569e-27
4.1e-26
3.802e-25
2.202e-24
1.844e-23
8.659e-23
6.138e-22
2.63e-21
7.151e-21
4.051e-20
1.263e-19
3.381e-19
1.582e-18
4.26e-18
9.02e-18
1.727e-17
3.113e-17
5.364e-17
8.916e-17
1.436e-16
2.25e-16
3.436e-16
5.127e-16
7.489e-16
1.073e-15
1.51e-15
2.089e-15
2.849e-15
3.831e-15
5.086e-15
6.677e-15
8.672e-15
1.116e-14
1.423e-14
1.8e-14
2.261e-14
2.82e-14
3.495e-14
4.307e-14
5.279e-14
6.438e-14
7.814e-14
9.441e-14
1.136e-13
1.362e-13
1.626e-13
1.934e-13
2.293e-13
2.71e-13
3.193e-13
3.751e-13
4.394e-13
5.134e-13
5.981e-13
6.952e-13
8.061e-13
9.324e-13
1.076e-12
1.239e-12
1.424e-12
1.634e-12
1.87e-12
2.137e-12
2.437e-12
2.773e-12
3.151e-12
3.574e-12
4.047e-12
4.575e-12
5.162e-12
5.812e-12
6.53e-12
7.32e-12
8.202e-12
4.189e-66
-3.328e-65
1.167e-64
-2.493e-64
3.429e-64
-3.055e-64
1.614e-64
-3.401e-65
3.203e-65
-5.594e-64
5.956e-63
-9.255e-62
1.371e-60
-1.898e-59
2.464e-58
-3.013e-57
3.494e-56
-3.863e-55
4.094e-54
-4.174e-53
4.102e-52
-3.888e-51
3.547e-50
-3.104e-49
2.587e-48
-2.042e-47
1.471e-46
-1.02e-45
6.727e-45
-4.069e-44
2.275e-43
-8.423e-43
1.958e-43
5.204e-41
-7.176e-40
7.758e-39
-6.591e-38
5.206e-37
-3.655e-36
2.297e-35
-1.29e-34
6.205e-34
-2.34e-33
5.228e-33
1.743e-32
-4.205e-31
2.927e-30
-1.743e-29
7.624e-29
-2.418e-28
8.364e-28
1.281e-27
-4.553e-27
7.6e-26
4.265e-25
2.745e-24
2.22e-23
1.327e-22
9.719e-22
4.719e-21
2.913e-20
1.087e-19
3.101e-19
1.364e-18
3.921e-18
8.861e-18
1.813e-17
3.482e-17
6.358e-17
1.112e-16
1.87e-16
3.037e-16
4.774e-16
7.285e-16
1.081e-15
1.565e-15
2.212e-15
3.062e-15
4.157e-15
5.544e-15
7.278e-15
9.419e-15
1.204e-14
1.521e-14
1.902e-14
2.358e-14
2.9e-14
3.543e-14
4.302e-14
5.196e-14
6.246e-14
7.477e-14
8.918e-14
1.06e-13
1.256e-13
1.485e-13
1.75e-13
2.058e-13
2.414e-13
2.826e-13
3.301e-13
3.849e-13
4.478e-13
5.201e-13
6.029e-13
6.977e-13
8.058e-13
9.291e-13
1.069e-12
1.229e-12
1.41e-12
1.614e-12
1.846e-12
2.107e-12
2.401e-12
2.732e-12
3.104e-12
3.52e-12
3.987e-12
4.508e-12
5.09e-12
5.738e-12
6.459e-12
7.258e-12
8.144e-12
9.123e-12
1.021e-11
1.159e-11
-5.974e-65
5.158e-64
-2.239e-63
6.397e-63
-1.263e-62
1.773e-62
-1.754e-62
1.142e-62
-1.532e-63
-2.941e-62
2.871e-61
-4.415e-60
6.463e-59
-8.814e-58
1.125e-56
-1.352e-55
1.539e-54
-1.673e-53
1.745e-52
-1.754e-51
1.703e-50
-1.597e-49
1.446e-48
-1.259e-47
1.048e-46
-8.284e-46
6.035e-45
-4.258e-44
2.877e-43
-1.824e-42
1.045e-41
-4.907e-41
1.371e-40
8.933e-40
-1.972e-38
2.487e-37
-2.193e-36
1.822e-35
-1.325e-34
8.614e-34
-5.093e-33
2.652e-32
-1.173e-31
3.929e-31
-4.986e-31
-8.805e-30
8.166e-29
-5.793e-28
2.857e-27
-1.021e-26
5.148e-26
5.124e-27
1.115e-25
4.089e-24
2.529e-23
1.734e-22
1.278e-21
7.565e-21
4.743e-20
2.172e-19
1.062e-18
3.397e-18
8.626e-18
1.972e-17
4.2e-17
8.43e-17
1.605e-16
2.913e-16
5.055e-16
8.414e-16
1.347e-15
2.079e-15
3.103e-15
4.491e-15
6.317e-15
8.657e-15
1.159e-14
1.518e-14
1.95e-14
2.464e-14
3.065e-14
3.763e-14
4.566e-14
5.486e-14
6.536e-14
7.73e-14
9.089e-14
1.063e-13
1.239e-13
1.439e-13
1.666e-13
1.925e-13
2.22e-13
2.558e-13
2.943e-13
3.382e-13
3.884e-13
4.458e-13
5.112e-13
5.859e-13
6.711e-13
7.681e-13
8.786e-13
1.004e-12
1.147e-12
1.309e-12
1.493e-12
1.701e-12
1.936e-12
2.202e-12
2.501e-12
2.838e-12
3.218e-12
3.643e-12
4.121e-12
4.656e-12
5.254e-12
5.921e-12
6.665e-12
7.493e-12
8.413e-12
9.433e-12
1.056e-11
1.181e-11
1.319e-11
1.471e-11
1.639e-11
1.867e-11
7.855e-64
-7.161e-63
3.607e-62
-1.268e-61
3.229e-61
-6.113e-61
8.604e-61
-8.668e-61
5.605e-61
-1.412e-60
1.317e-59
-1.989e-58
2.848e-57
-3.787e-56
4.702e-55
-5.494e-54
6.09e-53
-6.455e-52
6.582e-51
-6.486e-50
6.192e-49
-5.731e-48
5.136e-47
-4.444e-46
3.692e-45
-2.93e-44
2.167e-43
-1.562e-42
1.087e-41
-7.205e-41
4.449e-40
-2.438e-39
1.166e-38
-1.996e-38
-2.409e-37
5.716e-36
-5.565e-35
5.123e-34
-3.956e-33
2.687e-32
-1.698e-31
9.675e-31
-4.949e-30
2.005e-29
-6.089e-29
2.863e-29
8.191e-28
-1.349e-26
8.713e-26
-3.377e-25
2.536e-24
-4.741e-25
2.062e-23
1.924e-22
1.412e-21
1.001e-20
6.893e-20
3.559e-19
1.828e-18
6.319e-18
1.752e-17
4.366e-17
1.009e-16
2.187e-16
4.464e-16
8.613e-16
1.575e-15
2.74e-15
4.546e-15
7.217e-15
1.099e-14
1.612e-14
2.282e-14
3.127e-14
4.161e-14
5.392e-14
6.819e-14
8.442e-14
1.025e-13
1.225e-13
1.443e-13
1.678e-13
1.933e-13
2.207e-13
2.503e-13
2.824e-13
3.172e-13
3.554e-13
3.972e-13
4.434e-13
4.947e-13
5.518e-13
6.157e-13
6.873e-13
7.677e-13
8.583e-13
9.605e-13
1.076e-12
1.206e-12
1.353e-12
1.52e-12
1.708e-12
1.92e-12
2.16e-12
2.431e-12
2.736e-12
3.079e-12
3.466e-12
3.9e-12
4.388e-12
4.936e-12
5.549e-12
6.235e-12
7.002e-12
7.858e-12
8.812e-12
9.874e-12
1.105e-11
1.237e-11
1.382e-11
1.542e-11
1.72e-11
1.915e-11
2.131e-11
2.367e-11
2.627e-11
2.912e-11
3.317e-11
-9.806e-63
9.27e-62
-5.204e-61
2.142e-60
-6.641e-60
1.583e-59
-2.903e-59
3.944e-59
-3.41e-59
-5.824e-59
6.038e-58
-8.415e-57
1.158e-55
-1.479e-54
1.762e-53
-1.976e-52
2.107e-51
-2.156e-50
2.131e-49
-2.044e-48
1.909e-47
-1.736e-46
1.537e-45
-1.32e-44
1.096e-43
-8.739e-43
6.587e-42
-4.867e-41
3.499e-40
-2.425e-39
1.601e-38
-9.873e-38
5.485e-37
-2.521e-36
6.499e-36
3.234e-35
-7.52e-34
9.96e-33
-8.859e-32
6.396e-31
-4.443e-30
2.829e-29
-1.664e-28
7.94e-28
-3.258e-27
1.112e-26
-2.075e-26
-3.883e-26
1.007e-24
-6.244e-24
9.411e-23
6.662e-23
1.483e-21
1.026e-20
8.047e-20
4.84e-19
2.729e-18
1.044e-17
3.232e-17
9e-17
2.316e-16
5.552e-16
1.244e-15
2.613e-15
5.158e-15
9.591e-15
1.685e-14
2.806e-14
4.445e-14
6.718e-14
9.721e-14
1.351e-13
1.811e-13
2.346e-13
2.949e-13
3.608e-13
4.307e-13
5.033e-13
5.772e-13
6.517e-13
7.26e-13
8.001e-13
8.74e-13
9.484e-13
1.024e-12
1.102e-12
1.183e-12
1.269e-12
1.361e-12
1.461e-12
1.571e-12
1.692e-12
1.827e-12
1.976e-12
2.144e-12
2.332e-12
2.544e-12
2.782e-12
3.049e-12
3.351e-12
3.69e-12
4.071e-12
4.5e-12
4.982e-12
5.523e-12
6.13e-12
6.811e-12
7.573e-12
8.427e-12
9.381e-12
1.045e-11
1.163e-11
1.296e-11
1.443e-11
1.607e-11
1.789e-11
1.99e-11
2.213e-11
2.46e-11
2.732e-11
3.032e-11
3.361e-11
3.724e-11
4.121e-11
4.555e-11
5.03e-11
5.547e-11
6.305e-11
1.177e-61
-1.14e-60
6.947e-60
-3.24e-59
1.179e-58
-3.399e-58
7.771e-58
-1.372e-57
1.721e-57
-3.264e-57
2.198e-56
-3.214e-55
4.237e-54
-5.098e-53
5.711e-52
-6.038e-51
6.1e-50
-5.95e-49
5.645e-48
-5.234e-47
4.754e-46
-4.234e-45
3.693e-44
-3.147e-43
2.611e-42
-2.097e-41
1.618e-40
-1.229e-39
9.132e-39
-6.608e-38
4.625e-37
-3.102e-36
1.969e-35
-1.158e-34
6.047e-34
-2.892e-33
5.259e-33
4.116e-32
-7.257e-31
7.959e-30
-7.465e-29
5.791e-28
-4.041e-27
2.203e-26
-1.045e-25
4.819e-25
-1.973e-24
8.376e-24
-1.236e-23
1.797e-23
1.766e-21
4.573e-21
8.327e-20
5.157e-19
3.22e-18
1.398e-17
4.947e-17
1.576e-16
4.626e-16
1.257e-15
3.171e-15
7.435e-15
1.624e-14
3.31e-14
6.31e-14
1.129e-13
1.9e-13
3.023e-13
4.561e-13
6.548e-13
8.983e-13
1.182e-12
1.497e-12
1.831e-12
2.171e-12
2.505e-12
2.82e-12
3.107e-12
3.364e-12
3.589e-12
3.782e-12
3.949e-12
4.095e-12
4.225e-12
4.346e-12
4.464e-12
4.585e-12
4.713e-12
4.855e-12
5.016e-12
5.2e-12
5.412e-12
5.656e-12
5.937e-12
6.259e-12
6.628e-12
7.05e-12
7.53e-12
8.075e-12
8.692e-12
9.389e-12
1.017e-11
1.106e-11
1.205e-11
1.317e-11
1.442e-11
1.581e-11
1.737e-11
1.912e-11
2.106e-11
2.322e-11
2.562e-11
2.828e-11
3.124e-11
3.451e-11
3.813e-11
4.212e-11
4.653e-11
5.138e-11
5.672e-11
6.258e-11
6.9e-11
7.603e-11
8.371e-11
9.208e-11
1.012e-10
1.11e-10
1.258e-10
-1.362e-60
1.341e-59
-8.705e-59
4.497e-58
-1.872e-57
6.36e-57
-1.762e-56
3.862e-56
-5.967e-56
-6.346e-56
9.541e-55
-1.142e-53
1.339e-52
-1.467e-51
1.502e-50
-1.461e-49
1.37e-48
-1.254e-47
1.129e-46
-1.004e-45
8.829e-45
-7.681e-44
6.6e-43
-5.587e-42
4.643e-41
-3.772e-40
2.992e-39
-2.342e-38
1.802e-37
-1.36e-36
1.002e-35
-7.183e-35
4.979e-34
-3.315e-33
2.111e-32
-1.247e-31
6.703e-31
-3.544e-30
1.31e-29
-1.913e-29
-2.264e-28
3.262e-27
-2.879e-26
1.971e-25
-1.283e-24
8.37e-24
-4.633e-23
3.005e-22
-7.405e-22
4.316e-21
3.98e-20
3.719e-19
2.815e-18
1.406e-17
5.796e-17
2.157e-16
7.377e-16
2.326e-15
6.762e-15
1.815e-14
4.5e-14
1.032e-13
2.193e-13
4.327e-13
7.947e-13
1.364e-12
2.195e-12
3.327e-12
4.769e-12
6.491e-12
8.425e-12
1.047e-11
1.252e-11
1.444e-11
1.613e-11
1.754e-11
1.859e-11
1.932e-11
1.975e-11
1.993e-11
1.987e-11
1.969e-11
1.941e-11
1.907e-11
1.871e-11
1.836e-11
1.806e-11
1.782e-11
1.765e-11
1.756e-11
1.76e-11
1.772e-11
1.795e-11
1.829e-11
1.876e-11
1.936e-11
2.01e-11
2.099e-11
2.204e-11
2.326e-11
2.466e-11
2.627e-11
2.809e-11
3.015e-11
3.248e-11
3.508e-11
3.801e-11
4.127e-11
4.491e-11
4.896e-11
5.346e-11
5.845e-11
6.397e-11
7.008e-11
7.682e-11
8.426e-11
9.244e-11
1.014e-10
1.113e-10
1.221e-10
1.34e-10
1.469e-10
1.61e-10
1.764e-10
1.93e-10
2.111e-10
2.305e-10
2.6e-10
1.51e-59
-1.503e-58
1.026e-57
-5.776e-57
2.702e-56
-1.062e-55
3.513e-55
-9.656e-55
2.132e-54
-5.562e-54
2.628e-53
-3.021e-52
3.284e-51
-3.154e-50
2.81e-49
-2.411e-48
2.034e-47
-1.709e-46
1.439e-45
-1.217e-44
1.035e-43
-8.829e-43
7.523e-42
-6.378e-41
5.357e-40
-4.448e-39
3.665e-38
-2.983e-37
2.394e-36
-1.893e-35
1.469e-34
-1.118e-33
8.32e-33
-6.028e-32
4.263e-31
-2.841e-30
1.836e-29
-1.111e-28
6.391e-28
-3.473e-27
1.759e-26
-8.106e-26
3.327e-25
-1.067e-24
1.433e-24
1.42e-23
-1.441e-22
2.301e-21
1.253e-21
1.645e-19
1.66e-18
9.868e-18
4.838e-17
2.141e-16
8.691e-16
3.241e-15
1.11e-14
3.489e-14
1.006e-13
2.665e-13
6.484e-13
1.451e-12
2.992e-12
5.698e-12
1.005e-11
1.65e-11
2.531e-11
3.646e-11
4.951e-11
6.376e-11
7.817e-11
9.166e-11
1.032e-10
1.121e-10
1.177e-10
1.208e-10
1.202e-10
1.181e-10
1.142e-10
1.092e-10
1.034e-10
9.727e-11
9.121e-11
8.542e-11
8.008e-11
7.526e-11
7.102e-11
6.737e-11
6.431e-11
6.181e-11
5.986e-11
5.842e-11
5.748e-11
5.692e-11
5.701e-11
5.741e-11
5.824e-11
5.952e-11
6.125e-11
6.343e-11
6.608e-11
6.923e-11
7.29e-11
7.713e-11
8.196e-11
8.742e-11
9.357e-11
1.005e-10
1.082e-10
1.168e-10
1.263e-10
1.369e-10
1.485e-10
1.614e-10
1.756e-10
1.913e-10
2.084e-10
2.272e-10
2.478e-10
2.703e-10
2.948e-10
3.215e-10
3.505e-10
3.82e-10
4.161e-10
4.531e-10
4.921e-10
5.526e-10
-1.586e-58
1.587e-57
-1.129e-56
6.831e-56
-3.541e-55
1.586e-54
-6.148e-54
2.016e-53
-5.138e-53
-4.99e-54
6.936e-52
-6.869e-51
5.264e-50
-3.658e-49
2.4e-48
-1.557e-47
1.02e-46
-6.956e-46
5.101e-45
-4.098e-44
3.567e-43
-3.261e-42
3.034e-41
-2.813e-40
2.571e-39
-2.306e-38
2.018e-37
-1.714e-36
1.426e-35
-1.166e-34
9.313e-34
-7.324e-33
5.623e-32
-4.215e-31
3.079e-30
-2.178e-29
1.509e-28
-1.007e-27
6.564e-27
-4.125e-26
2.496e-25
-1.449e-24
8.068e-24
-4.304e-23
2.19e-22
-1.01e-21
6.115e-21
2.702e-20
4.249e-19
4.205e-18
2.685e-17
1.445e-16
7.063e-16
3.163e-15
1.298e-14
4.87e-14
1.67e-13
5.229e-13
1.494e-12
3.896e-12
9.278e-12
2.02e-11
4.03e-11
7.384e-11
1.247e-10
1.951e-10
2.844e-10
3.882e-10
4.982e-10
6.062e-10
7.007e-10
7.737e-10
8.199e-10
8.347e-10
8.242e-10
7.965e-10
7.531e-10
6.991e-10
6.399e-10
5.795e-10
5.211e-10
4.667e-10
4.173e-10
3.736e-10
3.354e-10
3.026e-10
2.747e-10
2.512e-10
2.317e-10
2.155e-10
2.024e-10
1.918e-10
1.837e-10
1.775e-10
1.732e-10
1.705e-10
1.694e-10
1.699e-10
1.716e-10
1.746e-10
1.789e-10
1.846e-10
1.916e-10
2e-10
2.098e-10
2.211e-10
2.34e-10
2.486e-10
2.65e-10
2.834e-10
3.038e-10
3.264e-10
3.514e-10
3.79e-10
4.094e-10
4.427e-10
4.793e-10
5.192e-10
5.628e-10
6.104e-10
6.621e-10
7.183e-10
7.792e-10
8.45e-10
9.161e-10
9.93e-10
1.073e-09
1.2e-09
1.546e-57
-1.548e-56
1.137e-55
-7.321e-55
4.157e-54
-2.104e-53
9.578e-53
-3.952e-52
1.479e-51
-4.945e-51
1.377e-50
-7.295e-51
-2.27e-49
2.622e-48
-2.767e-47
2.578e-46
-2.257e-45
1.878e-44
-1.492e-43
1.133e-42
-8.251e-42
5.773e-41
-3.888e-40
2.525e-39
-1.585e-38
9.6e-38
-5.716e-37
3.614e-36
-2.342e-35
1.382e-34
-8.868e-34
4.326e-33
-1.926e-32
5.153e-32
2.511e-31
-6.246e-30
7.215e-29
-6.866e-28
5.73e-27
-4.409e-26
3.2e-25
-2.148e-24
1.405e-23
-8.524e-23
5.435e-22
-1.757e-21
9.723e-20
1.278e-18
9.802e-18
6.351e-17
3.75e-16
2.033e-15
1.011e-14
4.594e-14
1.904e-13
7.186e-13
2.464e-12
7.669e-12
2.165e-11
5.547e-11
1.289e-10
2.724e-10
5.24e-10
9.202e-10
1.482e-09
2.203e-09
3.04e-09
3.92e-09
4.743e-09
5.459e-09
5.921e-09
6.143e-09
6.071e-09
5.846e-09
5.47e-09
4.989e-09
4.457e-09
3.917e-09
3.4e-09
2.927e-09
2.506e-09
2.142e-09
1.833e-09
1.573e-09
1.357e-09
1.179e-09
1.032e-09
9.128e-10
8.154e-10
7.362e-10
6.722e-10
6.207e-10
5.797e-10
5.474e-10
5.225e-10
5.041e-10
4.913e-10
4.834e-10
4.8e-10
4.813e-10
4.859e-10
4.943e-10
5.062e-10
5.218e-10
5.41e-10
5.639e-10
5.906e-10
6.213e-10
6.561e-10
6.953e-10
7.391e-10
7.878e-10
8.418e-10
9.014e-10
9.67e-10
1.039e-09
1.118e-09
1.204e-09
1.297e-09
1.399e-09
1.51e-09
1.629e-09
1.759e-09
1.899e-09
2.049e-09
2.211e-09
2.38e-09
2.646e-09
-1.352e-56
1.35e-55
-1.016e-54
6.877e-54
-4.2e-53
2.335e-52
-1.194e-51
5.657e-51
-2.513e-50
1.064e-49
-4.472e-49
1.996e-48
-1.242e-47
7.454e-47
-6.375e-46
5.458e-45
-4.547e-44
3.631e-43
-2.774e-42
2.029e-41
-1.424e-40
9.599e-40
-6.224e-39
3.884e-38
-2.338e-37
1.363e-36
-8.03e-36
5.112e-35
-3.408e-34
2.263e-33
-1.56e-32
1.109e-31
-8.048e-31
5.887e-30
-4.293e-29
3.092e-28
-2.184e-27
1.505e-26
-1.007e-25
6.545e-25
-4.076e-24
2.532e-23
-1.427e-22
8.611e-22
-3.175e-21
1.421e-19
2.041e-18
1.723e-17
1.244e-16
8.203e-16
4.968e-15
2.756e-14
1.396e-13
6.434e-13
2.691e-12
1.019e-11
3.487e-11
1.077e-10
2.997e-10
7.52e-10
1.701e-09
3.474e-09
6.416e-09
1.075e-08
1.644e-08
2.313e-08
3.013e-08
3.662e-08
4.174e-08
4.558e-08
4.555e-08
4.441e-08
4.178e-08
3.799e-08
3.356e-08
2.895e-08
2.45e-08
2.044e-08
1.688e-08
1.386e-08
1.134e-08
9.286e-09
7.626e-09
6.298e-09
5.239e-09
4.398e-09
3.73e-09
3.2e-09
2.778e-09
2.443e-09
2.175e-09
1.962e-09
1.792e-09
1.658e-09
1.552e-09
1.471e-09
1.409e-09
1.364e-09
1.335e-09
1.316e-09
1.314e-09
1.32e-09
1.336e-09
1.362e-09
1.397e-09
1.441e-09
1.495e-09
1.559e-09
1.632e-09
1.715e-09
1.81e-09
1.915e-09
2.032e-09
2.161e-09
2.303e-09
2.459e-09
2.63e-09
2.816e-09
3.019e-09
3.239e-09
3.478e-09
3.735e-09
4.013e-09
4.313e-09
4.634e-09
4.98e-09
5.337e-09
5.905e-09
1.039e-55
-1.032e-54
7.91e-54
-5.58e-53
3.627e-52
-2.188e-51
1.232e-50
-6.513e-50
3.224e-49
-1.473e-48
5.849e-48
-1.708e-47
-6.941e-47
9.8e-46
-1.09e-44
1.007e-43
-8.341e-43
6.455e-42
-4.751e-41
3.354e-40
-2.279e-39
1.493e-38
-9.399e-38
5.657e-37
-3.21e-36
1.685e-35
-8.252e-35
3.978e-34
-1.681e-33
3.308e-33
2.805e-32
-5.007e-31
5.239e-30
-4.59e-29
3.651e-28
-2.72e-27
1.925e-26
-1.305e-25
8.5e-25
-5.32e-24
3.261e-23
-1.786e-22
1.117e-21
-4.387e-21
1.703e-19
2.691e-18
2.504e-17
2.013e-16
1.484e-15
1.006e-14
6.247e-14
3.54e-13
1.823e-12
8.504e-12
3.581e-11
1.358e-10
4.624e-10
1.413e-09
3.865e-09
9.468e-09
2.076e-08
4.078e-08
7.199e-08
1.146e-07
1.656e-07
2.196e-07
2.694e-07
3.08e-07
3.334e-07
3.309e-07
3.176e-07
2.928e-07
2.599e-07
2.233e-07
1.868e-07
1.529e-07
1.231e-07
9.792e-08
7.728e-08
6.074e-08
4.772e-08
3.759e-08
2.977e-08
2.376e-08
1.914e-08
1.559e-08
1.285e-08
1.074e-08
9.097e-09
7.815e-09
6.81e-09
6.019e-09
5.395e-09
4.902e-09
4.514e-09
4.209e-09
3.974e-09
3.795e-09
3.663e-09
3.572e-09
3.517e-09
3.494e-09
3.504e-09
3.536e-09
3.593e-09
3.675e-09
3.78e-09
3.909e-09
4.061e-09
4.237e-09
4.438e-09
4.665e-09
4.918e-09
5.198e-09
5.508e-09
5.848e-09
6.22e-09
6.625e-09
7.066e-09
7.545e-09
8.062e-09
8.62e-09
9.221e-09
9.867e-09
1.056e-08
1.13e-08
1.206e-08
1.328e-08
-6.7e-55
6.565e-54
-5.09e-53
3.717e-52
-2.555e-51
1.665e-50
-1.039e-49
6.287e-49
-3.762e-48
2.271e-47
-1.424e-46
9.3e-46
-5.95e-45
4.171e-44
-2.966e-43
2.113e-42
-1.494e-41
1.043e-40
-7.173e-40
4.854e-39
-3.232e-38
2.12e-37
-1.37e-36
8.754e-36
-5.541e-35
3.479e-34
-2.195e-33
1.396e-32
-8.893e-32
5.628e-31
-3.554e-30
2.236e-29
-1.399e-28
8.69e-28
-5.345e-27
3.248e-26
-1.946e-25
1.146e-24
-6.625e-24
3.765e-23
-2.03e-22
1.276e-21
-4.632e-21
1.651e-19
2.873e-18
2.947e-17
2.637e-16
2.172e-15
1.649e-14
1.148e-13
7.297e-13
4.214e-12
2.201e-11
1.036e-10
4.378e-10
1.657e-09
5.597e-09
1.685e-08
4.513e-08
1.074e-07
2.27e-07
4.268e-07
7.161e-07
1.077e-06
1.465e-06
1.827e-06
2.108e-06
2.283e-06
2.256e-06
2.145e-06
1.949e-06
1.699e-06
1.428e-06
1.165e-06
9.276e-07
7.244e-07
5.577e-07
4.251e-07
3.223e-07
2.439e-07
1.849e-07
1.409e-07
1.081e-07
8.377e-08
6.566e-08
5.213e-08
4.197e-08
3.429e-08
2.845e-08
2.397e-08
2.051e-08
1.782e-08
1.572e-08
1.407e-08
1.278e-08
1.176e-08
1.097e-08
1.035e-08
9.883e-09
9.539e-09
9.299e-09
9.151e-09
9.079e-09
9.1e-09
9.173e-09
9.308e-09
9.504e-09
9.757e-09
1.007e-08
1.044e-08
1.086e-08
1.135e-08
1.19e-08
1.251e-08
1.318e-08
1.392e-08
1.473e-08
1.562e-08
1.658e-08
1.762e-08
1.875e-08
1.996e-08
2.126e-08
2.266e-08
2.415e-08
2.576e-08
2.739e-08
3.002e-08
3.069e-54
-3.032e-53
2.377e-52
-1.77e-51
1.247e-50
-8.283e-50
5.138e-49
-2.928e-48
1.481e-47
-6.178e-47
2.683e-47
1.361e-45
-1.904e-44
1.935e-43
-1.675e-42
1.32e-41
-9.786e-41
6.936e-40
-4.743e-39
3.144e-38
-2.025e-37
1.268e-36
-7.697e-36
4.509e-35
-2.518e-34
1.345e-33
-6.868e-33
3.263e-32
-1.382e-31
4.502e-31
-2.515e-31
-1.361e-29
1.724e-28
-1.561e-27
1.228e-26
-8.895e-26
6.078e-25
-3.963e-24
2.486e-23
-1.49e-22
9.215e-22
-2.806e-21
1.261e-19
2.443e-18
2.769e-17
2.754e-16
2.53e-15
2.148e-14
1.676e-13
1.195e-12
7.747e-12
4.542e-11
2.397e-10
1.134e-09
4.786e-09
1.798e-08
5.992e-08
1.767e-07
4.604e-07
1.057e-06
2.14e-06
3.825e-06
6.066e-06
8.588e-06
1.096e-05
1.286e-05
1.407e-05
1.39e-05
1.317e-05
1.188e-05
1.024e-05
8.489e-06
6.805e-06
5.307e-06
4.05e-06
3.038e-06
2.252e-06
1.656e-06
1.214e-06
8.901e-07
6.551e-07
4.854e-07
3.63e-07
2.746e-07
2.104e-07
1.636e-07
1.292e-07
1.037e-07
8.46e-08
7.017e-08
5.918e-08
5.074e-08
4.42e-08
3.91e-08
3.511e-08
3.197e-08
2.952e-08
2.76e-08
2.612e-08
2.5e-08
2.417e-08
2.36e-08
2.326e-08
2.31e-08
2.316e-08
2.335e-08
2.369e-08
2.417e-08
2.48e-08
2.556e-08
2.646e-08
2.75e-08
2.867e-08
2.999e-08
3.146e-08
3.307e-08
3.484e-08
3.677e-08
3.887e-08
4.114e-08
4.359e-08
4.623e-08
4.906e-08
5.209e-08
5.533e-08
5.879e-08
6.231e-08
6.798e-08
-1.539e-53
1.326e-52
-9.941e-52
7.793e-51
-6.253e-50
5.037e-49
-4.01e-48
3.124e-47
-2.371e-46
1.752e-45
-1.262e-44
8.893e-44
-6.144e-43
4.176e-42
-2.798e-41
1.853e-40
-1.215e-39
7.897e-39
-5.098e-38
3.271e-37
-2.087e-36
1.325e-35
-8.368e-35
5.259e-34
-3.288e-33
2.044e-32
-1.262e-31
7.743e-31
-4.713e-30
2.846e-29
-1.704e-28
1.011e-27
-5.932e-27
3.444e-26
-1.975e-25
1.118e-24
-6.243e-24
3.434e-23
-1.848e-22
1.009e-21
-4.54e-21
5.265e-20
1.578e-18
2.047e-17
2.266e-16
2.315e-15
2.191e-14
1.911e-13
1.527e-12
1.111e-11
7.312e-11
4.331e-10
2.295e-09
1.084e-08
4.538e-08
1.679e-07
5.472e-07
1.567e-06
3.932e-06
8.627e-06
1.657e-05
2.797e-05
4.174e-05
5.542e-05
6.637e-05
7.452e-05
7.398e-05
7.042e-05
6.362e-05
5.472e-05
4.511e-05
3.587e-05
2.767e-05
2.082e-05
1.536e-05
1.117e-05
8.036e-06
5.747e-06
4.103e-06
2.935e-06
2.111e-06
1.531e-06
1.122e-06
8.332e-07
6.277e-07
4.804e-07
3.739e-07
2.96e-07
2.385e-07
1.956e-07
1.632e-07
1.385e-07
1.195e-07
1.048e-07
9.332e-08
8.433e-08
7.727e-08
7.174e-08
6.743e-08
6.411e-08
6.161e-08
5.98e-08
5.859e-08
5.784e-08
5.764e-08
5.785e-08
5.839e-08
5.928e-08
6.052e-08
6.208e-08
6.397e-08
6.617e-08
6.87e-08
7.154e-08
7.471e-08
7.822e-08
8.208e-08
8.628e-08
9.085e-08
9.58e-08
1.011e-07
1.069e-07
1.13e-07
1.196e-07
1.266e-07
1.341e-07
1.417e-07
1.539e-07
-1.087e-52
1.057e-51
-8.368e-51
6.417e-50
-4.745e-49
3.389e-48
-2.345e-47
1.579e-46
-1.038e-45
6.704e-45
-4.267e-44
2.689e-43
-1.684e-42
1.051e-41
-6.549e-41
4.081e-40
-2.546e-39
1.591e-38
-9.963e-38
6.255e-37
-3.939e-36
2.49e-35
-1.58e-34
1.009e-33
-6.464e-33
4.121e-32
-2.615e-31
1.651e-30
-1.037e-29
6.474e-29
-4.015e-28
2.473e-27
-1.511e-26
9.156e-26
-5.498e-25
3.268e-24
-1.922e-23
1.119e-22
-6.335e-22
3.9e-21
-1.633e-20
5.305e-19
1.143e-17
1.457e-16
1.651e-15
1.734e-14
1.685e-13
1.504e-12
1.225e-11
9.044e-11
6.01e-10
3.571e-09
1.886e-08
8.809e-08
3.62e-07
1.304e-06
4.102e-06
1.124e-05
2.68e-05
5.542e-05
0.0001
0.0001584
0.0002217
0.0002756
0.0003169
0.0003237
0.0003119
0.0002848
0.000247
0.0002049
0.0001635
0.0001263
9.49e-05
6.97e-05
5.027e-05
3.576e-05
2.521e-05
1.768e-05
1.24e-05
8.716e-06
6.168e-06
4.407e-06
3.186e-06
2.336e-06
1.739e-06
1.317e-06
1.015e-06
7.965e-07
6.365e-07
5.179e-07
4.291e-07
3.618e-07
3.103e-07
2.705e-07
2.396e-07
2.154e-07
1.964e-07
1.814e-07
1.697e-07
1.606e-07
1.537e-07
1.485e-07
1.449e-07
1.426e-07
1.411e-07
1.413e-07
1.42e-07
1.436e-07
1.46e-07
1.492e-07
1.532e-07
1.578e-07
1.632e-07
1.694e-07
1.762e-07
1.838e-07
1.922e-07
2.014e-07
2.113e-07
2.221e-07
2.337e-07
2.461e-07
2.595e-07
2.737e-07
2.889e-07
3.051e-07
3.214e-07
3.477e-07
2.64e-52
-2.578e-51
2.048e-50
-1.577e-49
1.171e-48
-8.389e-48
5.811e-47
-3.896e-46
2.534e-45
-1.603e-44
9.891e-44
-5.979e-43
3.555e-42
-2.09e-41
1.222e-40
-7.152e-40
4.221e-39
-2.528e-38
1.545e-37
-9.665e-37
6.195e-36
-4.059e-35
2.709e-34
-1.835e-33
1.246e-32
-8.343e-32
5.514e-31
-3.602e-30
2.327e-29
-1.489e-28
9.433e-28
-5.923e-27
3.686e-26
-2.274e-25
1.391e-24
-8.434e-24
5.072e-23
-3.006e-22
1.857e-21
-6.867e-21
2.272e-19
5.32e-18
7.365e-17
9.157e-16
1.061e-14
1.143e-13
1.135e-12
1.032e-11
8.525e-11
6.348e-10
4.228e-09
2.499e-08
1.302e-07
5.945e-07
2.365e-06
8.159e-06
2.435e-05
6.275e-05
0.0001394
0.0002679
0.0004501
0.0006652
0.0008695
0.001027
0.001106
0.001081
0.001007
0.0008916
0.0007544
0.0006135
0.0004819
0.0003673
0.0002727
0.000198
0.0001413
9.948e-05
6.94e-05
4.819e-05
3.344e-05
2.329e-05
1.634e-05
1.157e-05
8.304e-06
6.046e-06
4.474e-06
3.369e-06
2.584e-06
2.018e-06
1.606e-06
1.302e-06
1.075e-06
9.04e-07
7.73e-07
6.721e-07
5.936e-07
5.322e-07
4.839e-07
4.459e-07
4.161e-07
3.928e-07
3.748e-07
3.612e-07
3.513e-07
3.447e-07
3.405e-07
3.393e-07
3.404e-07
3.432e-07
3.479e-07
3.544e-07
3.626e-07
3.725e-07
3.841e-07
3.973e-07
4.122e-07
4.287e-07
4.468e-07
4.667e-07
4.883e-07
5.116e-07
5.368e-07
5.638e-07
5.927e-07
6.234e-07
6.561e-07
6.91e-07
7.26e-07
7.827e-07
-8.597e-52
7.875e-51
-6.045e-50
4.646e-49
-3.544e-48
2.674e-47
-1.989e-46
1.456e-45
-1.047e-44
7.389e-44
-5.12e-43
3.485e-42
-2.332e-41
1.537e-40
-9.982e-40
6.404e-39
-4.063e-38
2.552e-37
-1.59e-36
9.827e-36
-6.035e-35
3.686e-34
-2.239e-33
1.354e-32
-8.141e-32
4.868e-31
-2.896e-30
1.715e-29
-1.011e-28
5.937e-28
-3.473e-27
2.025e-26
-1.177e-25
6.818e-25
-3.939e-24
2.271e-23
-1.303e-22
7.676e-22
-3.437e-21
5.797e-20
1.884e-18
2.905e-17
3.954e-16
5.029e-15
5.966e-14
6.559e-13
6.63e-12
6.111e-11
5.09e-10
3.798e-09
2.515e-08
1.465e-07
7.446e-07
3.277e-06
1.241e-05
4.025e-05
0.0001116
0.0002649
0.0005388
0.0009535
0.001478
0.002038
0.002481
0.002797
0.00279
0.00268
0.002452
0.002146
0.001806
0.001467
0.001155
0.0008824
0.0006571
0.0004784
0.0003419
0.0002408
0.0001679
0.0001164
8.067e-05
5.608e-05
3.925e-05
2.776e-05
1.989e-05
1.446e-05
1.069e-05
8.047e-06
6.169e-06
4.818e-06
3.835e-06
3.11e-06
2.569e-06
2.16e-06
1.847e-06
1.606e-06
1.419e-06
1.272e-06
1.156e-06
1.065e-06
9.927e-07
9.363e-07
8.925e-07
8.591e-07
8.345e-07
8.173e-07
8.069e-07
8.013e-07
8.028e-07
8.08e-07
8.173e-07
8.307e-07
8.481e-07
8.692e-07
8.94e-07
9.225e-07
9.546e-07
9.903e-07
1.03e-06
1.073e-06
1.119e-06
1.17e-06
1.224e-06
1.283e-06
1.345e-06
1.411e-06
1.481e-06
1.556e-06
1.631e-06
1.752e-06
-1.92e-51
1.881e-50
-1.512e-49
1.187e-48
-9.055e-48
6.71e-47
-4.834e-46
3.389e-45
-2.317e-44
1.548e-43
-1.013e-42
6.517e-42
-4.13e-41
2.588e-40
-1.607e-39
9.925e-39
-6.11e-38
3.758e-37
-2.314e-36
1.429e-35
-8.854e-35
5.512e-34
-3.448e-33
2.17e-32
-1.365e-31
8.546e-31
-5.322e-30
3.299e-29
-2.036e-28
1.253e-27
-7.685e-27
4.703e-26
-2.873e-25
1.753e-24
-1.069e-23
6.52e-23
-3.956e-22
2.526e-21
-9.664e-21
3.352e-19
8.705e-18
1.336e-16
1.855e-15
2.41e-14
2.915e-13
3.259e-12
3.339e-11
3.105e-10
2.594e-09
1.927e-08
1.259e-07
7.155e-07
3.503e-06
1.464e-05
5.186e-05
0.0001551
0.0003919
0.0008403
0.001545
0.002527
0.003568
0.00468
0.005306
0.005432
0.005316
0.005047
0.004624
0.004073
0.003461
0.002854
0.002283
0.001774
0.001342
0.0009907
0.0007167
0.00051
0.0003587
0.0002505
0.0001746
0.000122
8.58e-05
6.095e-05
4.385e-05
3.202e-05
2.378e-05
1.797e-05
1.384e-05
1.085e-05
8.673e-06
7.061e-06
5.853e-06
4.938e-06
4.237e-06
3.695e-06
3.271e-06
2.939e-06
2.677e-06
2.469e-06
2.305e-06
2.176e-06
2.075e-06
1.998e-06
1.941e-06
1.901e-06
1.876e-06
1.86e-06
1.863e-06
1.873e-06
1.892e-06
1.921e-06
1.958e-06
2.003e-06
2.057e-06
2.118e-06
2.188e-06
2.265e-06
2.35e-06
2.443e-06
2.544e-06
2.653e-06
2.77e-06
2.895e-06
3.029e-06
3.171e-06
3.321e-06
3.48e-06
3.638e-06
3.895e-06
4.311e-51
-4e-50
3.098e-49
-2.391e-48
1.824e-47
-1.372e-46
1.015e-45
-7.387e-45
5.277e-44
-3.701e-43
2.549e-42
-1.725e-41
1.147e-40
-7.514e-40
4.85e-39
-3.089e-38
1.944e-37
-1.21e-36
7.462e-36
-4.564e-35
2.772e-34
-1.673e-33
1.004e-32
-6.005e-32
3.57e-31
-2.113e-30
1.246e-29
-7.332e-29
4.307e-28
-2.528e-27
1.484e-26
-8.719e-26
5.133e-25
-3.03e-24
1.796e-23
-1.066e-22
6.565e-22
-2.99e-21
6.309e-20
2.135e-18
3.578e-17
5.378e-16
7.594e-15
1.004e-13
1.235e-12
1.399e-11
1.447e-10
1.352e-09
1.127e-08
8.286e-08
5.302e-07
2.914e-06
1.358e-05
5.315e-05
0.0001732
0.0004693
0.001063
0.002033
0.003382
0.005223
0.006613
0.008821
0.01031
0.01038
0.01033
0.009935
0.008071
0.006544
0.005559
0.004709
0.003858
0.003067
0.002372
0.001789
0.001319
0.0009554
0.0006825
0.0004833
0.0003411
0.0002411
0.0001714
0.000123
8.933e-05
6.586e-05
4.935e-05
3.763e-05
2.922e-05
2.31e-05
1.861e-05
1.526e-05
1.274e-05
1.082e-05
9.338e-06
8.188e-06
7.286e-06
6.575e-06
6.012e-06
5.565e-06
5.21e-06
4.931e-06
4.713e-06
4.546e-06
4.421e-06
4.333e-06
4.279e-06
4.246e-06
4.252e-06
4.274e-06
4.316e-06
4.378e-06
4.458e-06
4.558e-06
4.674e-06
4.808e-06
4.958e-06
5.125e-06
5.309e-06
5.51e-06
5.726e-06
5.96e-06
6.21e-06
6.477e-06
6.761e-06
7.061e-06
7.377e-06
7.712e-06
8.043e-06
8.578e-06
6.396e-51
-6.252e-50
5.044e-49
-3.998e-48
3.094e-47
-2.336e-46
1.72e-45
-1.236e-44
8.673e-44
-5.956e-43
4.008e-42
-2.648e-41
1.722e-40
-1.104e-39
7e-39
-4.394e-38
2.738e-37
-1.697e-36
1.047e-35
-6.445e-35
3.963e-34
-2.437e-33
1.5e-32
-9.259e-32
5.709e-31
-3.507e-30
2.147e-29
-1.312e-28
8.007e-28
-4.888e-27
2.988e-26
-1.831e-25
1.126e-24
-6.957e-24
4.328e-23
-2.697e-22
1.786e-21
-6.885e-21
2.614e-19
7.389e-18
1.236e-16
1.887e-15
2.71e-14
3.639e-13
4.534e-12
5.19e-11
5.403e-10
5.052e-09
4.188e-08
3.033e-07
1.889e-06
9.963e-06
4.379e-05
0.0001584
0.0004685
0.001137
0.002288
0.003896
0.006022
0.009112
0.01036
0.0101
0.01142
0.012
0.01095
0.01068
0.01005
0.01041
0.009681
0.007249
0.005856
0.004738
0.003743
0.002884
0.002173
0.001607
0.00117
0.0008441
0.0006061
0.0004355
0.0003144
0.0002291
0.0001689
0.0001263
9.591e-05
7.41e-05
5.826e-05
4.663e-05
3.798e-05
3.149e-05
2.655e-05
2.276e-05
1.981e-05
1.751e-05
1.569e-05
1.425e-05
1.311e-05
1.22e-05
1.148e-05
1.09e-05
1.046e-05
1.012e-05