/*--------------------------------*- C++ -*----------------------------------*\
  =========                 |
  \\      /  F ield         | OpenFOAM: The Open Source CFD Toolbox
   \\    /   O peration     | Website:  https://openfoam.org
    \\  /    A nd           | Version:  7
     \\/     M anipulation  |
\*---------------------------------------------------------------------------*/
FoamFile
{
    version     2.0;
    format      ascii;
    class       volScalarField;
    location    "1259.99947341575034";
    object      p;
}
// * * * * * * * * * * * * * * * * * * * * * * * * * * * * * * * * * * * * * //

dimensions      [0 2 -2 0 0 0 0];

internalField   nonuniform List<scalar> 
4096
(
0.000611
0.0004401
0.0003558
0.0003136
0.0002903
0.0002764
0.0002675
0.0002614
0.000257
0.0002537
0.0002512
0.0002492
0.0002475
0.0002462
0.000245
0.000244
0.0002431
0.0002423
0.0002416
0.0002409
0.0002403
0.0002398
0.0002392
0.0002387
0.0002382
0.0002377
0.0002372
0.0002367
0.0002362
0.0002358
0.0002353
0.0002347
0.0002342
0.0002336
0.000233
0.0002324
0.0002317
0.000231
0.0002301
0.0002292
0.0002282
0.000227
0.0002257
0.0002243
0.0002226
0.0002208
0.0002187
0.0002163
0.0002137
0.0002107
0.0002073
0.0002036
0.0001996
0.0001951
0.0001902
0.0001848
0.0001791
0.000173
0.0001665
0.0001597
0.0001526
0.0001453
0.0001379
0.0001303
0.0001227
0.0001152
0.0001077
0.0001005
9.343e-05
8.666e-05
8.02e-05
7.408e-05
6.832e-05
6.293e-05
5.793e-05
5.33e-05
4.904e-05
4.516e-05
4.162e-05
3.842e-05
3.553e-05
3.294e-05
3.062e-05
2.854e-05
2.669e-05
2.505e-05
2.358e-05
2.227e-05
2.11e-05
2.005e-05
1.91e-05
1.825e-05
1.747e-05
1.675e-05
1.609e-05
1.547e-05
1.489e-05
1.434e-05
1.381e-05
1.33e-05
1.281e-05
1.233e-05
1.185e-05
1.138e-05
1.092e-05
1.046e-05
9.995e-06
9.534e-06
9.072e-06
8.609e-06
8.144e-06
7.677e-06
7.207e-06
6.735e-06
6.259e-06
5.78e-06
5.298e-06
4.813e-06
4.324e-06
3.832e-06
3.337e-06
2.84e-06
2.342e-06
1.844e-06
1.351e-06
8.686e-07
4.127e-07
6.766e-08
0.0004665
0.0004027
0.0003529
0.0003209
0.0003
0.0002857
0.0002756
0.0002683
0.0002628
0.0002586
0.0002553
0.0002526
0.0002504
0.0002486
0.0002471
0.0002457
0.0002446
0.0002436
0.0002426
0.0002418
0.000241
0.0002403
0.0002396
0.0002389
0.0002383
0.0002377
0.0002371
0.0002365
0.0002359
0.0002353
0.0002347
0.000234
0.0002334
0.0002327
0.000232
0.0002312
0.0002304
0.0002295
0.0002285
0.0002274
0.0002263
0.000225
0.0002235
0.000222
0.0002202
0.0002182
0.000216
0.0002135
0.0002108
0.0002077
0.0002044
0.0002007
0.0001966
0.0001922
0.0001874
0.0001822
0.0001767
0.0001708
0.0001646
0.0001581
0.0001513
0.0001443
0.0001372
0.0001301
0.0001228
0.0001157
0.0001086
0.0001017
9.495e-05
8.847e-05
8.227e-05
7.637e-05
7.08e-05
6.556e-05
6.067e-05
5.612e-05
5.191e-05
4.804e-05
4.45e-05
4.126e-05
3.832e-05
3.566e-05
3.325e-05
3.107e-05
2.911e-05
2.735e-05
2.576e-05
2.432e-05
2.303e-05
2.186e-05
2.079e-05
1.981e-05
1.892e-05
1.809e-05
1.732e-05
1.661e-05
1.593e-05
1.529e-05
1.468e-05
1.409e-05
1.353e-05
1.298e-05
1.244e-05
1.191e-05
1.14e-05
1.089e-05
1.038e-05
9.882e-06
9.384e-06
8.889e-06
8.394e-06
7.901e-06
7.407e-06
6.913e-06
6.419e-06
5.923e-06
5.426e-06
4.928e-06
4.429e-06
3.928e-06
3.426e-06
2.924e-06
2.422e-06
1.923e-06
1.428e-06
9.422e-07
4.738e-07
9.296e-08
0.000383
0.0003613
0.0003359
0.0003151
0.0002996
0.0002879
0.0002789
0.0002719
0.0002663
0.0002618
0.0002582
0.0002552
0.0002527
0.0002506
0.0002488
0.0002473
0.0002459
0.0002447
0.0002436
0.0002426
0.0002416
0.0002408
0.0002399
0.0002392
0.0002384
0.0002377
0.000237
0.0002363
0.0002355
0.0002348
0.0002341
0.0002334
0.0002326
0.0002318
0.0002309
0.00023
0.0002291
0.0002281
0.000227
0.0002258
0.0002245
0.0002231
0.0002215
0.0002198
0.0002179
0.0002158
0.0002135
0.000211
0.0002082
0.0002051
0.0002017
0.000198
0.000194
0.0001896
0.0001849
0.0001799
0.0001745
0.0001688
0.0001629
0.0001566
0.0001501
0.0001435
0.0001367
0.0001298
0.0001229
0.0001161
0.0001093
0.0001027
9.625e-05
9.003e-05
8.406e-05
7.837e-05
7.297e-05
6.787e-05
6.309e-05
5.863e-05
5.448e-05
5.064e-05
4.71e-05
4.385e-05
4.087e-05
3.815e-05
3.567e-05
3.341e-05
3.136e-05
2.95e-05
2.781e-05
2.627e-05
2.486e-05
2.358e-05
2.24e-05
2.132e-05
2.032e-05
1.939e-05
1.852e-05
1.771e-05
1.695e-05
1.622e-05
1.553e-05
1.487e-05
1.424e-05
1.362e-05
1.303e-05
1.245e-05
1.188e-05
1.132e-05
1.077e-05
1.024e-05
9.702e-06
9.174e-06
8.65e-06
8.13e-06
7.612e-06
7.097e-06
6.583e-06
6.071e-06
5.559e-06
5.048e-06
4.537e-06
4.027e-06
3.517e-06
3.007e-06
2.499e-06
1.993e-06
1.491e-06
9.94e-07
5.059e-07
9.698e-08
0.0003382
0.0003312
0.0003179
0.0003047
0.0002938
0.000285
0.0002779
0.000272
0.0002671
0.000263
0.0002596
0.0002566
0.0002541
0.0002519
0.00025
0.0002483
0.0002468
0.0002455
0.0002442
0.0002431
0.0002421
0.0002411
0.0002402
0.0002393
0.0002385
0.0002376
0.0002368
0.000236
0.0002352
0.0002344
0.0002336
0.0002327
0.0002319
0.000231
0.00023
0.000229
0.000228
0.0002268
0.0002256
0.0002243
0.0002229
0.0002214
0.0002198
0.000218
0.000216
0.0002138
0.0002114
0.0002089
0.000206
0.0002029
0.0001995
0.0001959
0.0001919
0.0001876
0.000183
0.0001781
0.0001728
0.0001673
0.0001615
0.0001555
0.0001492
0.0001428
0.0001362
0.0001296
0.000123
0.0001164
0.0001098
0.0001035
9.724e-05
9.123e-05
8.545e-05
7.992e-05
7.467e-05
6.97e-05
6.502e-05
6.063e-05
5.654e-05
5.274e-05
4.921e-05
4.596e-05
4.296e-05
4.021e-05
3.768e-05
3.537e-05
3.326e-05
3.132e-05
2.955e-05
2.793e-05
2.644e-05
2.507e-05
2.38e-05
2.263e-05
2.155e-05
2.054e-05
1.959e-05
1.87e-05
1.786e-05
1.706e-05
1.63e-05
1.558e-05
1.488e-05
1.421e-05
1.356e-05
1.294e-05
1.232e-05
1.172e-05
1.114e-05
1.056e-05
9.997e-06
9.44e-06
8.889e-06
8.345e-06
7.805e-06
7.27e-06
6.739e-06
6.21e-06
5.685e-06
5.161e-06
4.639e-06
4.119e-06
3.6e-06
3.082e-06
2.565e-06
2.05e-06
1.538e-06
1.027e-06
5.205e-07
9.368e-08
0.0003113
0.0003104
0.0003034
0.0002948
0.000287
0.0002805
0.000275
0.0002703
0.0002662
0.0002627
0.0002596
0.0002569
0.0002545
0.0002524
0.0002505
0.0002488
0.0002473
0.0002459
0.0002447
0.0002435
0.0002424
0.0002413
0.0002403
0.0002394
0.0002385
0.0002376
0.0002367
0.0002358
0.0002349
0.000234
0.0002331
0.0002322
0.0002312
0.0002303
0.0002292
0.0002281
0.000227
0.0002258
0.0002245
0.0002231
0.0002216
0.00022
0.0002183
0.0002164
0.0002144
0.0002122
0.0002098
0.0002072
0.0002043
0.0002012
0.0001978
0.0001942
0.0001903
0.000186
0.0001815
0.0001767
0.0001716
0.0001662
0.0001605
0.0001546
0.0001485
0.0001422
0.0001358
0.0001294
0.000123
0.0001165
0.0001102
0.000104
9.796e-05
9.211e-05
8.648e-05
8.11e-05
7.597e-05
7.11e-05
6.651e-05
6.219e-05
5.815e-05
5.439e-05
5.089e-05
4.764e-05
4.464e-05
4.187e-05
3.932e-05
3.698e-05
3.482e-05
3.283e-05
3.101e-05
2.932e-05
2.777e-05
2.633e-05
2.5e-05
2.376e-05
2.261e-05
2.153e-05
2.051e-05
1.956e-05
1.865e-05
1.78e-05
1.698e-05
1.62e-05
1.546e-05
1.474e-05
1.404e-05
1.337e-05
1.272e-05
1.208e-05
1.146e-05
1.086e-05
1.026e-05
9.68e-06
9.105e-06
8.539e-06
7.98e-06
7.427e-06
6.88e-06
6.337e-06
5.799e-06
5.264e-06
4.731e-06
4.201e-06
3.673e-06
3.147e-06
2.622e-06
2.098e-06
1.574e-06
1.052e-06
5.295e-07
8.99e-08
0.000294
0.0002955
0.0002921
0.0002865
0.0002808
0.0002757
0.0002714
0.0002677
0.0002644
0.0002614
0.0002588
0.0002564
0.0002543
0.0002524
0.0002506
0.000249
0.0002475
0.0002461
0.0002448
0.0002436
0.0002425
0.0002414
0.0002404
0.0002394
0.0002384
0.0002375
0.0002365
0.0002356
0.0002346
0.0002337
0.0002327
0.0002317
0.0002307
0.0002297
0.0002286
0.0002274
0.0002262
0.0002249
0.0002236
0.0002221
0.0002206
0.0002189
0.0002172
0.0002152
0.0002132
0.0002109
0.0002085
0.0002059
0.000203
0.0001999
0.0001965
0.0001929
0.000189
0.0001849
0.0001804
0.0001756
0.0001706
0.0001653
0.0001597
0.0001539
0.0001479
0.0001418
0.0001355
0.0001292
0.0001229
0.0001166
0.0001104
0.0001044
9.845e-05
9.273e-05
8.722e-05
8.194e-05
7.691e-05
7.213e-05
6.761e-05
6.336e-05
5.937e-05
5.564e-05
5.216e-05
4.893e-05
4.594e-05
4.317e-05
4.06e-05
3.824e-05
3.606e-05
3.404e-05
3.217e-05
3.045e-05
2.885e-05
2.736e-05
2.598e-05
2.469e-05
2.348e-05
2.235e-05
2.129e-05
2.028e-05
1.933e-05
1.842e-05
1.756e-05
1.673e-05
1.594e-05
1.518e-05
1.445e-05
1.375e-05
1.306e-05
1.239e-05
1.175e-05
1.111e-05
1.049e-05
9.888e-06
9.294e-06
8.709e-06
8.133e-06
7.565e-06
7.004e-06
6.448e-06
5.899e-06
5.353e-06
4.811e-06
4.273e-06
3.737e-06
3.202e-06
2.669e-06
2.137e-06
1.605e-06
1.072e-06
5.366e-07
8.715e-08
0.0002821
0.0002845
0.0002832
0.0002796
0.0002754
0.0002715
0.000268
0.0002649
0.0002622
0.0002597
0.0002575
0.0002555
0.0002536
0.0002519
0.0002503
0.0002488
0.0002473
0.000246
0.0002448
0.0002436
0.0002425
0.0002414
0.0002403
0.0002393
0.0002383
0.0002373
0.0002364
0.0002354
0.0002344
0.0002334
0.0002324
0.0002313
0.0002303
0.0002292
0.000228
0.0002268
0.0002256
0.0002243
0.0002229
0.0002214
0.0002198
0.0002181
0.0002163
0.0002143
0.0002122
0.00021
0.0002075
0.0002049
0.000202
0.000199
0.0001956
0.000192
0.0001882
0.0001841
0.0001796
0.0001749
0.00017
0.0001647
0.0001592
0.0001535
0.0001476
0.0001415
0.0001353
0.0001291
0.0001228
0.0001166
0.0001105
0.0001046
9.874e-05
9.311e-05
8.769e-05
8.249e-05
7.753e-05
7.282e-05
6.836e-05
6.416e-05
6.021e-05
5.651e-05
5.306e-05
4.985e-05
4.687e-05
4.411e-05
4.155e-05
3.918e-05
3.699e-05
3.495e-05
3.307e-05
3.132e-05
2.969e-05
2.817e-05
2.675e-05
2.543e-05
2.418e-05
2.301e-05
2.19e-05
2.086e-05
1.987e-05
1.892e-05
1.803e-05
1.717e-05
1.634e-05
1.555e-05
1.479e-05
1.405e-05
1.334e-05
1.265e-05
1.198e-05
1.132e-05
1.068e-05
1.006e-05
9.449e-06
8.849e-06
8.259e-06
7.678e-06
7.106e-06
6.54e-06
5.981e-06
5.427e-06
4.877e-06
4.332e-06
3.789e-06
3.248e-06
2.708e-06
2.169e-06
1.63e-06
1.088e-06
5.435e-07
8.601e-08
0.0002735
0.0002762
0.0002761
0.0002739
0.0002708
0.0002677
0.0002648
0.0002622
0.00026
0.0002579
0.000256
0.0002543
0.0002526
0.0002511
0.0002497
0.0002483
0.000247
0.0002458
0.0002446
0.0002434
0.0002423
0.0002413
0.0002402
0.0002392
0.0002382
0.0002372
0.0002362
0.0002352
0.0002342
0.0002332
0.0002321
0.000231
0.0002299
0.0002288
0.0002276
0.0002264
0.0002251
0.0002238
0.0002223
0.0002208
0.0002192
0.0002175
0.0002157
0.0002137
0.0002116
0.0002093
0.0002069
0.0002043
0.0002014
0.0001984
0.0001951
0.0001915
0.0001877
0.0001836
0.0001792
0.0001745
0.0001696
0.0001644
0.0001589
0.0001532
0.0001473
0.0001413
0.0001351
0.0001289
0.0001227
0.0001166
0.0001105
0.0001046
9.884e-05
9.327e-05
8.791e-05
8.277e-05
7.786e-05
7.32e-05
6.878e-05
6.462e-05
6.07e-05
5.704e-05
5.362e-05
5.043e-05
4.747e-05
4.472e-05
4.217e-05
3.981e-05
3.762e-05
3.558e-05
3.369e-05
3.193e-05
3.029e-05
2.875e-05
2.732e-05
2.597e-05
2.47e-05
2.35e-05
2.237e-05
2.13e-05
2.028e-05
1.931e-05
1.838e-05
1.75e-05
1.665e-05
1.583e-05
1.505e-05
1.429e-05
1.355e-05
1.284e-05
1.215e-05
1.148e-05
1.083e-05
1.019e-05
9.568e-06
8.956e-06
8.356e-06
7.765e-06
7.184e-06
6.611e-06
6.044e-06
5.484e-06
4.928e-06
4.377e-06
3.829e-06
3.283e-06
2.739e-06
2.195e-06
1.65e-06
1.103e-06
5.507e-07
8.674e-08
0.000267
0.0002697
0.0002702
0.000269
0.0002668
0.0002644
0.000262
0.0002599
0.0002579
0.0002561
0.0002545
0.000253
0.0002516
0.0002502
0.0002489
0.0002477
0.0002465
0.0002453
0.0002442
0.0002432
0.0002421
0.0002411
0.00024
0.000239
0.000238
0.000237
0.000236
0.000235
0.000234
0.000233
0.0002319
0.0002308
0.0002297
0.0002286
0.0002274
0.0002261
0.0002248
0.0002235
0.000222
0.0002205
0.0002189
0.0002172
0.0002153
0.0002134
0.0002113
0.000209
0.0002066
0.000204
0.0002011
0.0001981
0.0001948
0.0001913
0.0001875
0.0001834
0.000179
0.0001744
0.0001694
0.0001642
0.0001588
0.0001531
0.0001472
0.0001411
0.000135
0.0001288
0.0001226
0.0001164
0.0001104
0.0001045
9.876e-05
9.323e-05
8.79e-05
8.279e-05
7.791e-05
7.328e-05
6.889e-05
6.475e-05
6.086e-05
5.722e-05
5.383e-05
5.067e-05
4.773e-05
4.501e-05
4.248e-05
4.014e-05
3.796e-05
3.594e-05
3.405e-05
3.23e-05
3.066e-05
2.912e-05
2.767e-05
2.631e-05
2.503e-05
2.382e-05
2.268e-05
2.159e-05
2.055e-05
1.956e-05
1.862e-05
1.772e-05
1.685e-05
1.602e-05
1.522e-05
1.445e-05
1.37e-05
1.298e-05
1.228e-05
1.159e-05
1.093e-05
1.028e-05
9.648e-06
9.028e-06
8.421e-06
7.824e-06
7.237e-06
6.658e-06
6.087e-06
5.522e-06
4.963e-06
4.408e-06
3.857e-06
3.309e-06
2.762e-06
2.215e-06
1.667e-06
1.116e-06
5.588e-07
8.953e-08
0.0002619
0.0002644
0.0002654
0.0002648
0.0002634
0.0002615
0.0002596
0.0002577
0.000256
0.0002545
0.000253
0.0002517
0.0002505
0.0002493
0.0002481
0.000247
0.0002459
0.0002449
0.0002438
0.0002428
0.0002418
0.0002408
0.0002398
0.0002388
0.0002379
0.0002369
0.0002359
0.0002349
0.0002339
0.0002328
0.0002318
0.0002307
0.0002296
0.0002284
0.0002272
0.000226
0.0002247
0.0002233
0.0002219
0.0002204
0.0002187
0.000217
0.0002152
0.0002133
0.0002112
0.000209
0.0002066
0.000204
0.0002012
0.0001982
0.0001949
0.0001914
0.0001876
0.0001835
0.0001792
0.0001745
0.0001696
0.0001643
0.0001589
0.0001531
0.0001472
0.0001411
0.0001349
0.0001286
0.0001224
0.0001162
0.0001101
0.0001042
9.851e-05
9.298e-05
8.766e-05
8.255e-05
7.769e-05
7.306e-05
6.868e-05
6.456e-05
6.069e-05
5.707e-05
5.371e-05
5.058e-05
4.767e-05
4.498e-05
4.249e-05
4.017e-05
3.802e-05
3.603e-05
3.416e-05
3.242e-05
3.079e-05
2.927e-05
2.783e-05
2.647e-05
2.519e-05
2.398e-05
2.283e-05
2.173e-05
2.069e-05
1.97e-05
1.875e-05
1.784e-05
1.696e-05
1.612e-05
1.531e-05
1.453e-05
1.378e-05
1.305e-05
1.234e-05
1.165e-05
1.098e-05
1.033e-05
9.688e-06
9.064e-06
8.453e-06
7.852e-06
7.262e-06
6.681e-06
6.108e-06
5.541e-06
4.981e-06
4.425e-06
3.873e-06
3.324e-06
2.776e-06
2.228e-06
1.679e-06
1.127e-06
5.68e-07
9.45e-08
0.0002579
0.0002602
0.0002614
0.0002613
0.0002603
0.0002589
0.0002574
0.0002558
0.0002543
0.000253
0.0002517
0.0002505
0.0002494
0.0002483
0.0002473
0.0002463
0.0002453
0.0002443
0.0002434
0.0002424
0.0002415
0.0002405
0.0002396
0.0002386
0.0002377
0.0002367
0.0002358
0.0002348
0.0002338
0.0002328
0.0002317
0.0002307
0.0002296
0.0002284
0.0002272
0.000226
0.0002247
0.0002233
0.0002219
0.0002204
0.0002188
0.0002172
0.0002154
0.0002135
0.0002114
0.0002092
0.0002069
0.0002043
0.0002015
0.0001986
0.0001953
0.0001918
0.0001881
0.000184
0.0001796
0.0001749
0.00017
0.0001647
0.0001591
0.0001533
0.0001473
0.0001411
0.0001348
0.0001285
0.0001221
0.0001159
0.0001098
0.0001038
9.808e-05
9.252e-05
8.717e-05
8.205e-05
7.717e-05
7.253e-05
6.815e-05
6.403e-05
6.017e-05
5.658e-05
5.324e-05
5.015e-05
4.729e-05
4.464e-05
4.219e-05
3.992e-05
3.781e-05
3.585e-05
3.402e-05
3.231e-05
3.071e-05
2.92e-05
2.778e-05
2.644e-05
2.518e-05
2.397e-05
2.283e-05
2.174e-05
2.07e-05
1.971e-05
1.876e-05
1.785e-05
1.697e-05
1.613e-05
1.532e-05
1.454e-05
1.378e-05
1.305e-05
1.234e-05
1.165e-05
1.098e-05
1.033e-05
9.688e-06
9.063e-06
8.451e-06
7.851e-06
7.261e-06
6.68e-06
6.107e-06
5.541e-06
4.982e-06
4.427e-06
3.876e-06
3.328e-06
2.782e-06
2.235e-06
1.687e-06
1.136e-06
5.783e-07
1.018e-07
0.0002545
0.0002567
0.000258
0.0002582
0.0002577
0.0002566
0.0002554
0.0002541
0.0002528
0.0002516
0.0002505
0.0002494
0.0002484
0.0002474
0.0002465
0.0002456
0.0002447
0.0002438
0.0002429
0.000242
0.0002411
0.0002403
0.0002394
0.0002385
0.0002376
0.0002366
0.0002357
0.0002347
0.0002338
0.0002328
0.0002318
0.0002307
0.0002296
0.0002285
0.0002273
0.0002261
0.0002249
0.0002235
0.0002222
0.0002207
0.0002191
0.0002175
0.0002158
0.0002139
0.0002119
0.0002098
0.0002074
0.0002049
0.0002022
0.0001993
0.0001961
0.0001926
0.0001889
0.0001848
0.0001804
0.0001757
0.0001707
0.0001653
0.0001597
0.0001537
0.0001476
0.0001413
0.0001348
0.0001283
0.0001219
0.0001155
0.0001093
0.0001033
9.745e-05
9.183e-05
8.643e-05
8.126e-05
7.633e-05
7.167e-05
6.727e-05
6.314e-05
5.93e-05
5.573e-05
5.243e-05
4.938e-05
4.657e-05
4.398e-05
4.159e-05
3.937e-05
3.732e-05
3.542e-05
3.364e-05
3.197e-05
3.041e-05
2.894e-05
2.755e-05
2.624e-05
2.499e-05
2.381e-05
2.268e-05
2.161e-05
2.058e-05
1.96e-05
1.866e-05
1.776e-05
1.689e-05
1.605e-05
1.525e-05
1.447e-05
1.372e-05
1.299e-05
1.229e-05
1.16e-05
1.093e-05
1.028e-05
9.646e-06
9.025e-06
8.416e-06
7.819e-06
7.232e-06
6.654e-06
6.085e-06
5.522e-06
4.966e-06
4.414e-06
3.867e-06
3.322e-06
2.779e-06
2.237e-06
1.692e-06
1.144e-06
5.9e-07
1.113e-07
0.0002518
0.0002538
0.0002551
0.0002555
0.0002553
0.0002546
0.0002536
0.0002526
0.0002515
0.0002504
0.0002494
0.0002484
0.0002475
0.0002466
0.0002458
0.0002449
0.0002441
0.0002433
0.0002425
0.0002417
0.0002408
0.00024
0.0002392
0.0002383
0.0002374
0.0002366
0.0002357
0.0002348
0.0002338
0.0002329
0.0002319
0.0002309
0.0002298
0.0002287
0.0002276
0.0002264
0.0002252
0.0002239
0.0002226
0.0002211
0.0002197
0.0002181
0.0002164
0.0002146
0.0002127
0.0002106
0.0002084
0.0002059
0.0002033
0.0002004
0.0001973
0.0001938
0.0001901
0.000186
0.0001816
0.0001768
0.0001717
0.0001662
0.0001605
0.0001544
0.0001481
0.0001415
0.0001349
0.0001282
0.0001215
0.000115
0.0001087
0.0001025
9.66e-05
9.088e-05
8.539e-05
8.014e-05
7.515e-05
7.043e-05
6.6e-05
6.187e-05
5.804e-05
5.45e-05
5.124e-05
4.826e-05
4.551e-05
4.3e-05
4.068e-05
3.855e-05
3.657e-05
3.473e-05
3.301e-05
3.141e-05
2.99e-05
2.848e-05
2.713e-05
2.586e-05
2.464e-05
2.349e-05
2.239e-05
2.134e-05
2.034e-05
1.938e-05
1.845e-05
1.757e-05
1.671e-05
1.589e-05
1.51e-05
1.433e-05
1.359e-05
1.287e-05
1.218e-05
1.15e-05
1.084e-05
1.019e-05
9.566e-06
8.951e-06
8.348e-06
7.757e-06
7.176e-06
6.605e-06
6.041e-06
5.484e-06
4.933e-06
4.387e-06
3.846e-06
3.307e-06
2.769e-06
2.232e-06
1.693e-06
1.151e-06
6.029e-07
1.232e-07
0.0002495
0.0002514
0.0002527
0.0002532
0.0002532
0.0002528
0.0002521
0.0002512
0.0002503
0.0002494
0.0002484
0.0002476
0.0002467
0.0002459
0.0002451
0.0002444
0.0002436
0.0002428
0.0002421
0.0002413
0.0002406
0.0002398
0.000239
0.0002382
0.0002374
0.0002365
0.0002357
0.0002348
0.0002339
0.000233
0.0002321
0.0002311
0.0002301
0.000229
0.000228
0.0002268
0.0002257
0.0002244
0.0002231
0.0002218
0.0002204
0.0002188
0.0002172
0.0002155
0.0002137
0.0002117
0.0002096
0.0002072
0.0002047
0.0002019
0.0001988
0.0001954
0.0001917
0.0001876
0.0001832
0.0001784
0.0001731
0.0001676
0.0001616
0.0001553
0.0001487
0.0001419
0.000135
0.000128
0.0001211
0.0001144
0.0001079
0.0001016
9.546e-05
8.96e-05
8.398e-05
7.863e-05
7.355e-05
6.877e-05
6.431e-05
6.017e-05
5.636e-05
5.287e-05
4.967e-05
4.677e-05
4.411e-05
4.169e-05
3.947e-05
3.743e-05
3.555e-05
3.38e-05
3.216e-05
3.063e-05
2.919e-05
2.782e-05
2.653e-05
2.531e-05
2.414e-05
2.303e-05
2.197e-05
2.095e-05
1.998e-05
1.904e-05
1.815e-05
1.728e-05
1.645e-05
1.565e-05
1.487e-05
1.412e-05
1.34e-05
1.269e-05
1.201e-05
1.135e-05
1.07e-05
1.007e-05
9.447e-06
8.843e-06
8.25e-06
7.668e-06
7.096e-06
6.532e-06
5.977e-06
5.428e-06
4.885e-06
4.347e-06
3.813e-06
3.281e-06
2.751e-06
2.222e-06
1.691e-06
1.157e-06
6.171e-07
1.372e-07
0.0002476
0.0002493
0.0002506
0.0002512
0.0002514
0.0002512
0.0002506
0.00025
0.0002492
0.0002484
0.0002476
0.0002468
0.000246
0.0002453
0.0002446
0.0002439
0.0002432
0.0002425
0.0002417
0.000241
0.0002403
0.0002396
0.0002389
0.0002381
0.0002373
0.0002366
0.0002358
0.0002349
0.0002341
0.0002332
0.0002323
0.0002314
0.0002304
0.0002295
0.0002284
0.0002274
0.0002263
0.0002251
0.0002239
0.0002226
0.0002213
0.0002198
0.0002183
0.0002167
0.000215
0.0002131
0.0002111
0.0002089
0.0002065
0.0002038
0.0002008
0.0001975
0.0001939
0.0001898
0.0001854
0.0001805
0.0001751
0.0001694
0.0001632
0.0001566
0.0001498
0.0001426
0.0001353
0.0001279
0.0001207
0.0001137
0.0001068
0.0001003
9.396e-05
8.791e-05
8.212e-05
7.663e-05
7.145e-05
6.661e-05
6.212e-05
5.799e-05
5.422e-05
5.08e-05
4.769e-05
4.489e-05
4.236e-05
4.006e-05
3.796e-05
3.604e-05
3.427e-05
3.262e-05
3.109e-05
2.964e-05
2.828e-05
2.7e-05
2.577e-05
2.461e-05
2.35e-05
2.244e-05
2.142e-05
2.044e-05
1.951e-05
1.861e-05
1.774e-05
1.691e-05
1.611e-05
1.533e-05
1.458e-05
1.385e-05
1.315e-05
1.246e-05
1.18e-05
1.115e-05
1.052e-05
9.898e-06
9.294e-06
8.703e-06
8.122e-06
7.552e-06
6.992e-06
6.439e-06
5.894e-06
5.355e-06
4.822e-06
4.294e-06
3.769e-06
3.247e-06
2.726e-06
2.207e-06
1.685e-06
1.162e-06
6.326e-07
1.533e-07
0.0002459
0.0002475
0.0002488
0.0002495
0.0002498
0.0002497
0.0002494
0.0002489
0.0002482
0.0002475
0.0002468
0.0002461
0.0002454
0.0002447
0.0002441
0.0002434
0.0002428
0.0002421
0.0002415
0.0002408
0.0002401
0.0002395
0.0002388
0.0002381
0.0002374
0.0002366
0.0002359
0.0002351
0.0002343
0.0002335
0.0002327
0.0002318
0.0002309
0.00023
0.000229
0.000228
0.000227
0.0002259
0.0002248
0.0002236
0.0002223
0.000221
0.0002196
0.0002181
0.0002165
0.0002148
0.0002129
0.0002109
0.0002086
0.0002061
0.0002033
0.0002001
0.0001966
0.0001926
0.0001882
0.0001832
0.0001778
0.0001718
0.0001654
0.0001585
0.0001512
0.0001436
0.0001358
0.0001279
0.0001202
0.0001127
0.0001054
9.854e-05
9.194e-05
8.564e-05
7.966e-05
7.402e-05
6.875e-05
6.386e-05
5.937e-05
5.528e-05
5.158e-05
4.826e-05
4.529e-05
4.263e-05
4.025e-05
3.81e-05
3.616e-05
3.438e-05
3.275e-05
3.123e-05
2.981e-05
2.847e-05
2.721e-05
2.6e-05
2.486e-05
2.377e-05
2.272e-05
2.172e-05
2.076e-05
1.983e-05
1.894e-05
1.808e-05
1.726e-05
1.646e-05
1.569e-05
1.494e-05
1.422e-05
1.352e-05
1.284e-05
1.218e-05
1.154e-05
1.091e-05
1.03e-05
9.696e-06
9.109e-06
8.534e-06
7.969e-06
7.413e-06
6.866e-06
6.327e-06
5.794e-06
5.267e-06
4.746e-06
4.229e-06
3.715e-06
3.204e-06
2.695e-06
2.187e-06
1.677e-06
1.165e-06
6.491e-07
1.713e-07
0.0002445
0.000246
0.0002472
0.000248
0.0002484
0.0002484
0.0002482
0.0002479
0.0002473
0.0002468
0.0002462
0.0002455
0.0002449
0.0002443
0.0002437
0.0002431
0.0002424
0.0002418
0.0002412
0.0002406
0.00024
0.0002394
0.0002387
0.0002381
0.0002374
0.0002367
0.000236
0.0002353
0.0002346
0.0002338
0.0002331
0.0002323
0.0002314
0.0002306
0.0002297
0.0002288
0.0002278
0.0002268
0.0002258
0.0002247
0.0002236
0.0002224
0.0002211
0.0002198
0.0002183
0.0002168
0.0002151
0.0002132
0.0002112
0.0002089
0.0002063
0.0002033
0.0001999
0.0001961
0.0001917
0.0001868
0.0001813
0.0001752
0.0001685
0.0001613
0.0001535
0.0001452
0.0001366
0.0001279
0.0001195
0.0001113
0.0001035
9.611e-05
8.915e-05
8.258e-05
7.639e-05
7.064e-05
6.531e-05
6.042e-05
5.597e-05
5.196e-05
4.839e-05
4.523e-05
4.243e-05
3.997e-05
3.778e-05
3.583e-05
3.408e-05
3.247e-05
3.1e-05
2.963e-05
2.834e-05
2.712e-05
2.597e-05
2.486e-05
2.381e-05
2.28e-05
2.182e-05
2.089e-05
1.999e-05
1.912e-05
1.828e-05
1.747e-05
1.669e-05
1.594e-05
1.52e-05
1.449e-05
1.381e-05
1.314e-05
1.249e-05
1.185e-05
1.124e-05
1.063e-05
1.004e-05
9.463e-06
8.896e-06
8.339e-06
7.792e-06
7.253e-06
6.722e-06
6.197e-06
5.679e-06
5.166e-06
4.658e-06
4.154e-06
3.653e-06
3.155e-06
2.658e-06
2.162e-06
1.666e-06
1.168e-06
6.665e-07
1.909e-07
0.0002433
0.0002447
0.0002459
0.0002467
0.0002471
0.0002473
0.0002472
0.000247
0.0002466
0.0002461
0.0002456
0.000245
0.0002444
0.0002439
0.0002433
0.0002427
0.0002422
0.0002416
0.0002411
0.0002405
0.0002399
0.0002393
0.0002388
0.0002382
0.0002375
0.0002369
0.0002363
0.0002356
0.0002349
0.0002342
0.0002335
0.0002328
0.000232
0.0002313
0.0002304
0.0002296
0.0002287
0.0002278
0.0002269
0.0002259
0.0002249
0.0002239
0.0002228
0.0002216
0.0002203
0.000219
0.0002175
0.0002159
0.0002141
0.0002121
0.0002097
0.0002071
0.0002039
0.0002003
0.0001962
0.0001914
0.000186
0.0001798
0.000173
0.0001653
0.0001569
0.0001478
0.0001381
0.0001281
0.0001184
0.0001092
0.0001005
9.256e-05
8.52e-05
7.838e-05
7.207e-05
6.628e-05
6.098e-05
5.618e-05
5.186e-05
4.801e-05
4.464e-05
4.169e-05
3.914e-05
3.692e-05
3.498e-05
3.327e-05
3.173e-05
3.033e-05
2.904e-05
2.784e-05
2.67e-05
2.562e-05
2.459e-05
2.359e-05
2.264e-05
2.171e-05
2.082e-05
1.996e-05
1.913e-05
1.833e-05
1.755e-05
1.679e-05
1.606e-05
1.535e-05
1.466e-05
1.4e-05
1.335e-05
1.271e-05
1.209e-05
1.149e-05
1.09e-05
1.032e-05
9.759e-06
9.205e-06
8.66e-06
8.124e-06
7.596e-06
7.075e-06
6.561e-06
6.053e-06
5.551e-06
5.053e-06
4.56e-06
4.07e-06
3.583e-06
3.099e-06
2.617e-06
2.135e-06
1.653e-06
1.17e-06
6.847e-07
2.118e-07
0.0002422
0.0002436
0.0002447
0.0002456
0.0002461
0.0002463
0.0002463
0.0002462
0.0002459
0.0002455
0.000245
0.0002446
0.0002441
0.0002435
0.000243
0.0002425
0.000242
0.0002415
0.0002409
0.0002404
0.0002399
0.0002394
0.0002388
0.0002383
0.0002377
0.0002371
0.0002365
0.0002359
0.0002353
0.0002347
0.0002341
0.0002334
0.0002327
0.000232
0.0002313
0.0002305
0.0002298
0.000229
0.0002281
0.0002273
0.0002264
0.0002255
0.0002245
0.0002235
0.0002225
0.0002214
0.0002202
0.0002188
0.0002173
0.0002156
0.0002137
0.0002114
0.0002086
0.0002054
0.0002016
0.0001972
0.000192
0.0001861
0.0001793
0.0001715
0.0001626
0.0001523
0.0001408
0.0001286
0.0001166
0.0001056
9.567e-05
8.706e-05
7.947e-05
7.263e-05
6.637e-05
6.074e-05
5.565e-05
5.107e-05
4.699e-05
4.341e-05
4.032e-05
3.768e-05
3.543e-05
3.352e-05
3.188e-05
3.044e-05
2.916e-05
2.8e-05
2.691e-05
2.59e-05
2.492e-05
2.399e-05
2.309e-05
2.222e-05
2.137e-05
2.054e-05
1.974e-05
1.896e-05
1.82e-05
1.747e-05
1.675e-05
1.606e-05
1.538e-05
1.472e-05
1.408e-05
1.346e-05
1.285e-05
1.225e-05
1.167e-05
1.11e-05
1.054e-05
9.992e-06
9.454e-06
8.925e-06
8.404e-06
7.891e-06
7.384e-06
6.883e-06
6.388e-06
5.898e-06
5.413e-06
4.932e-06
4.454e-06
3.98e-06
3.508e-06
3.039e-06
2.571e-06
2.104e-06
1.638e-06
1.171e-06
7.034e-07
2.337e-07
0.0002414
0.0002426
0.0002438
0.0002446
0.0002451
0.0002454
0.0002455
0.0002455
0.0002453
0.000245
0.0002446
0.0002442
0.0002437
0.0002433
0.0002428
0.0002423
0.0002418
0.0002414
0.0002409
0.0002404
0.0002399
0.0002394
0.0002389
0.0002384
0.0002379
0.0002374
0.0002368
0.0002363
0.0002358
0.0002352
0.0002346
0.000234
0.0002334
0.0002328
0.0002322
0.0002315
0.0002308
0.0002301
0.0002294
0.0002287
0.000228
0.0002272
0.0002264
0.0002256
0.0002248
0.0002239
0.000223
0.000222
0.0002208
0.0002195
0.000218
0.0002162
0.000214
0.0002113
0.000208
0.0002042
0.0001997
0.0001944
0.0001883
0.000181
0.0001722
0.0001612
0.0001463
0.0001293
0.0001128
9.868e-05
8.713e-05
7.846e-05
7.121e-05
6.476e-05
5.9e-05
5.39e-05
4.928e-05
4.51e-05
4.14e-05
3.82e-05
3.549e-05
3.323e-05
3.136e-05
2.982e-05
2.852e-05
2.741e-05
2.641e-05
2.551e-05
2.465e-05
2.383e-05
2.304e-05
2.227e-05
2.15e-05
2.076e-05
2.002e-05
1.93e-05
1.859e-05
1.79e-05
1.722e-05
1.656e-05
1.591e-05
1.528e-05
1.466e-05
1.405e-05
1.346e-05
1.288e-05
1.232e-05
1.176e-05
1.122e-05
1.068e-05
1.016e-05
9.642e-06
9.133e-06
8.631e-06
8.135e-06
7.645e-06
7.161e-06
6.681e-06
6.206e-06
5.735e-06
5.268e-06
4.804e-06
4.343e-06
3.884e-06
3.429e-06
2.975e-06
2.522e-06
2.072e-06
1.622e-06
1.172e-06
7.224e-07
2.563e-07
0.0002406
0.0002418
0.0002429
0.0002437
0.0002443
0.0002447
0.0002448
0.0002448
0.0002447
0.0002445
0.0002442
0.0002438
0.0002434
0.000243
0.0002426
0.0002422
0.0002417
0.0002413
0.0002409
0.0002404
0.00024
0.0002395
0.0002391
0.0002386
0.0002381
0.0002377
0.0002372
0.0002367
0.0002362
0.0002357
0.0002352
0.0002347
0.0002342
0.0002336
0.0002331
0.0002325
0.0002319
0.0002314
0.0002308
0.0002302
0.0002296
0.000229
0.0002284
0.0002278
0.0002272
0.0002266
0.0002259
0.0002252
0.0002245
0.0002236
0.0002226
0.0002213
0.0002197
0.0002177
0.0002151
0.0002122
0.0002087
0.0002048
0.0002005
0.0001947
0.0001859
0.000176
0.000158
0.0001306
0.0001043
8.666e-05
7.5e-05
6.741e-05
6.015e-05
5.441e-05
4.982e-05
4.575e-05
4.196e-05
3.841e-05
3.523e-05
3.25e-05
3.024e-05
2.844e-05
2.702e-05
2.59e-05
2.499e-05
2.423e-05
2.355e-05
2.292e-05
2.23e-05
2.17e-05
2.109e-05
2.048e-05
1.986e-05
1.924e-05
1.862e-05
1.801e-05
1.74e-05
1.68e-05
1.62e-05
1.561e-05
1.503e-05
1.447e-05
1.391e-05
1.336e-05
1.282e-05
1.229e-05
1.177e-05
1.126e-05
1.075e-05
1.026e-05
9.766e-06
9.281e-06
8.802e-06
8.328e-06
7.858e-06
7.393e-06
6.931e-06
6.474e-06
6.019e-06
5.567e-06
5.118e-06
4.672e-06
4.228e-06
3.786e-06
3.346e-06
2.908e-06
2.472e-06
2.038e-06
1.604e-06
1.172e-06
7.414e-07
2.792e-07
0.00024
0.0002411
0.0002422
0.000243
0.0002436
0.000244
0.0002442
0.0002443
0.0002442
0.0002441
0.0002438
0.0002436
0.0002432
0.0002429
0.0002425
0.0002421
0.0002417
0.0002413
0.0002409
0.0002404
0.00024
0.0002396
0.0002392
0.0002388
0.0002384
0.000238
0.0002375
0.0002371
0.0002367
0.0002362
0.0002358
0.0002354
0.0002349
0.0002345
0.000234
0.0002335
0.0002331
0.0002326
0.0002321
0.0002317
0.0002312
0.0002308
0.0002304
0.00023
0.0002296
0.0002292
0.0002289
0.0002285
0.0002282
0.0002278
0.0002273
0.0002266
0.0002256
0.0002242
0.0002225
0.0002205
0.0002183
0.0002162
0.0002134
0.0002124
0.0002049
0.0001752
0.0001341
0.0001228
0.0001151
0.0001077
7.252e-05
5.217e-05
4.679e-05
4.423e-05
3.954e-05
3.668e-05
3.405e-05
3.128e-05
2.871e-05
2.651e-05
2.476e-05
2.345e-05
2.252e-05
2.186e-05
2.138e-05
2.099e-05
2.064e-05
2.029e-05
1.992e-05
1.953e-05
1.911e-05
1.866e-05
1.819e-05
1.771e-05
1.721e-05
1.67e-05
1.619e-05
1.567e-05
1.516e-05
1.465e-05
1.415e-05
1.364e-05
1.315e-05
1.266e-05
1.217e-05
1.169e-05
1.122e-05
1.075e-05
1.028e-05
9.824e-06
9.368e-06
8.916e-06
8.467e-06
8.021e-06
7.578e-06
7.138e-06
6.7e-06
6.264e-06
5.83e-06
5.398e-06
4.967e-06
4.539e-06
4.112e-06
3.687e-06
3.263e-06
2.841e-06
2.421e-06
2.003e-06
1.587e-06
1.172e-06
7.601e-07
3.02e-07
0.0002394
0.0002405
0.0002416
0.0002424
0.000243
0.0002434
0.0002437
0.0002438
0.0002438
0.0002437
0.0002436
0.0002433
0.000243
0.0002427
0.0002424
0.000242
0.0002416
0.0002413
0.0002409
0.0002405
0.0002401
0.0002398
0.0002394
0.000239
0.0002386
0.0002383
0.0002379
0.0002375
0.0002372
0.0002368
0.0002364
0.000236
0.0002357
0.0002353
0.0002349
0.0002346
0.0002342
0.0002338
0.0002335
0.0002332
0.0002328
0.0002326
0.0002323
0.0002321
0.0002319
0.0002318
0.0002317
0.0002317
0.0002318
0.0002318
0.0002318
0.0002317
0.0002313
0.0002305
0.0002294
0.0002281
0.0002267
0.0002253
0.0002242
0.0002091
0.0001596
0.0001396
0.0001074
0.0001164
0.0001251
0.0001298
0.0001011
9.347e-05
6.986e-05
3.547e-05
2.91e-05
2.904e-05
2.622e-05
2.42e-05
2.221e-05
2.049e-05
1.923e-05
1.843e-05
1.801e-05
1.783e-05
1.779e-05
1.778e-05
1.776e-05
1.769e-05
1.757e-05
1.738e-05
1.715e-05
1.686e-05
1.653e-05
1.617e-05
1.579e-05
1.539e-05
1.498e-05
1.456e-05
1.413e-05
1.37e-05
1.326e-05
1.283e-05
1.239e-05
1.196e-05
1.153e-05
1.11e-05
1.067e-05
1.024e-05
9.819e-06
9.396e-06
8.974e-06
8.554e-06
8.136e-06
7.718e-06
7.301e-06
6.885e-06
6.47e-06
6.056e-06
5.643e-06
5.23e-06
4.818e-06
4.407e-06
3.997e-06
3.588e-06
3.181e-06
2.775e-06
2.371e-06
1.968e-06
1.569e-06
1.172e-06
7.783e-07
3.243e-07
0.000239
0.0002401
0.000241
0.0002419
0.0002425
0.000243
0.0002433
0.0002434
0.0002435
0.0002434
0.0002433
0.0002431
0.0002429
0.0002426
0.0002423
0.000242