/*--------------------------------*- C++ -*----------------------------------*\
  =========                 |
  \\      /  F ield         | OpenFOAM: The Open Source CFD Toolbox
   \\    /   O peration     | Website:  https://openfoam.org
    \\  /    A nd           | Version:  7
     \\/     M anipulation  |
\*---------------------------------------------------------------------------*/
FoamFile
{
    version     2.0;
    format      ascii;
    class       surfaceScalarField;
    location    "1259.99947341575034";
    object      phi;
}
// * * * * * * * * * * * * * * * * * * * * * * * * * * * * * * * * * * * * * //

dimensions      [0 3 -1 0 0 0 0];

internalField   nonuniform List<scalar> 
8032
(
6.857e-10
2.518e-10
4.804e-10
2.053e-10
3.48e-10
1.324e-10
2.643e-10
8.372e-11
2.101e-10
5.416e-11
1.738e-10
3.637e-11
1.483e-10
2.55e-11
1.296e-10
1.865e-11
1.155e-10
1.413e-11
1.045e-10
1.102e-11
9.567e-11
8.79e-12
8.855e-11
7.126e-12
8.27e-11
5.849e-12
7.786e-11
4.842e-12
7.383e-11
4.03e-12
7.046e-11
3.363e-12
6.766e-11
2.806e-12
6.533e-11
2.333e-12
6.34e-11
1.925e-12
6.183e-11
1.568e-12
6.058e-11
1.252e-12
5.961e-11
9.667e-13
5.891e-11
7.066e-13
5.844e-11
4.655e-13
5.82e-11
2.386e-13
5.818e-11
2.211e-14
5.837e-11
-1.876e-13
5.876e-11
-3.934e-13
5.936e-11
-5.98e-13
6.016e-11
-8.036e-13
6.118e-11
-1.012e-12
6.24e-11
-1.226e-12
6.385e-11
-1.446e-12
6.552e-11
-1.674e-12
6.743e-11
-1.91e-12
6.959e-11
-2.156e-12
7.2e-11
-2.412e-12
7.468e-11
-2.678e-12
7.763e-11
-2.953e-12
8.087e-11
-3.236e-12
8.439e-11
-3.527e-12
8.822e-11
-3.823e-12
9.234e-11
-4.12e-12
9.675e-11
-4.416e-12
1.015e-10
-4.706e-12
1.064e-10
-4.985e-12
1.117e-10
-5.245e-12
1.172e-10
-5.482e-12
1.229e-10
-5.686e-12
1.287e-10
-5.848e-12
1.347e-10
-5.961e-12
1.407e-10
-6.015e-12
1.467e-10
-6.002e-12
1.526e-10
-5.912e-12
1.583e-10
-5.739e-12
1.638e-10
-5.478e-12
1.689e-10
-5.125e-12
1.736e-10
-4.68e-12
1.778e-10
-4.146e-12
1.813e-10
-3.529e-12
1.841e-10
-2.84e-12
1.862e-10
-2.093e-12
1.875e-10
-1.303e-12
1.88e-10
-4.911e-13
1.877e-10
3.246e-13
1.866e-10
1.124e-12
1.847e-10
1.89e-12
1.821e-10
2.607e-12
1.788e-10
3.263e-12
1.75e-10
3.848e-12
1.706e-10
4.357e-12
1.658e-10
4.786e-12
1.607e-10
5.134e-12
1.553e-10
5.404e-12
1.497e-10
5.597e-12
1.44e-10
5.718e-12
1.382e-10
5.772e-12
1.324e-10
5.765e-12
1.267e-10
5.704e-12
1.211e-10
5.596e-12
1.157e-10
5.447e-12
1.104e-10
5.265e-12
1.054e-10
5.056e-12
1.005e-10
4.826e-12
9.596e-11
4.582e-12
9.163e-11
4.327e-12
8.756e-11
4.068e-12
8.375e-11
3.808e-12
8.02e-11
3.551e-12
7.69e-11
3.298e-12
7.385e-11
3.053e-12
7.103e-11
2.817e-12
6.844e-11
2.592e-12
6.606e-11
2.379e-12
6.389e-11
2.177e-12
6.19e-11
1.987e-12
6.009e-11
1.81e-12
5.844e-11
1.646e-12
5.695e-11
1.493e-12
5.56e-11
1.352e-12
5.438e-11
1.222e-12
5.327e-11
1.102e-12
5.228e-11
9.927e-13
5.139e-11
8.927e-13
5.059e-11
8.015e-13
4.987e-11
7.184e-13
4.923e-11
6.43e-13
4.865e-11
5.747e-13
4.814e-11
5.128e-13
4.768e-11
4.57e-13
4.728e-11
4.067e-13
4.691e-11
3.616e-13
4.659e-11
3.212e-13
4.631e-11
2.851e-13
4.605e-11
2.532e-13
4.583e-11
2.252e-13
4.563e-11
2.01e-13
4.545e-11
1.804e-13
4.528e-11
1.634e-13
4.513e-11
1.503e-13
4.499e-11
1.413e-13
4.486e-11
1.371e-13
4.472e-11
1.39e-13
4.457e-11
1.491e-13
4.44e-11
1.719e-13
4.418e-11
2.145e-13
4.39e-11
2.85e-13
3.703e-13
9.523e-10
2.37e-10
8.501e-10
3.075e-10
7.275e-10
2.55e-10
6.183e-10
1.929e-10
5.294e-10
1.43e-10
4.593e-10
1.065e-10
4.042e-10
8.053e-11
3.608e-10
6.214e-11
3.26e-10
4.89e-11
2.979e-10
3.916e-11
2.748e-10
3.181e-11
2.558e-10
2.615e-11
2.4e-10
2.168e-11
2.267e-10
1.809e-11
2.156e-10
1.515e-11
2.063e-10
1.271e-11
1.984e-10
1.065e-11
1.919e-10
8.881e-12
1.864e-10
7.349e-12
1.82e-10
6.003e-12
1.785e-10
4.803e-12
1.757e-10
3.719e-12
1.737e-10
2.726e-12
1.724e-10
1.804e-12
1.717e-10
9.349e-13
1.716e-10
1.05e-13
1.721e-10
-6.988e-13
1.732e-10
-1.487e-12
1.748e-10
-2.27e-12
1.771e-10
-3.056e-12
1.799e-10
-3.852e-12
1.834e-10
-4.664e-12
1.874e-10
-5.499e-12
1.921e-10
-6.361e-12
1.975e-10
-7.253e-12
2.035e-10
-8.178e-12
2.102e-10
-9.137e-12
2.177e-10
-1.013e-11
2.259e-10
-1.115e-11
2.348e-10
-1.221e-11
2.446e-10
-1.328e-11
2.551e-10
-1.437e-11
2.665e-10
-1.546e-11
2.786e-10
-1.654e-11
2.915e-10
-1.759e-11
3.051e-10
-1.86e-11
3.194e-10
-1.953e-11
3.343e-10
-2.037e-11
3.497e-10
-2.109e-11
3.655e-10
-2.165e-11
3.815e-10
-2.203e-11
3.977e-10
-2.219e-11
4.138e-10
-2.21e-11
4.296e-10
-2.173e-11
4.45e-10
-2.106e-11
4.596e-10
-2.008e-11
4.732e-10
-1.876e-11
4.856e-10
-1.712e-11
4.966e-10
-1.515e-11
5.06e-10
-1.29e-11
5.135e-10
-1.039e-11
5.191e-10
-7.667e-12
5.226e-10
-4.798e-12
5.24e-10
-1.848e-12
5.232e-10
1.117e-12
5.203e-10
4.028e-12
5.153e-10
6.822e-12
5.085e-10
9.445e-12
4.999e-10
1.185e-11
4.898e-10
1.401e-11
4.782e-10
1.59e-11
4.655e-10
1.75e-11
4.518e-10
1.881e-11
4.374e-10
1.984e-11
4.224e-10
2.059e-11
4.07e-10
2.107e-11
3.915e-10
2.131e-11
3.759e-10
2.133e-11
3.605e-10
2.115e-11
3.453e-10
2.079e-11
3.305e-10
2.027e-11
3.161e-10
1.964e-11
3.023e-10
1.889e-11
2.89e-10
1.807e-11
2.764e-10
1.719e-11
2.645e-10
1.627e-11
2.532e-10
1.533e-11
2.426e-10
1.438e-11
2.328e-10
1.343e-11
2.236e-10
1.25e-11
2.15e-10
1.159e-11
2.071e-10
1.072e-11
1.998e-10
9.88e-12
1.931e-10
9.083e-12
1.87e-10
8.328e-12
1.813e-10
7.618e-12
1.762e-10
6.952e-12
1.715e-10
6.331e-12
1.673e-10
5.754e-12
1.634e-10
5.22e-12
1.599e-10
4.726e-12
1.567e-10
4.272e-12
1.539e-10
3.855e-12
1.513e-10
3.474e-12
1.49e-10
3.125e-12
1.469e-10
2.807e-12
1.45e-10
2.517e-12
1.433e-10
2.255e-12
1.418e-10
2.016e-12
1.405e-10
1.801e-12
1.393e-10
1.607e-12
1.382e-10
1.432e-12
1.372e-10
1.275e-12
1.364e-10
1.135e-12
1.356e-10
1.011e-12
1.35e-10
9.021e-13
1.343e-10
8.072e-13
1.338e-10
7.262e-13
1.333e-10
6.59e-13
1.328e-10
6.06e-13
1.324e-10
5.68e-13
1.32e-10
5.466e-13
1.316e-10
5.442e-13
1.312e-10
5.646e-13
1.307e-10
6.134e-13
1.303e-10
6.97e-13
1.297e-10
8.144e-13
9.251e-13
9.779e-10
1.966e-10
9.637e-10
3.217e-10
9.013e-10
3.174e-10
8.212e-10
2.73e-10
7.41e-10
2.233e-10
6.68e-10
1.794e-10
6.047e-10
1.439e-10
5.508e-10
1.16e-10
5.054e-10
9.434e-11
4.671e-10
7.742e-11
4.349e-10
6.408e-11
4.076e-10
5.342e-11
3.845e-10
4.479e-11
3.649e-10
3.769e-11
3.483e-10
3.179e-11
3.342e-10
2.681e-11
3.222e-10
2.256e-11
3.122e-10
1.889e-11
3.039e-10
1.568e-11
2.971e-10
1.284e-11
2.916e-10
1.029e-11
2.873e-10
7.984e-12
2.842e-10
5.859e-12
2.821e-10
3.88e-12
2.81e-10
2.011e-12
2.809e-10
2.224e-13
2.817e-10
-1.511e-12
2.834e-10
-3.213e-12
2.861e-10
-4.903e-12
2.896e-10
-6.597e-12
2.941e-10
-8.312e-12
2.995e-10
-1.006e-11
3.058e-10
-1.186e-11
3.132e-10
-1.37e-11
3.215e-10
-1.562e-11
3.309e-10
-1.759e-11
3.414e-10
-1.964e-11
3.531e-10
-2.175e-11
3.658e-10
-2.393e-11
3.798e-10
-2.616e-11
3.949e-10
-2.843e-11
4.113e-10
-3.072e-11
4.288e-10
-3.302e-11
4.476e-10
-3.528e-11
4.675e-10
-3.749e-11
4.885e-10
-3.958e-11
5.105e-10
-4.153e-11
5.334e-10
-4.326e-11
5.57e-10
-4.473e-11
5.812e-10
-4.588e-11
6.058e-10
-4.662e-11
6.305e-10
-4.691e-11
6.551e-10
-4.668e-11
6.793e-10
-4.587e-11
7.026e-10
-4.442e-11
7.249e-10
-4.231e-11
7.456e-10
-3.952e-11
7.645e-10
-3.604e-11
7.813e-10
-3.19e-11
7.955e-10
-2.716e-11
8.07e-10
-2.188e-11
8.155e-10
-1.617e-11
8.209e-10
-1.015e-11
8.23e-10
-3.966e-12
8.219e-10
2.253e-12
8.175e-10
8.364e-12
8.101e-10
1.424e-11
7.998e-10
1.976e-11
7.868e-10
2.484e-11
7.714e-10
2.94e-11
7.539e-10
3.34e-11
7.346e-10
3.681e-11
7.138e-10
3.962e-11
6.918e-10
4.183e-11
6.69e-10
4.346e-11
6.455e-10
4.454e-11
6.217e-10
4.51e-11
5.978e-10
4.519e-11
5.741e-10
4.486e-11
5.508e-10
4.415e-11
5.279e-10
4.311e-11
5.058e-10
4.181e-11
4.844e-10
4.028e-11
4.639e-10
3.857e-11
4.443e-10
3.674e-11
4.258e-10
3.482e-11
4.083e-10
3.284e-11
3.918e-10
3.084e-11
3.764e-10
2.885e-11
3.62e-10
2.688e-11
3.486e-10
2.497e-11
3.362e-10
2.311e-11
3.248e-10
2.133e-11
3.142e-10
1.964e-11
3.045e-10
1.803e-11
2.956e-10
1.651e-11
2.875e-10
1.509e-11
2.801e-10
1.376e-11
2.733e-10
1.252e-11
2.672e-10
1.137e-11
2.616e-10
1.031e-11
2.565e-10
9.333e-12
2.519e-10
8.434e-12
2.478e-10
7.609e-12
2.441e-10
6.855e-12
2.407e-10
6.166e-12
2.377e-10
5.538e-12
2.35e-10
4.967e-12
2.325e-10
4.449e-12
2.304e-10
3.981e-12
2.284e-10
3.557e-12
2.267e-10
3.176e-12
2.251e-10
2.833e-12
2.237e-10
2.527e-12
2.225e-10
2.255e-12
2.214e-10
2.014e-12
2.204e-10
1.805e-12
2.195e-10
1.625e-12
2.187e-10
1.475e-12
2.179e-10
1.354e-12
2.172e-10
1.263e-12
2.165e-10
1.205e-12
2.159e-10
1.182e-12
2.153e-10
1.197e-12
2.146e-10
1.254e-12
2.14e-10
1.351e-12
2.133e-10
1.478e-12
1.58e-12
9.752e-10
1.589e-10
9.93e-10
3.038e-10
9.728e-10
3.377e-10
9.269e-10
3.189e-10
8.691e-10
2.811e-10
8.085e-10
2.399e-10
7.505e-10
2.019e-10
6.973e-10
1.691e-10
6.499e-10
1.417e-10
6.082e-10
1.191e-10
5.719e-10
1.004e-10
5.404e-10
8.496e-11
5.131e-10
7.206e-11
4.896e-10
6.123e-11
4.693e-10
5.204e-11
4.52e-10
4.416e-11
4.372e-10
3.736e-11
4.246e-10
3.141e-11
4.142e-10
2.616e-11
4.055e-10
2.148e-11
3.986e-10
1.725e-11
3.932e-10
1.339e-11
3.892e-10
9.826e-12
3.866e-10
6.492e-12
3.853e-10
3.332e-12
3.852e-10
3.018e-13
3.863e-10
-2.641e-12
3.886e-10
-5.534e-12
3.921e-10
-8.407e-12
3.968e-10
-1.129e-11
4.027e-10
-1.42e-11
4.098e-10
-1.718e-11
4.182e-10
-2.022e-11
4.279e-10
-2.336e-11
4.388e-10
-2.659e-11
4.512e-10
-2.993e-11
4.649e-10
-3.339e-11
4.801e-10
-3.695e-11
4.968e-10
-4.061e-11
5.15e-10
-4.435e-11
5.347e-10
-4.816e-11
5.56e-10
-5.2e-11
5.788e-10
-5.583e-11
6.031e-10
-5.961e-11
6.289e-10
-6.327e-11
6.561e-10
-6.674e-11
6.845e-10
-6.996e-11
7.141e-10
-7.282e-11
7.446e-10
-7.523e-11
7.758e-10
-7.709e-11
8.075e-10
-7.829e-11
8.393e-10
-7.872e-11
8.709e-10
-7.828e-11
9.019e-10
-7.687e-11
9.318e-10
-7.441e-11
9.604e-10
-7.085e-11
9.87e-10
-6.615e-11
1.011e-09
-6.032e-11
1.033e-09
-5.339e-11
1.051e-09
-4.546e-11
1.066e-09
-3.664e-11
1.077e-09
-2.711e-11
1.084e-09
-1.707e-11
1.086e-09
-6.742e-12
1.085e-09
3.641e-12
1.08e-09
1.385e-11
1.07e-09
2.366e-11
1.057e-09
3.29e-11
1.04e-09
4.14e-11
1.021e-09
4.906e-11
9.984e-10
5.578e-11
9.737e-10
6.153e-11
9.471e-10
6.628e-11
9.189e-10
7.003e-11
8.895e-10
7.282e-11
8.593e-10
7.47e-11
8.287e-10
7.571e-11
7.98e-10
7.593e-11
7.674e-10
7.544e-11
7.372e-10
7.432e-11
7.077e-10
7.265e-11
6.79e-10
7.052e-11
6.512e-10
6.801e-11
6.246e-10
6.52e-11
5.992e-10
6.217e-11
5.75e-10
5.897e-11
5.522e-10
5.569e-11
5.307e-10
5.235e-11
5.105e-10
4.902e-11
4.916e-10
4.573e-11
4.741e-10
4.252e-11
4.578e-10
3.941e-11
4.427e-10
3.641e-11
4.288e-10
3.355e-11
4.16e-10
3.084e-11
4.042e-10
2.827e-11
3.934e-10
2.587e-11
3.836e-10
2.361e-11
3.746e-10
2.151e-11
3.664e-10
1.956e-11
3.59e-10
1.776e-11
3.522e-10
1.609e-11
3.461e-10
1.456e-11
3.405e-10
1.315e-11
3.355e-10
1.186e-11
3.31e-10
1.068e-11
3.27e-10
9.604e-12
3.233e-10
8.625e-12
3.2e-10
7.736e-12
3.171e-10
6.93e-12
3.144e-10
6.201e-12
3.121e-10
5.543e-12
3.099e-10
4.952e-12
3.08e-10
4.423e-12
3.063e-10
3.951e-12
3.048e-10
3.534e-12
3.035e-10
3.169e-12
3.022e-10
2.854e-12
3.011e-10
2.587e-12
3.001e-10
2.369e-12
2.992e-10
2.2e-12
2.983e-10
2.081e-12
2.975e-10
2.014e-12
2.967e-10
1.999e-12
2.959e-10
2.038e-12
2.951e-10
2.123e-12
2.943e-10
2.234e-12
2.319e-12
9.668e-10
1.296e-10
9.944e-10
2.762e-10
9.979e-10
3.342e-10
9.781e-10
3.387e-10
9.426e-10
3.166e-10
8.988e-10
2.838e-10
8.52e-10
2.487e-10
8.059e-10
2.153e-10
7.622e-10
1.854e-10
7.221e-10
1.592e-10
6.858e-10
1.367e-10
6.535e-10
1.173e-10
6.248e-10
1.007e-10
5.996e-10
8.641e-11
5.777e-10
7.403e-11
5.586e-10
6.325e-11
5.421e-10
5.38e-11
5.281e-10
4.543e-11
5.163e-10
3.797e-11
5.065e-10
3.125e-11
4.986e-10
2.514e-11
4.925e-10
1.953e-11
4.88e-10
1.431e-11
4.851e-10
9.409e-12
4.837e-10
4.745e-12
4.837e-10
2.561e-13
4.852e-10
-4.114e-12
4.881e-10
-8.415e-12
4.924e-10
-1.269e-11
4.981e-10
-1.699e-11
5.052e-10
-2.133e-11
5.138e-10
-2.576e-11
5.238e-10
-3.029e-11
5.354e-10
-3.496e-11
5.486e-10
-3.977e-11
5.634e-10
-4.473e-11
5.799e-10
-4.985e-11
5.98e-10
-5.512e-11
6.18e-10
-6.053e-11
6.397e-10
-6.606e-11
6.632e-10
-7.168e-11
6.885e-10
-7.733e-11
7.157e-10
-8.297e-11
7.446e-10
-8.851e-11
7.752e-10
-9.388e-11
8.074e-10
-9.896e-11
8.411e-10
-1.037e-10
8.761e-10
-1.078e-10
9.122e-10
-1.113e-10
9.491e-10
-1.14e-10
9.866e-10
-1.157e-10
1.024e-09
-1.163e-10
1.062e-09
-1.156e-10
1.098e-09
-1.135e-10
1.134e-09
-1.098e-10
1.167e-09
-1.046e-10
1.199e-09
-9.762e-11
1.227e-09
-8.901e-11
1.253e-09
-7.88e-11
1.274e-09
-6.711e-11
1.292e-09
-5.412e-11
1.305e-09
-4.008e-11
1.313e-09
-2.529e-11
1.316e-09
-1.007e-11
1.315e-09
5.225e-12
1.308e-09
2.026e-11
1.297e-09
3.473e-11
1.282e-09
4.834e-11
1.262e-09
6.089e-11
1.239e-09
7.22e-11
1.213e-09
8.214e-11
1.184e-09
9.065e-11
1.152e-09
9.77e-11
1.119e-09
1.033e-10
1.084e-09
1.075e-10
1.049e-09
1.103e-10
1.013e-09
1.119e-10
9.763e-10
1.123e-10
9.401e-10
1.117e-10
9.043e-10
1.101e-10
8.693e-10
1.077e-10
8.352e-10
1.046e-10
8.022e-10
1.01e-10
7.705e-10
9.689e-11
7.402e-10
9.246e-11
7.114e-10
8.778e-11
6.842e-10
8.296e-11
6.584e-10
7.806e-11
6.343e-10
7.317e-11
6.117e-10
6.832e-11
5.907e-10
6.358e-11
5.711e-10
5.898e-11
5.529e-10
5.455e-11
5.362e-10
5.031e-11
5.207e-10
4.629e-11
5.065e-10
4.248e-11
4.935e-10
3.89e-11
4.816e-10
3.555e-11
4.707e-10
3.242e-11
4.607e-10
2.951e-11
4.517e-10
2.681e-11
4.434e-10
2.432e-11
4.36e-10
2.202e-11
4.292e-10
1.991e-11
4.231e-10
1.798e-11
4.175e-10
1.621e-11
4.126e-10
1.459e-11
4.081e-10
1.312e-11
4.04e-10
1.178e-11
4.004e-10
1.056e-11
3.971e-10
9.463e-12
3.942e-10
8.469e-12
3.916e-10
7.575e-12
3.892e-10
6.772e-12
3.871e-10
6.056e-12
3.852e-10
5.421e-12
3.835e-10
4.863e-12
3.82e-10
4.378e-12
3.806e-10
3.965e-12
3.794e-10
3.621e-12
3.782e-10
3.347e-12
3.772e-10
3.141e-12
3.762e-10
3.004e-12
3.752e-10
2.936e-12
3.744e-10
2.931e-12
3.735e-10
2.981e-12
3.727e-10
3.061e-12
3.125e-12
9.592e-10
1.079e-10
9.876e-10
2.478e-10
1.003e-09
3.19e-10
1e-09
3.412e-10
9.827e-10
3.342e-10
9.547e-10
3.118e-10
9.207e-10
2.827e-10
8.841e-10
2.519e-10
8.473e-10
2.222e-10
8.118e-10
1.947e-10
7.785e-10
1.7e-10
7.479e-10
1.479e-10
7.201e-10
1.285e-10
6.952e-10
1.113e-10
6.731e-10
9.615e-11
6.536e-10
8.271e-11
6.367e-10
7.074e-11
6.221e-10
6.001e-11
6.097e-10
5.033e-11
5.994e-10
4.153e-11
5.911e-10
3.346e-11
5.847e-10
2.599e-11
5.8e-10
1.9e-11
5.77e-10
1.24e-11
5.757e-10
6.09e-12
5.759e-10
-3.597e-15
5.778e-10
-5.953e-12
5.812e-10
-1.182e-11
5.861e-10
-1.767e-11
5.927e-10
-2.354e-11
6.008e-10
-2.949e-11
6.106e-10
-3.555e-11
6.221e-10
-4.176e-11
6.353e-10
-4.814e-11
6.502e-10
-5.471e-11
6.67e-10
-6.149e-11
6.856e-10
-6.848e-11
7.062e-10
-7.567e-11
7.287e-10
-8.304e-11
7.532e-10
-9.057e-11
7.797e-10
-9.82e-11
8.083e-10
-1.059e-10
8.388e-10
-1.135e-10
8.714e-10
-1.21e-10
9.058e-10
-1.283e-10
9.42e-10
-1.352e-10
9.799e-10
-1.415e-10
1.019e-09
-1.472e-10
1.06e-09
-1.519e-10
1.101e-09
-1.555e-10
1.143e-09
-1.578e-10
1.186e-09
-1.585e-10
1.228e-09
-1.576e-10
1.269e-09
-1.547e-10
1.309e-09
-1.497e-10
1.346e-09
-1.425e-10
1.382e-09
-1.33e-10
1.414e-09
-1.213e-10
1.443e-09
-1.074e-10
1.467e-09
-9.151e-11
1.487e-09
-7.383e-11
1.502e-09
-5.472e-11
1.511e-09
-3.458e-11
1.515e-09
-1.385e-11
1.513e-09
6.978e-12
1.506e-09
2.745e-11
1.493e-09
4.714e-11
1.476e-09
6.568e-11
1.454e-09
8.276e-11
1.428e-09
9.816e-11
1.399e-09
1.117e-10
1.366e-09
1.233e-10
1.331e-09
1.33e-10
1.293e-09
1.406e-10
1.254e-09
1.464e-10
1.214e-09
1.503e-10
1.174e-09
1.525e-10
1.133e-09
1.532e-10
1.092e-09
1.524e-10
1.052e-09
1.503e-10
1.012e-09
1.471e-10
9.741e-10
1.43e-10
9.37e-10
1.381e-10
9.012e-10
1.326e-10
8.671e-10
1.266e-10
8.345e-10
1.203e-10
8.037e-10
1.138e-10
7.746e-10
1.071e-10
7.473e-10
1.005e-10
7.217e-10
9.392e-11
6.978e-10
8.747e-11
6.756e-10
8.12e-11
6.55e-10
7.517e-11
6.359e-10
6.939e-11
6.183e-10
6.389e-11
6.021e-10
5.868e-11
5.872e-10
5.378e-11
5.736e-10
4.919e-11
5.611e-10
4.49e-11
5.497e-10
4.09e-11
5.393e-10
3.72e-11
5.298e-10
3.377e-11
5.212e-10
3.061e-11
5.135e-10
2.771e-11
5.064e-10
2.504e-11
5e-10
2.259e-11
4.942e-10
2.036e-11
4.89e-10
1.832e-11
4.844e-10
1.647e-11
4.801e-10
1.478e-11
4.763e-10
1.325e-11
4.729e-10
1.187e-11
4.699e-10
1.063e-11
4.671e-10
9.512e-12
4.647e-10
8.513e-12
4.625e-10
7.624e-12
4.605e-10
6.841e-12
4.587e-10
6.157e-12
4.571e-10
5.568e-12
4.557e-10
5.072e-12
4.544e-10
4.667e-12
4.531e-10
4.351e-12
4.52e-10
4.121e-12
4.51e-10
3.975e-12
4.5e-10
3.907e-12
4.491e-10
3.903e-12
4.482e-10
3.941e-12
3.979e-12
9.536e-10
9.183e-11
9.795e-10
2.219e-10
9.996e-10
2.988e-10
1.008e-09
3.333e-10
1.003e-09
3.388e-10
9.88e-10
3.267e-10
9.658e-10
3.049e-10
9.392e-10
2.786e-10
9.104e-10
2.51e-10
8.811e-10
2.24e-10
8.525e-10
1.986e-10
8.253e-10
1.751e-10
8e-10
1.538e-10
7.768e-10
1.345e-10
7.559e-10
1.171e-10
7.372e-10
1.014e-10
7.207e-10
8.72e-11
7.064e-10
7.431e-11
6.942e-10
6.254e-11
6.84e-10
5.172e-11
6.758e-10
4.172e-11
6.694e-10
3.238e-11
6.648e-10
2.36e-11
6.619e-10
1.524e-11
6.608e-10
7.221e-12
6.614e-10
-5.578e-13
6.636e-10
-8.177e-12
6.675e-10
-1.571e-11
6.73e-10
-2.323e-11
6.803e-10
-3.08e-11
6.893e-10
-3.847e-11
7e-10
-4.629e-11
7.125e-10
-5.429e-11
7.269e-10
-6.252e-11
7.432e-10
-7.1e-11
7.615e-10
-7.974e-11
7.817e-10
-8.874e-11
8.041e-10
-9.8e-11
8.285e-10
-1.075e-10
8.551e-10
-1.172e-10
8.839e-10
-1.27e-10
9.148e-10
-1.368e-10
9.479e-10
-1.466e-10
9.832e-10
-1.563e-10
1.02e-09
-1.656e-10
1.06e-09
-1.744e-10
1.101e-09
-1.826e-10
1.143e-09
-1.898e-10
1.187e-09
-1.958e-10
1.232e-09
-2.005e-10
1.278e-09
-2.034e-10
1.324e-09
-2.044e-10
1.369e-09
-2.031e-10
1.414e-09
-1.994e-10
1.457e-09
-1.93e-10
1.499e-09
-1.838e-10
1.537e-09
-1.716e-10
1.572e-09
-1.566e-10
1.604e-09
-1.387e-10
1.63e-09
-1.182e-10
1.652e-09
-9.538e-11
1.668e-09
-7.072e-11
1.678e-09
-4.473e-11
1.682e-09
-1.798e-11
1.68e-09
8.894e-12
1.672e-09
3.53e-11
1.659e-09
6.068e-11
1.64e-09
8.456e-11
1.616e-09
1.066e-10
1.588e-09
1.264e-10
1.556e-09
1.438e-10
1.52e-09
1.588e-10
1.482e-09
1.712e-10
1.442e-09
1.811e-10
1.399e-09
1.886e-10
1.356e-09
1.937e-10
1.312e-09
1.966e-10
1.268e-09
1.975e-10
1.224e-09
1.965e-10
1.18e-09
1.939e-10
1.137e-09
1.899e-10
1.095e-09
1.847e-10
1.055e-09
1.784e-10
1.016e-09
1.714e-10
9.793e-10
1.638e-10
9.439e-10
1.557e-10
9.104e-10
1.473e-10
8.788e-10
1.388e-10
8.49e-10
1.303e-10
8.211e-10
1.218e-10
7.951e-10
1.135e-10
7.708e-10
1.054e-10
7.483e-10
9.767e-11
7.275e-10
9.023e-11
7.083e-10
8.314e-11
6.905e-10
7.642e-11
6.742e-10
7.009e-11
6.592e-10
6.415e-11
6.455e-10
5.86e-11
6.33e-10
5.343e-11
6.216e-10
4.863e-11
6.112e-10
4.419e-11
6.017e-10
4.008e-11
5.931e-10
3.631e-11
5.853e-10
3.284e-11
5.782e-10
2.966e-11
5.719e-10
2.675e-11
5.661e-10
2.409e-11
5.609e-10
2.167e-11
5.562e-10
1.947e-11
5.52e-10
1.747e-11
5.482e-10
1.567e-11
5.448e-10
1.404e-11
5.417e-10
1.257e-11
5.39e-10
1.126e-11
5.365e-10
1.009e-11
5.343e-10
9.049e-12
5.323e-10
8.14e-12
5.305e-10
7.353e-12
5.289e-10
6.683e-12
5.275e-10
6.125e-12
5.261e-10
5.676e-12
5.249e-10
5.333e-12
5.238e-10
5.091e-12
5.228e-10
4.941e-12
5.218e-10
4.87e-12
5.209e-10
4.856e-12
4.868e-12
9.498e-10
7.954e-11
9.725e-10
1.992e-10
9.94e-10
2.774e-10
1.008e-09
3.195e-10
1.012e-09
3.347e-10
1.007e-09
3.317e-10
9.947e-10
3.171e-10
9.773e-10
2.96e-10
9.565e-10
2.718e-10
9.339e-10
2.465e-10
9.108e-10
2.217e-10
8.88e-10
1.979e-10
8.662e-10
1.756e-10
8.458e-10
1.55e-10
8.269e-10
1.36e-10
8.098e-10
1.185e-10
7.946e-10
1.024e-10
7.813e-10
8.765e-11
7.698e-10
7.4e-11
7.602e-10
6.134e-11
7.524e-10
4.951e-11
7.464e-10
3.838e-11
7.422e-10
2.783e-11
7.397e-10
1.775e-11
7.389e-10
8.012e-12
7.398e-10
-1.469e-12
7.424e-10
-1.079e-11
7.467e-10
-2.003e-11
7.528e-10
-2.928e-11
7.606e-10
-3.86e-11
7.701e-10
-4.805e-11
7.816e-10
-5.77e-11
7.948e-10
-6.758e-11
8.101e-10
-7.774e-11
8.273e-10
-8.821e-11
8.465e-10
-9.899e-11
8.679e-10
-1.101e-10
8.914e-10
-1.215e-10
9.171e-10
-1.332e-10
9.451e-10
-1.452e-10
9.754e-10
-1.572e-10
1.008e-09
-1.694e-10
1.043e-09
-1.815e-10
1.08e-09
-1.934e-10
1.119e-09
-2.049e-10
1.16e-09
-2.157e-10
1.204e-09
-2.258e-10
1.249e-09
-2.347e-10
1.295e-09
-2.421e-10
1.342e-09
-2.479e-10
1.39e-09
-2.515e-10
1.439e-09
-2.528e-10
1.487e-09
-2.513e-10
1.534e-09
-2.468e-10
1.58e-09
-2.389e-10
1.624e-09
-2.276e-10
1.665e-09
-2.126e-10
1.703e-09
-1.941e-10
1.736e-09
-1.72e-10
1.764e-09
-1.466e-10
1.787e-09
-1.184e-10
1.805e-09
-8.779e-11
1.815e-09
-5.554e-11
1.82e-09
-2.235e-11
1.818e-09
1.098e-11
1.809e-09
4.371e-11
1.795e-09
7.515e-11
1.775e-09
1.047e-10
1.749e-09
1.319e-10
1.719e-09
1.564e-10
1.685e-09
1.779e-10
1.648e-09
1.963e-10
1.607e-09
2.117e-10
1.564e-09
2.239e-10
1.52e-09
2.331e-10
1.474e-09
2.395e-10
1.428e-09
2.431e-10
1.381e-09
2.442e-10
1.334e-09
2.431e-10
1.288e-09
2.399e-10
1.243e-09
2.35e-10
1.199e-09
2.286e-10
1.157e-09
2.209e-10
1.116e-09
2.123e-10
1.077e-09
2.029e-10
1.039e-09
1.93e-10
1.004e-09
1.827e-10
9.706e-10
1.722e-10
9.392e-10
1.617e-10
9.097e-10
1.512e-10
8.822e-10
1.41e-10
8.566e-10
1.311e-10
8.328e-10
1.215e-10
8.107e-10
1.123e-10
7.903e-10
1.035e-10
7.715e-10
9.522e-11
7.542e-10
8.739e-11
7.384e-10
8.004e-11
7.238e-10
7.316e-11
7.105e-10
6.675e-11
6.983e-10
6.08e-11
6.872e-10
5.528e-11
6.771e-10
5.018e-11
6.679e-10
4.549e-11
6.596e-10
4.117e-11
6.521e-10
3.721e-11
6.452e-10
3.359e-11
6.39e-10
3.027e-11
6.335e-10
2.725e-11
6.284e-10
2.451e-11
6.239e-10
2.201e-11
6.198e-10
1.975e-11
6.161e-10
1.771e-11
6.128e-10
1.587e-11
6.099e-10
1.421e-11
6.072e-10
1.274e-11
6.048e-10
1.143e-11
6.027e-10
1.028e-11
6.008e-10
9.272e-12
5.991e-10
8.409e-12
5.975e-10
7.681e-12
5.961e-10
7.083e-12
5.948e-10
6.61e-12
5.937e-10
6.255e-12
5.926e-10
6.01e-12
5.916e-10
5.862e-12
5.907e-10
5.791e-12
5.773e-12
9.472e-10
6.987e-11
9.669e-10
1.795e-10
9.88e-10
2.563e-10
1.005e-09
3.027e-10
1.015e-09
3.249e-10
1.017e-09
3.293e-10
1.013e-09
3.214e-10
1.003e-09
3.056e-10
9.896e-10
2.852e-10
9.736e-10
2.625e-10
9.562e-10
2.391e-10
9.382e-10
2.159e-10
9.204e-10
1.934e-10
9.033e-10
1.721e-10
8.871e-10
1.521e-10
8.723e-10
1.333e-10
8.589e-10
1.158e-10
8.47e-10
9.953e-11
8.367e-10
8.428e-11
8.281e-10
6.998e-11
8.211e-10
5.65e-11
8.158e-10
4.372e-11
8.121e-10
3.151e-11
8.101e-10
1.976e-11
8.097e-10
8.371e-12
8.11e-10
-2.777e-12
8.14e-10
-1.378e-11
8.187e-10
-2.472e-11
8.251e-10
-3.569e-11
8.333e-10
-4.677e-11
8.432e-10
-5.802e-11
8.55e-10
-6.951e-11
8.688e-10
-8.13e-11
8.844e-10
-9.342e-11
9.021e-10
-1.059e-10
9.219e-10
-1.188e-10
9.438e-10
-1.32e-10
9.68e-10
-1.457e-10
9.944e-10
-1.596e-10
1.023e-09
-1.739e-10
1.054e-09
-1.883e-10
1.088e-09
-2.028e-10
1.123e-09
-2.172e-10
1.161e-09
-2.314e-10
1.202e-09
-2.452e-10
1.244e-09
-2.582e-10
1.289e-09
-2.702e-10
1.335e-09
-2.809e-10
1.382e-09
-2.899e-10
1.431e-09
-2.968e-10
1.481e-09
-3.013e-10
1.531e-09
-3.029e-10
1.581e-09
-3.012e-10
1.63e-09
-2.959e-10
1.678e-09
-2.867e-10
1.724e-09
-2.732e-10
1.766e-09
-2.554e-10
1.806e-09
-2.333e-10
1.84e-09
-2.068e-10
1.87e-09
-1.764e-10
1.894e-09
-1.424e-10
1.912e-09
-1.056e-10
1.923e-09
-6.681e-11
1.928e-09
-2.685e-11
1.926e-09
1.328e-11
1.917e-09
5.263e-11
1.902e-09
9.036e-11
1.88e-09
1.258e-10
1.854e-09
1.583e-10
1.823e-09
1.876e-10
1.787e-09
2.133e-10
1.748e-09
2.353e-10
1.706e-09
2.536e-10
1.662e-09
2.682e-10
1.616e-09
2.792e-10
1.569e-09
2.868e-10
1.521e-09
2.911e-10
1.473e-09
2.925e-10
1.424e-09
2.911e-10
1.377e-09
2.874e-10
1.331e-09
2.815e-10
1.285e-09
2.739e-10
1.241e-09
2.647e-10
1.199e-09
2.544e-10
1.159e-09
2.432e-10
1.121e-09
2.313e-10
1.084e-09
2.19e-10
1.05e-09
2.065e-10
1.018e-09
1.94e-10
9.873e-10
1.815e-10
9.59e-10
1.693e-10
9.326e-10
1.575e-10
9.081e-10
1.46e-10
8.854e-10
1.35e-10
8.644e-10
1.245e-10
8.45e-10
1.146e-10
8.271e-10
1.052e-10
8.107e-10
9.644e-11
7.957e-10
8.82e-11
7.819e-10
8.052e-11
7.693e-10
7.338e-11
7.578e-10
6.677e-11
7.474e-10
6.065e-11
7.378e-10
5.501e-11
7.292e-10
4.982e-11
7.213e-10
4.506e-11
7.142e-10
4.07e-11
7.078e-10
3.671e-11
7.02e-10
3.307e-11
6.967e-10
2.976e-11
6.92e-10
2.674e-11
6.877e-10
2.401e-11
6.839e-10
2.154e-11
6.804e-10
1.931e-11
6.773e-10
1.731e-11
6.746e-10
1.552e-11
6.721e-10
1.392e-11
6.698e-10
1.251e-11
6.678e-10
1.128e-11
6.66e-10
1.021e-11
6.644e-10
9.295e-12
6.63e-10
8.535e-12
6.617e-10
7.92e-12
6.605e-10
7.443e-12
6.594e-10
7.093e-12
6.584e-10
6.86e-12
6.575e-10
6.728e-12
6.678e-12
9.453e-10
6.202e-11
9.625e-10
1.624e-10
9.825e-10
2.363e-10
1.001e-09
2.847e-10
1.014e-09
3.116e-10
1.021e-09
3.217e-10
1.023e-09
3.195e-10
1.02e-09
3.087e-10
1.013e-09
2.923e-10
1.003e-09
2.726e-10
9.91e-10
2.511e-10
9.779e-10
2.29e-10
9.643e-10
2.07e-10
9.508e-10
1.856e-10
9.377e-10
1.651e-10
9.255e-10
1.456e-10
9.142e-10
1.271e-10
9.042e-10
1.096e-10
8.954e-10
9.304e-11
8.88e-10
7.736e-11
8.821e-10
6.244e-11
8.776e-10
4.818e-11
8.746e-10
3.447e-11
8.732e-10
2.119e-11
8.733e-10
8.238e-12
8.751e-10
-4.491e-12
8.784e-10
-1.71e-11
8.833e-10
-2.968e-11
8.9e-10
-4.233e-11
8.983e-10
-5.512e-11
9.085e-10
-6.814e-11
9.204e-10
-8.146e-11
9.342e-10
-9.512e-11
9.5e-10
-1.092e-10
9.678e-10
-1.237e-10
9.876e-10
-1.386e-10
1.01e-09
-1.54e-10
1.034e-09
-1.698e-10
1.06e-09
-1.861e-10
1.089e-09
-2.026e-10
1.12e-09
-2.194e-10
1.154e-09
-2.363e-10
1.189e-09
-2.531e-10
1.228e-09
-2.696e-10
1.268e-09
-2.856e-10
1.311e-09
-3.008e-10
1.356e-09
-3.149e-10
1.402e-09
-3.274e-10
1.45e-09
-3.38e-10
1.5e-09
-3.463e-10
1.55e-09
-3.516e-10
1.601e-09
-3.537e-10
1.652e-09
-3.52e-10
1.702e-09
-3.46e-10
1.75e-09
-3.354e-10
1.797e-09
-3.199e-10
1.841e-09
-2.993e-10
1.881e-09
-2.735e-10
1.917e-09
-2.426e-10
1.948e-09
-2.07e-10
1.972e-09
-1.672e-10
1.991e-09
-1.24e-10
2.002e-09
-7.833e-11
2.007e-09
-3.134e-11
2.004e-09
1.58e-11
1.995e-09
6.197e-11
1.979e-09
1.061e-10
1.957e-09
1.475e-10
1.93e-09
1.855e-10
1.898e-09
2.195e-10
1.862e-09
2.494e-10
1.822e-09
2.75e-10
1.78e-09
2.962e-10
1.735e-09
3.132e-10
1.688e-09
3.259e-10
1.64e-09
3.347e-10
1.592e-09
3.397e-10
1.543e-09
3.413e-10
1.494e-09
3.397e-10
1.446e-09
3.353e-10
1.399e-09
3.284e-10
1.354e-09
3.195e-10
1.31e-09
3.089e-10
1.267e-09
2.968e-10
1.227e-09
2.838e-10
1.188e-09
2.7e-10
1.151e-09
2.556e-10
1.117e-09
2.411e-10
1.084e-09
2.265e-10
1.054e-09
2.12e-10
1.025e-09
1.978e-10
9.989e-10
1.84e-10
9.742e-10
1.707e-10
9.514e-10
1.579e-10
9.302e-10
1.457e-10
9.107e-10
1.341e-10
8.928e-10
1.232e-10
8.762e-10
1.13e-10
8.611e-10
1.034e-10
8.472e-10
9.441e-11
8.345e-10
8.608e-11
8.229e-10
7.836e-11
8.123e-10
7.122e-11
8.027e-10
6.464e-11
7.94e-10
5.858e-11
7.86e-10
5.301e-11
7.788e-10
4.791e-11
7.723e-10
4.324e-11
7.664e-10
3.897e-11
7.611e-10
3.509e-11
7.562e-10
3.156e-11
7.519e-10
2.835e-11
7.48e-10
2.545e-11
7.445e-10
2.282e-11
7.413e-10
2.046e-11
7.385e-10
1.835e-11
7.36e-10
1.646e-11
7.337e-10
1.478e-11
7.317e-10
1.331e-11
7.298e-10
1.203e-11
7.282e-10
1.093e-11
7.267e-10
9.998e-12
7.254e-10
9.234e-12
7.242e-10
8.627e-12
7.232e-10
8.167e-12
7.222e-10
7.845e-12
7.213e-10
7.649e-12
7.567e-12
9.44e-10
5.548e-11
9.591e-10
1.473e-10
9.778e-10
2.176e-10
9.961e-10
2.664e-10
1.011e-09
2.963e-10
1.023e-09
3.106e-10
1.029e-09
3.131e-10
1.031e-09
3.066e-10
1.029e-09
2.94e-10
1.025e-09
2.773e-10
1.018e-09
2.581e-10
1.009e-09
2.375e-10
9.995e-10
2.165e-10
9.896e-10
1.955e-10
9.797e-10
1.75e-10
9.703e-10
1.551e-10
9.614e-10
1.359e-10
9.534e-10
1.176e-10
9.463e-10
1.001e-10
9.404e-10
8.33e-11
9.356e-10
6.718e-11
9.322e-10
5.165e-11
9.3e-10
3.661e-11
9.292e-10
2.196e-11
9.299e-10
7.593e-12
9.32e-10
-6.593e-12
9.356e-10
-2.07e-11
9.407e-10
-3.482e-11
9.475e-10
-4.906e-11
9.558e-10
-6.349e-11
9.659e-10
-7.82e-11
9.777e-10
-9.326e-11
9.913e-10
-1.087e-10
1.007e-09
-1.247e-10
1.024e-09
-1.411e-10
1.044e-09
-1.581e-10
1.065e-09
-1.755e-10
1.089e-09
-1.935e-10
1.115e-09
-2.12e-10
1.143e-09
-2.308e-10
1.173e-09
-2.499e-10
1.206e-09
-2.691e-10
1.241e-09
-2.883e-10
1.279e-09
-3.071e-10
1.319e-09
-3.255e-10
1.361e-09
-3.429e-10
1.405e-09
-3.59e-10
1.451e-09
-3.734e-10
1.499e-09
-3.857e-10
1.548e-09
-3.953e-10
1.598e-09
-4.016e-10
1.648e-09
-4.042e-10
1.699e-09
-4.025e-10
1.749e-09
-3.96e-10
1.798e-09
-3.842e-10
1.844e-09
-3.668e-10
1.889e-09
-3.434e-10
1.929e-09
-3.141e-10
1.965e-09
-2.788e-10
1.996e-09
-2.38e-10
2.021e-09
-1.923e-10
2.04e-09
-1.425e-10
2.051e-09
-8.985e-11
2.056e-09
-3.568e-11
2.053e-09
1.861e-11
2.043e-09
7.167e-11
2.027e-09
1.223e-10
2.005e-09
1.696e-10
1.978e-09
2.129e-10
1.945e-09
2.517e-10
1.909e-09
2.856e-10
1.87e-09
3.147e-10
1.827e-09
3.388e-10
1.782e-09
3.579e-10
1.736e-09
3.724e-10
1.688e-09
3.823e-10
1.64e-09
3.879e-10
1.592e-09
3.897e-10
1.544e-09
3.878e-10
1.496e-09
3.827e-10
1.45e-09
3.748e-10
1.405e-09
3.646e-10
1.361e-09
3.524e-10
1.319e-09
3.387e-10
1.279e-09
3.238e-10
1.241e-09
3.08e-10
1.205e-09
2.917e-10
1.171e-09
2.751e-10
1.139e-09
2.584e-10
1.109e-09
2.419e-10
1.081e-09
2.258e-10
1.055e-09
2.1e-10
1.031e-09
1.949e-10
1.009e-09
1.803e-10
9.879e-10
1.664e-10
9.688e-10
1.533e-10
9.511e-10
1.409e-10
9.349e-10
1.292e-10
9.2e-10
1.183e-10
9.063e-10
1.081e-10
8.938e-10
9.857e-11
8.824e-10
8.978e-11
8.72e-10
8.164e-11
8.625e-10
7.413e-11
8.539e-10
6.721e-11
8.46e-10
6.085e-11
8.389e-10
5.502e-11
8.325e-10
4.969e-11
8.266e-10
4.481e-11
8.214e-10
4.037e-11
8.166e-10
3.632e-11
8.123e-10
3.265e-11
8.084e-10
2.932e-11
8.049e-10
2.631e-11
8.018e-10
2.359e-11
7.99e-10
2.116e-11
7.965e-10
1.898e-11
7.942e-10
1.704e-11
7.922e-10
1.533e-11
7.904e-10
1.383e-11
7.888e-10
1.254e-11
7.874e-10
1.144e-11
7.861e-10
1.052e-11
7.849e-10
9.78e-12
7.839e-10
9.208e-12
7.829e-10
8.795e-12
7.82e-10
8.535e-12
8.42e-12
9.431e-10
4.99e-11
9.564e-10
1.34e-10
9.737e-10
2.003e-10
9.918e-10
2.483e-10
1.008e-09
2.798e-10
1.022e-09
2.972e-10
1.032e-09
3.033e-10
1.038e-09
3.006e-10
1.04e-09
2.914e-10
1.04e-09
2.776e-10
1.037e-09
2.607e-10
1.033e-09
2.419e-10
1.027e-09
2.221e-10
1.021e-09
2.019e-10
1.014e-09
1.817e-10
1.008e-09
1.618e-10
1.001e-09
1.424e-10
9.953e-10
1.235e-10
9.901e-10
1.053e-10
9.857e-10
8.77e-11
9.822e-10
7.064e-11
9.798e-10
5.407e-11
9.785e-10
3.79e-11
9.784e-10
2.206e-11
9.795e-10
6.45e-12
9.82e-10
-9.037e-12
9.858e-10
-2.45e-11
9.91e-10
-4.002e-11
9.976e-10
-5.572e-11
1.006e-09
-7.166e-11
1.016e-09
-8.795e-11
1.027e-09
-1.046e-10
1.04e-09
-1.218e-10
1.055e-09
-1.395e-10
1.072e-09
-1.578e-10
1.09e-09
-1.767e-10
1.111e-09
-1.961e-10
1.133e-09
-2.162e-10
1.158e-09
-2.367e-10
1.185e-09
-2.577e-10
1.214e-09
-2.791e-10
1.246e-09
-3.006e-10
1.28e-09
-3.22e-10
1.316e-09
-3.432e-10
1.354e-09
-3.637e-10
1.394e-09
-3.833e-10
1.437e-09
-4.015e-10
1.481e-09
-4.179e-10
1.528e-09
-4.319e-10
1.575e-09
-4.429e-10
1.624e-09
-4.503e-10
1.673e-09
-4.535e-10
1.722e-09
-4.52e-10
1.771e-09
-4.451e-10
1.819e-09
-4.322e-10
1.866e-09