/*--------------------------------*- C++ -*----------------------------------*\
  =========                 |
  \\      /  F ield         | OpenFOAM: The Open Source CFD Toolbox
   \\    /   O peration     | Website:  https://openfoam.org
    \\  /    A nd           | Version:  7
     \\/     M anipulation  |
\*---------------------------------------------------------------------------*/
FoamFile
{
    version     2.0;
    format      ascii;
    class       volVectorField;
    location    "1259.99947341575034";
    object      U;
}
// * * * * * * * * * * * * * * * * * * * * * * * * * * * * * * * * * * * * * //

dimensions      [0 1 -1 0 0 0 0];

internalField   nonuniform List<vector> 
4096
(
(0.001039 0.0001611 0)
(0.0007463 0.0001314 0)
(0.0005302 8.474e-05 0)
(0.0003919 5.358e-05 0)
(0.0003036 3.466e-05 0)
(0.0002457 2.328e-05 0)
(0.0002061 1.632e-05 0)
(0.0001778 1.193e-05 0)
(0.0001569 9.045e-06 0)
(0.0001408 7.055e-06 0)
(0.0001281 5.625e-06 0)
(0.0001179 4.561e-06 0)
(0.0001096 3.743e-06 0)
(0.0001028 3.099e-06 0)
(9.708e-05 2.579e-06 0)
(9.235e-05 2.152e-06 0)
(8.84e-05 1.796e-06 0)
(8.511e-05 1.493e-06 0)
(8.239e-05 1.232e-06 0)
(8.015e-05 1.004e-06 0)
(7.835e-05 8.01e-07 0)
(7.693e-05 6.187e-07 0)
(7.585e-05 4.522e-07 0)
(7.51e-05 2.979e-07 0)
(7.465e-05 1.527e-07 0)
(7.449e-05 1.415e-08 0)
(7.459e-05 -1.2e-07 0)
(7.496e-05 -2.518e-07 0)
(7.56e-05 -3.827e-07 0)
(7.65e-05 -5.143e-07 0)
(7.766e-05 -6.479e-07 0)
(7.909e-05 -7.846e-07 0)
(8.08e-05 -9.255e-07 0)
(8.28e-05 -1.071e-06 0)
(8.509e-05 -1.223e-06 0)
(8.769e-05 -1.38e-06 0)
(9.062e-05 -1.544e-06 0)
(9.388e-05 -1.714e-06 0)
(9.748e-05 -1.89e-06 0)
(0.0001014 -2.071e-06 0)
(0.0001058 -2.257e-06 0)
(0.0001105 -2.446e-06 0)
(0.0001156 -2.637e-06 0)
(0.000121 -2.826e-06 0)
(0.0001269 -3.012e-06 0)
(0.0001331 -3.19e-06 0)
(0.0001396 -3.357e-06 0)
(0.0001465 -3.508e-06 0)
(0.0001536 -3.639e-06 0)
(0.000161 -3.743e-06 0)
(0.0001686 -3.815e-06 0)
(0.0001762 -3.85e-06 0)
(0.0001839 -3.841e-06 0)
(0.0001915 -3.784e-06 0)
(0.000199 -3.673e-06 0)
(0.0002062 -3.506e-06 0)
(0.000213 -3.28e-06 0)
(0.0002192 -2.995e-06 0)
(0.0002249 -2.654e-06 0)
(0.0002298 -2.259e-06 0)
(0.0002339 -1.818e-06 0)
(0.000237 -1.339e-06 0)
(0.0002392 -8.342e-07 0)
(0.0002404 -3.143e-07 0)
(0.0002405 2.077e-07 0)
(0.0002395 7.195e-07 0)
(0.0002376 1.21e-06 0)
(0.0002347 1.669e-06 0)
(0.000231 2.088e-06 0)
(0.0002264 2.463e-06 0)
(0.0002212 2.788e-06 0)
(0.0002153 3.063e-06 0)
(0.000209 3.286e-06 0)
(0.0002022 3.458e-06 0)
(0.0001952 3.582e-06 0)
(0.0001879 3.659e-06 0)
(0.0001806 3.694e-06 0)
(0.0001732 3.69e-06 0)
(0.0001659 3.651e-06 0)
(0.0001586 3.581e-06 0)
(0.0001516 3.486e-06 0)
(0.0001447 3.369e-06 0)
(0.0001381 3.236e-06 0)
(0.0001318 3.089e-06 0)
(0.0001258 2.932e-06 0)
(0.0001201 2.77e-06 0)
(0.0001147 2.604e-06 0)
(0.0001096 2.437e-06 0)
(0.0001049 2.272e-06 0)
(0.0001005 2.111e-06 0)
(9.648e-05 1.954e-06 0)
(9.273e-05 1.803e-06 0)
(8.926e-05 1.659e-06 0)
(8.608e-05 1.522e-06 0)
(8.317e-05 1.393e-06 0)
(8.05e-05 1.272e-06 0)
(7.807e-05 1.159e-06 0)
(7.586e-05 1.053e-06 0)
(7.385e-05 9.554e-07 0)
(7.203e-05 8.651e-07 0)
(7.038e-05 7.819e-07 0)
(6.89e-05 7.054e-07 0)
(6.756e-05 6.354e-07 0)
(6.635e-05 5.713e-07 0)
(6.527e-05 5.129e-07 0)
(6.429e-05 4.598e-07 0)
(6.342e-05 4.115e-07 0)
(6.264e-05 3.678e-07 0)
(6.195e-05 3.282e-07 0)
(6.133e-05 2.925e-07 0)
(6.077e-05 2.603e-07 0)
(6.028e-05 2.314e-07 0)
(5.984e-05 2.055e-07 0)
(5.946e-05 1.825e-07 0)
(5.911e-05 1.621e-07 0)
(5.881e-05 1.442e-07 0)
(5.853e-05 1.286e-07 0)
(5.829e-05 1.154e-07 0)
(5.807e-05 1.046e-07 0)
(5.787e-05 9.618e-08 0)
(5.768e-05 9.043e-08 0)
(5.75e-05 8.776e-08 0)
(5.733e-05 8.895e-08 0)
(5.714e-05 9.545e-08 0)
(5.694e-05 1.1e-07 0)
(5.669e-05 1.373e-07 0)
(5.637e-05 1.824e-07 0)
(5.595e-05 2.37e-07 0)
(0.001209 0.0003128 0)
(0.001154 0.0003282 0)
(0.00101 0.000248 0)
(0.0008613 0.0001771 0)
(0.0007345 0.0001262 0)
(0.0006327 9.142e-05 0)
(0.0005527 6.786e-05 0)
(0.0004896 5.17e-05 0)
(0.0004395 4.034e-05 0)
(0.0003993 3.212e-05 0)
(0.0003665 2.599e-05 0)
(0.0003396 2.13e-05 0)
(0.0003173 1.762e-05 0)
(0.0002987 1.468e-05 0)
(0.0002831 1.228e-05 0)
(0.00027 1.029e-05 0)
(0.000259 8.609e-06 0)
(0.0002498 7.176e-06 0)
(0.0002421 5.935e-06 0)
(0.0002358 4.845e-06 0)
(0.0002307 3.875e-06 0)
(0.0002267 2.999e-06 0)
(0.0002236 2.197e-06 0)
(0.0002215 1.452e-06 0)
(0.0002202 7.511e-07 0)
(0.0002197 8.133e-08 0)
(0.0002199 -5.673e-07 0)
(0.000221 -1.204e-06 0)
(0.0002227 -1.836e-06 0)
(0.0002252 -2.47e-06 0)
(0.0002285 -3.113e-06 0)
(0.0002325 -3.77e-06 0)
(0.0002373 -4.445e-06 0)
(0.0002429 -5.142e-06 0)
(0.0002493 -5.865e-06 0)
(0.0002566 -6.614e-06 0)
(0.0002648 -7.391e-06 0)
(0.0002738 -8.197e-06 0)
(0.0002839 -9.028e-06 0)
(0.0002948 -9.883e-06 0)
(0.0003068 -1.076e-05 0)
(0.0003198 -1.164e-05 0)
(0.0003338 -1.253e-05 0)
(0.0003488 -1.341e-05 0)
(0.0003648 -1.427e-05 0)
(0.0003818 -1.509e-05 0)
(0.0003997 -1.586e-05 0)
(0.0004183 -1.655e-05 0)
(0.0004377 -1.714e-05 0)
(0.0004577 -1.76e-05 0)
(0.0004781 -1.791e-05 0)
(0.0004987 -1.805e-05 0)
(0.0005194 -1.798e-05 0)
(0.0005398 -1.769e-05 0)
(0.0005597 -1.715e-05 0)
(0.0005789 -1.636e-05 0)
(0.000597 -1.529e-05 0)
(0.0006136 -1.395e-05 0)
(0.0006286 -1.235e-05 0)
(0.0006417 -1.051e-05 0)
(0.0006525 -8.465e-06 0)
(0.0006609 -6.246e-06 0)
(0.0006667 -3.905e-06 0)
(0.0006698 -1.497e-06 0)
(0.0006702 9.226e-07 0)
(0.0006678 3.297e-06 0)
(0.0006628 5.576e-06 0)
(0.0006553 7.714e-06 0)
(0.0006454 9.674e-06 0)
(0.0006334 1.143e-05 0)
(0.0006195 1.296e-05 0)
(0.000604 1.426e-05 0)
(0.0005871 1.533e-05 0)
(0.0005691 1.615e-05 0)
(0.0005503 1.676e-05 0)
(0.0005308 1.715e-05 0)
(0.0005111 1.733e-05 0)
(0.0004912 1.734e-05 0)
(0.0004713 1.718e-05 0)
(0.0004517 1.688e-05 0)
(0.0004325 1.646e-05 0)
(0.0004138 1.594e-05 0)
(0.0003958 1.533e-05 0)
(0.0003784 1.465e-05 0)
(0.0003619 1.393e-05 0)
(0.0003462 1.318e-05 0)
(0.0003313 1.241e-05 0)
(0.0003173 1.164e-05 0)
(0.0003043 1.087e-05 0)
(0.000292 1.011e-05 0)
(0.0002807 9.373e-06 0)
(0.0002702 8.663e-06 0)
(0.0002605 7.982e-06 0)
(0.0002515 7.335e-06 0)
(0.0002433 6.723e-06 0)
(0.0002357 6.147e-06 0)
(0.0002288 5.608e-06 0)
(0.0002225 5.105e-06 0)
(0.0002168 4.638e-06 0)
(0.0002116 4.206e-06 0)
(0.0002069 3.807e-06 0)
(0.0002026 3.44e-06 0)
(0.0001988 3.103e-06 0)
(0.0001953 2.794e-06 0)
(0.0001921 2.513e-06 0)
(0.0001893 2.256e-06 0)
(0.0001868 2.023e-06 0)
(0.0001845 1.811e-06 0)
(0.0001825 1.619e-06 0)
(0.0001806 1.445e-06 0)
(0.000179 1.289e-06 0)
(0.0001776 1.148e-06 0)
(0.0001763 1.022e-06 0)
(0.0001751 9.092e-07 0)
(0.0001741 8.093e-07 0)
(0.0001732 7.215e-07 0)
(0.0001723 6.452e-07 0)
(0.0001716 5.802e-07 0)
(0.0001709 5.263e-07 0)
(0.0001703 4.84e-07 0)
(0.0001698 4.54e-07 0)
(0.0001692 4.376e-07 0)
(0.0001687 4.372e-07 0)
(0.0001682 4.568e-07 0)
(0.0001676 5.026e-07 0)
(0.000167 5.834e-07 0)
(0.0001664 7.036e-07 0)
(0.0001657 8.291e-07 0)
(0.001226 0.0002775 0)
(0.001243 0.0004027 0)
(0.001194 0.0003664 0)
(0.001102 0.0002982 0)
(0.0009998 0.0002344 0)
(0.0009018 0.000183 0)
(0.0008146 0.0001436 0)
(0.0007396 0.000114 0)
(0.000676 9.167e-05 0)
(0.0006224 7.461e-05 0)
(0.0005773 6.137e-05 0)
(0.0005392 5.093e-05 0)
(0.0005069 4.254e-05 0)
(0.0004796 3.57e-05 0)
(0.0004564 3.004e-05 0)
(0.0004367 2.529e-05 0)
(0.0004201 2.125e-05 0)
(0.0004061 1.777e-05 0)
(0.0003943 1.474e-05 0)
(0.0003846 1.206e-05 0)
(0.0003767 9.662e-06 0)
(0.0003705 7.49e-06 0)
(0.0003657 5.495e-06 0)
(0.0003624 3.638e-06 0)
(0.0003604 1.885e-06 0)
(0.0003596 2.095e-07 0)
(0.0003601 -1.415e-06 0)
(0.0003617 -3.008e-06 0)
(0.0003645 -4.591e-06 0)
(0.0003684 -6.178e-06 0)
(0.0003736 -7.785e-06 0)
(0.0003799 -9.425e-06 0)
(0.0003874 -1.111e-05 0)
(0.0003962 -1.284e-05 0)
(0.0004062 -1.464e-05 0)
(0.0004176 -1.649e-05 0)
(0.0004303 -1.842e-05 0)
(0.0004445 -2.04e-05 0)
(0.0004601 -2.245e-05 0)
(0.0004772 -2.455e-05 0)
(0.0004958 -2.669e-05 0)
(0.000516 -2.886e-05 0)
(0.0005377 -3.102e-05 0)
(0.0005609 -3.317e-05 0)
(0.0005857 -3.525e-05 0)
(0.0006118 -3.723e-05 0)
(0.0006393 -3.908e-05 0)
(0.000668 -4.073e-05 0)
(0.0006978 -4.213e-05 0)
(0.0007285 -4.322e-05 0)
(0.0007597 -4.394e-05 0)
(0.0007913 -4.422e-05 0)
(0.0008228 -4.402e-05 0)
(0.000854 -4.326e-05 0)
(0.0008844 -4.191e-05 0)
(0.0009136 -3.993e-05 0)
(0.0009411 -3.73e-05 0)
(0.0009665 -3.402e-05 0)
(0.0009893 -3.012e-05 0)
(0.001009 -2.563e-05 0)
(0.001026 -2.065e-05 0)
(0.001038 -1.526e-05 0)
(0.001047 -9.57e-06 0)
(0.001052 -3.721e-06 0)
(0.001053 2.157e-06 0)
(0.001049 7.931e-06 0)
(0.001042 1.348e-05 0)
(0.00103 1.869e-05 0)
(0.001015 2.348e-05 0)
(0.0009973 2.778e-05 0)
(0.0009762 3.155e-05 0)
(0.0009527 3.476e-05 0)
(0.000927 3.74e-05 0)
(0.0008996 3.947e-05 0)
(0.0008709 4.099e-05 0)
(0.0008412 4.199e-05 0)
(0.000811 4.25e-05 0)
(0.0007805 4.257e-05 0)
(0.0007501 4.224e-05 0)
(0.00072 4.156e-05 0)
(0.0006904 4.057e-05 0)
(0.0006616 3.932e-05 0)
(0.0006337 3.787e-05 0)
(0.0006069 3.625e-05 0)
(0.0005813 3.452e-05 0)
(0.0005569 3.27e-05 0)
(0.0005338 3.083e-05 0)
(0.0005121 2.894e-05 0)
(0.0004917 2.706e-05 0)
(0.0004726 2.52e-05 0)
(0.0004548 2.34e-05 0)
(0.0004383 2.165e-05 0)
(0.0004231 1.998e-05 0)
(0.000409 1.838e-05 0)
(0.000396 1.687e-05 0)
(0.0003841 1.544e-05 0)
(0.0003732 1.411e-05 0)
(0.0003633 1.286e-05 0)
(0.0003542 1.17e-05 0)
(0.0003459 1.062e-05 0)
(0.0003384 9.624e-06 0)
(0.0003316 8.708e-06 0)
(0.0003254 7.865e-06 0)
(0.0003198 7.093e-06 0)
(0.0003148 6.387e-06 0)
(0.0003103 5.742e-06 0)
(0.0003062 5.155e-06 0)
(0.0003025 4.622e-06 0)
(0.0002992 4.138e-06 0)
(0.0002963 3.7e-06 0)
(0.0002936 3.305e-06 0)
(0.0002913 2.949e-06 0)
(0.0002891 2.629e-06 0)
(0.0002873 2.344e-06 0)
(0.0002856 2.09e-06 0)
(0.0002841 1.867e-06 0)
(0.0002827 1.672e-06 0)
(0.0002815 1.505e-06 0)
(0.0002804 1.366e-06 0)
(0.0002794 1.254e-06 0)
(0.0002785 1.172e-06 0)
(0.0002776 1.121e-06 0)
(0.0002768 1.105e-06 0)
(0.000276 1.127e-06 0)
(0.0002751 1.195e-06 0)
(0.0002743 1.311e-06 0)
(0.0002735 1.467e-06 0)
(0.0002726 1.603e-06 0)
(0.001224 0.0002275 0)
(0.00126 0.0004003 0)
(0.001258 0.0004193 0)
(0.001216 0.0003788 0)
(0.001149 0.0003228 0)
(0.001074 0.0002684 0)
(0.0009978 0.0002213 0)
(0.0009266 0.0001825 0)
(0.0008622 0.0001511 0)
(0.0008052 0.0001258 0)
(0.0007553 0.0001053 0)
(0.0007119 8.856e-05 0)
(0.0006742 7.478e-05 0)
(0.0006417 6.331e-05 0)
(0.0006137 5.365e-05 0)
(0.0005896 4.542e-05 0)
(0.000569 3.835e-05 0)
(0.0005516 3.219e-05 0)
(0.0005368 2.678e-05 0)
(0.0005246 2.196e-05 0)
(0.0005146 1.763e-05 0)
(0.0005067 1.368e-05 0)
(0.0005007 1.004e-05 0)
(0.0004965 6.638e-06 0)
(0.000494 3.42e-06 0)
(0.0004931 3.355e-07 0)
(0.0004938 -2.658e-06 0)
(0.000496 -5.598e-06 0)
(0.0004997 -8.518e-06 0)
(0.0005049 -1.145e-05 0)
(0.0005117 -1.441e-05 0)
(0.00052 -1.743e-05 0)
(0.0005299 -2.053e-05 0)
(0.0005415 -2.372e-05 0)
(0.0005547 -2.701e-05 0)
(0.0005696 -3.042e-05 0)
(0.0005863 -3.394e-05 0)
(0.0006048 -3.757e-05 0)
(0.0006252 -4.13e-05 0)
(0.0006476 -4.512e-05 0)
(0.0006718 -4.901e-05 0)
(0.0006981 -5.294e-05 0)
(0.0007263 -5.686e-05 0)
(0.0007565 -6.073e-05 0)
(0.0007885 -6.448e-05 0)
(0.0008224 -6.805e-05 0)
(0.000858 -7.135e-05 0)
(0.0008951 -7.429e-05 0)
(0.0009335 -7.678e-05 0)
(0.000973 -7.87e-05 0)
(0.001013 -7.994e-05 0)
(0.001054 -8.041e-05 0)
(0.001094 -7.997e-05 0)
(0.001135 -7.855e-05 0)
(0.001174 -7.605e-05 0)
(0.001211 -7.242e-05 0)
(0.001246 -6.763e-05 0)
(0.001279 -6.167e-05 0)
(0.001308 -5.459e-05 0)
(0.001334 -4.647e-05 0)
(0.001355 -3.745e-05 0)
(0.001371 -2.77e-05 0)
(0.001383 -1.742e-05 0)
(0.001389 -6.853e-06 0)
(0.00139 3.773e-06 0)
(0.001385 1.422e-05 0)
(0.001376 2.425e-05 0)
(0.001361 3.37e-05 0)
(0.001342 4.239e-05 0)
(0.001319 5.021e-05 0)
(0.001292 5.708e-05 0)
(0.001262 6.294e-05 0)
(0.001229 6.777e-05 0)
(0.001194 7.159e-05 0)
(0.001157 7.442e-05 0)
(0.001119 7.631e-05 0)
(0.00108 7.732e-05 0)
(0.001041 7.752e-05 0)
(0.001002 7.699e-05 0)
(0.000963 7.582e-05 0)
(0.0009247 7.409e-05 0)
(0.0008874 7.189e-05 0)
(0.0008513 6.931e-05 0)
(0.0008165 6.642e-05 0)
(0.0007832 6.33e-05 0)
(0.0007515 6.003e-05 0)
(0.0007214 5.666e-05 0)
(0.000693 5.324e-05 0)
(0.0006663 4.984e-05 0)
(0.0006414 4.648e-05 0)
(0.0006181 4.319e-05 0)
(0.0005964 4.001e-05 0)
(0.0005763 3.696e-05 0)
(0.0005578 3.404e-05 0)
(0.0005407 3.127e-05 0)
(0.0005249 2.866e-05 0)
(0.0005105 2.621e-05 0)
(0.0004973 2.392e-05 0)
(0.0004852 2.178e-05 0)
(0.0004742 1.98e-05 0)
(0.0004642 1.796e-05 0)
(0.0004551 1.627e-05 0)
(0.0004469 1.471e-05 0)
(0.0004394 1.328e-05 0)
(0.0004327 1.198e-05 0)
(0.0004266 1.078e-05 0)
(0.0004211 9.691e-06 0)
(0.0004162 8.699e-06 0)
(0.0004117 7.799e-06 0)
(0.0004077 6.983e-06 0)
(0.0004042 6.245e-06 0)
(0.0004009 5.58e-06 0)
(0.0003981 4.982e-06 0)
(0.0003955 4.448e-06 0)
(0.0003932 3.972e-06 0)
(0.0003911 3.551e-06 0)
(0.0003893 3.183e-06 0)
(0.0003876 2.867e-06 0)
(0.0003861 2.6e-06 0)
(0.0003848 2.383e-06 0)
(0.0003835 2.217e-06 0)
(0.0003824 2.103e-06 0)
(0.0003813 2.045e-06 0)
(0.0003802 2.046e-06 0)
(0.0003792 2.107e-06 0)
(0.0003782 2.224e-06 0)
(0.0003772 2.376e-06 0)
(0.0003763 2.496e-06 0)
(0.001219 0.0001846 0)
(0.001255 0.0003712 0)
(0.001275 0.00043 0)
(0.001265 0.0004209 0)
(0.001229 0.0003825 0)
(0.001178 0.0003352 0)
(0.001121 0.0002884 0)
(0.001061 0.0002461 0)
(0.001004 0.0002094 0)
(0.00095 0.0001781 0)
(0.0009011 0.0001517 0)
(0.0008572 0.0001295 0)
(0.0008181 0.0001106 0)
(0.0007837 9.449e-05 0)
(0.0007535 8.068e-05 0)
(0.0007272 6.875e-05 0)
(0.0007044 5.834e-05 0)
(0.0006849 4.918e-05 0)
(0.0006684 4.104e-05 0)
(0.0006546 3.375e-05 0)
(0.0006433 2.713e-05 0)
(0.0006343 2.107e-05 0)
(0.0006275 1.545e-05 0)
(0.0006228 1.018e-05 0)
(0.00062 5.169e-06 0)
(0.0006191 3.571e-07 0)
(0.0006201 -4.323e-06 0)
(0.0006229 -8.927e-06 0)
(0.0006275 -1.35e-05 0)
(0.0006339 -1.81e-05 0)
(0.0006421 -2.274e-05 0)
(0.0006521 -2.748e-05 0)
(0.0006641 -3.233e-05 0)
(0.0006779 -3.732e-05 0)
(0.0006938 -4.247e-05 0)
(0.0007117 -4.778e-05 0)
(0.0007317 -5.327e-05 0)
(0.0007539 -5.892e-05 0)
(0.0007782 -6.473e-05 0)
(0.0008049 -7.067e-05 0)
(0.0008338 -7.669e-05 0)
(0.0008651 -8.277e-05 0)
(0.0008987 -8.883e-05 0)
(0.0009345 -9.479e-05 0)
(0.0009726 -0.0001006 0)
(0.001013 -0.0001061 0)
(0.001055 -0.0001111 0)
(0.001099 -0.0001156 0)
(0.001145 -0.0001194 0)
(0.001191 -0.0001223 0)
(0.001239 -0.0001242 0)
(0.001287 -0.0001248 0)
(0.001335 -0.0001241 0)
(0.001382 -0.0001218 0)
(0.001428 -0.0001179 0)
(0.001473 -0.0001123 0)
(0.001514 -0.0001048 0)
(0.001553 -9.557e-05 0)
(0.001587 -8.46e-05 0)
(0.001617 -7.204e-05 0)
(0.001643 -5.809e-05 0)
(0.001662 -4.3e-05 0)
(0.001676 -2.711e-05 0)
(0.001683 -1.076e-05 0)
(0.001684 5.675e-06 0)
(0.001679 2.183e-05 0)
(0.001668 3.737e-05 0)
(0.001651 5.199e-05 0)
(0.001628 6.547e-05 0)
(0.001601 7.76e-05 0)
(0.001569 8.827e-05 0)
(0.001534 9.739e-05 0)
(0.001495 0.0001049 0)
(0.001454 0.0001109 0)
(0.00141 0.0001154 0)
(0.001365 0.0001184 0)
(0.001319 0.0001201 0)
(0.001273 0.0001205 0)
(0.001226 0.0001197 0)
(0.00118 0.000118 0)
(0.001135 0.0001154 0)
(0.001091 0.0001121 0)
(0.001048 0.0001082 0)
(0.001007 0.0001037 0)
(0.0009669 9.896e-05 0)
(0.0009291 9.393e-05 0)
(0.0008932 8.873e-05 0)
(0.0008593 8.347e-05 0)
(0.0008274 7.82e-05 0)
(0.0007974 7.3e-05 0)
(0.0007695 6.79e-05 0)
(0.0007435 6.297e-05 0)
(0.0007194 5.821e-05 0)
(0.000697 5.367e-05 0)
(0.0006764 4.936e-05 0)
(0.0006574 4.528e-05 0)
(0.00064 4.145e-05 0)
(0.000624 3.786e-05 0)
(0.0006094 3.451e-05 0)
(0.0005961 3.14e-05 0)
(0.0005839 2.852e-05 0)
(0.0005729 2.586e-05 0)
(0.0005628 2.341e-05 0)
(0.0005537 2.116e-05 0)
(0.0005454 1.91e-05 0)
(0.000538 1.721e-05 0)
(0.0005313 1.549e-05 0)
(0.0005252 1.392e-05 0)
(0.0005197 1.249e-05 0)
(0.0005148 1.12e-05 0)
(0.0005104 1.002e-05 0)
(0.0005064 8.968e-06 0)
(0.0005029 8.017e-06 0)
(0.0004997 7.165e-06 0)
(0.0004969 6.405e-06 0)
(0.0004943 5.731e-06 0)
(0.000492 5.14e-06 0)
(0.0004899 4.629e-06 0)
(0.0004881 4.193e-06 0)
(0.0004864 3.834e-06 0)
(0.0004849 3.55e-06 0)
(0.0004835 3.342e-06 0)
(0.0004822 3.211e-06 0)
(0.0004809 3.158e-06 0)
(0.0004797 3.18e-06 0)
(0.0004786 3.267e-06 0)
(0.0004775 3.389e-06 0)
(0.0004765 3.484e-06 0)
(0.001214 0.000152 0)
(0.001246 0.0003354 0)
(0.001274 0.000418 0)
(0.001282 0.0004352 0)
(0.001269 0.0004165 0)
(0.00124 0.0003812 0)
(0.0012 0.0003401 0)
(0.001155 0.000299 0)
(0.001108 0.0002608 0)
(0.001062 0.0002265 0)
(0.001018 0.0001962 0)
(0.0009769 0.0001698 0)
(0.0009395 0.0001467 0)
(0.0009058 0.0001265 0)
(0.0008757 0.0001089 0)
(0.0008491 9.342e-05 0)
(0.0008258 7.97e-05 0)
(0.0008056 6.748e-05 0)
(0.0007884 5.651e-05 0)
(0.0007739 4.658e-05 0)
(0.000762 3.751e-05 0)
(0.0007525 2.913e-05 0)
(0.0007454 2.132e-05 0)
(0.0007405 1.396e-05 0)
(0.0007377 6.934e-06 0)
(0.000737 1.616e-07 0)
(0.0007383 -6.443e-06 0)
(0.0007417 -1.295e-05 0)
(0.0007471 -1.943e-05 0)
(0.0007544 -2.594e-05 0)
(0.0007639 -3.253e-05 0)
(0.0007754 -3.924e-05 0)
(0.000789 -4.611e-05 0)
(0.0008047 -5.318e-05 0)
(0.0008227 -6.047e-05 0)
(0.000843 -6.798e-05 0)
(0.0008657 -7.573e-05 0)
(0.0008907 -8.371e-05 0)
(0.0009183 -9.189e-05 0)
(0.0009484 -0.0001002 0)
(0.0009811 -0.0001087 0)
(0.001016 -0.0001173 0)
(0.001054 -0.0001258 0)
(0.001095 -0.0001341 0)
(0.001137 -0.0001422 0)
(0.001183 -0.0001499 0)
(0.00123 -0.0001569 0)
(0.001279 -0.0001632 0)
(0.001331 -0.0001685 0)
(0.001383 -0.0001725 0)
(0.001437 -0.000175 0)
(0.00149 -0.0001759 0)
(0.001544 -0.0001748 0)
(0.001598 -0.0001716 0)
(0.001649 -0.0001661 0)
(0.001699 -0.0001581 0)
(0.001746 -0.0001476 0)
(0.001789 -0.0001346 0)
(0.001828 -0.0001192 0)
(0.001862 -0.0001015 0)
(0.001891 -8.189e-05 0)
(0.001913 -6.067e-05 0)
(0.001928 -3.831e-05 0)
(0.001936 -1.531e-05 0)
(0.001938 7.81e-06 0)
(0.001932 3.054e-05 0)
(0.001919 5.24e-05 0)
(0.0019 7.298e-05 0)
(0.001875 9.194e-05 0)
(0.001845 0.000109 0)
(0.001809 0.0001241 0)
(0.001769 0.0001369 0)
(0.001726 0.0001476 0)
(0.001679 0.0001561 0)
(0.00163 0.0001625 0)
(0.00158 0.0001668 0)
(0.001528 0.0001692 0)
(0.001476 0.0001699 0)
(0.001424 0.000169 0)
(0.001372 0.0001666 0)
(0.001321 0.0001631 0)
(0.001271 0.0001585 0)
(0.001223 0.000153 0)
(0.001176 0.0001469 0)
(0.001132 0.0001402 0)
(0.001089 0.0001332 0)
(0.001048 0.0001259 0)
(0.00101 0.0001185 0)
(0.000974 0.0001111 0)
(0.0009401 0.0001038 0)
(0.0009085 9.667e-05 0)
(0.000879 8.972e-05 0)
(0.0008515 8.302e-05 0)
(0.0008261 7.661e-05 0)
(0.0008027 7.051e-05 0)
(0.000781 6.475e-05 0)
(0.0007611 5.932e-05 0)
(0.0007429 5.423e-05 0)
(0.0007262 4.948e-05 0)
(0.0007109 4.506e-05 0)
(0.0006969 4.097e-05 0)
(0.0006842 3.718e-05 0)
(0.0006727 3.369e-05 0)
(0.0006622 3.048e-05 0)
(0.0006527 2.753e-05 0)
(0.0006441 2.483e-05 0)
(0.0006363 2.237e-05 0)
(0.0006293 2.012e-05 0)
(0.000623 1.808e-05 0)
(0.0006173 1.622e-05 0)
(0.0006122 1.454e-05 0)
(0.0006075 1.302e-05 0)
(0.0006034 1.165e-05 0)
(0.0005997 1.042e-05 0)
(0.0005964 9.324e-06 0)
(0.0005934 8.349e-06 0)
(0.0005907 7.49e-06 0)
(0.0005883 6.742e-06 0)
(0.0005861 6.101e-06 0)
(0.0005842 5.564e-06 0)
(0.0005824 5.129e-06 0)
(0.0005808 4.795e-06 0)
(0.0005793 4.56e-06 0)
(0.0005779 4.423e-06 0)
(0.0005766 4.376e-06 0)
(0.0005754 4.406e-06 0)
(0.0005743 4.481e-06 0)
(0.0005732 4.547e-06 0)
(0.00121 0.0001278 0)
(0.001237 0.0003006 0)
(0.001267 0.0003954 0)
(0.001285 0.0004317 0)
(0.001287 0.0004307 0)
(0.001274 0.0004086 0)
(0.00125 0.000376 0)
(0.001219 0.0003395 0)
(0.001184 0.0003028 0)
(0.001147 0.000268 0)
(0.00111 0.0002358 0)
(0.001074 0.0002068 0)
(0.00104 0.0001807 0)
(0.001009 0.0001573 0)
(0.0009809 0.0001365 0)
(0.0009556 0.0001178 0)
(0.0009331 0.0001011 0)
(0.0009134 8.596e-05 0)
(0.0008964 7.223e-05 0)
(0.0008821 5.968e-05 0)
(0.0008703 4.811e-05 0)
(0.0008609 3.736e-05 0)
(0.0008539 2.726e-05 0)
(0.0008491 1.769e-05 0)
(0.0008466 8.519e-06 0)
(0.0008462 -3.593e-07 0)
(0.000848 -9.043e-06 0)
(0.0008519 -1.762e-05 0)
(0.0008579 -2.618e-05 0)
(0.0008661 -3.478e-05 0)
(0.0008765 -4.349e-05 0)
(0.0008891 -5.238e-05 0)
(0.000904 -6.147e-05 0)
(0.0009213 -7.082e-05 0)
(0.0009409 -8.046e-05 0)
(0.000963 -9.039e-05 0)
(0.0009877 -0.0001006 0)
(0.001015 -0.0001111 0)
(0.001045 -0.0001219 0)
(0.001078 -0.0001329 0)
(0.001113 -0.0001441 0)
(0.001151 -0.0001553 0)
(0.001192 -0.0001665 0)
(0.001236 -0.0001775 0)
(0.001282 -0.0001881 0)
(0.001331 -0.0001982 0)
(0.001383 -0.0002074 0)
(0.001436 -0.0002156 0)
(0.001492 -0.0002225 0)
(0.001549 -0.0002278 0)
(0.001607 -0.0002312 0)
(0.001665 -0.0002323 0)
(0.001723 -0.0002308 0)
(0.001781 -0.0002266 0)
(0.001838 -0.0002193 0)
(0.001892 -0.0002088 0)
(0.001943 -0.000195 0)
(0.00199 -0.0001778 0)
(0.002033 -0.0001575 0)
(0.00207 -0.0001342 0)
(0.002101 -0.0001083 0)
(0.002125 -8.028e-05 0)
(0.002141 -5.075e-05 0)
(0.00215 -2.037e-05 0)
(0.002152 1.016e-05 0)
(0.002146 4.016e-05 0)
(0.002132 6.901e-05 0)
(0.002111 9.616e-05 0)
(0.002084 0.0001212 0)
(0.002051 0.0001437 0)
(0.002012 0.0001635 0)
(0.001969 0.0001806 0)
(0.001922 0.0001947 0)
(0.001871 0.0002059 0)
(0.001818 0.0002144 0)
(0.001763 0.0002202 0)
(0.001708 0.0002234 0)
(0.001651 0.0002244 0)
(0.001594 0.0002233 0)
(0.001538 0.0002203 0)
(0.001483 0.0002157 0)
(0.001429 0.0002097 0)
(0.001376 0.0002026 0)
(0.001326 0.0001946 0)
(0.001277 0.0001858 0)
(0.001231 0.0001766 0)
(0.001187 0.0001671 0)
(0.001145 0.0001574 0)
(0.001106 0.0001477 0)
(0.001069 0.0001381 0)
(0.001034 0.0001286 0)
(0.001002 0.0001195 0)
(0.0009723 0.0001106 0)
(0.0009445 0.0001022 0)
(0.0009189 9.409e-05 0)
(0.0008952 8.647e-05 0)
(0.0008734 7.928e-05 0)
(0.0008534 7.254e-05 0)
(0.0008351 6.624e-05 0)
(0.0008183 6.037e-05 0)
(0.0008029 5.493e-05 0)
(0.000789 4.989e-05 0)
(0.0007762 4.525e-05 0)
(0.0007647 4.097e-05 0)
(0.0007542 3.704e-05 0)
(0.0007447 3.344e-05 0)
(0.0007361 3.015e-05 0)
(0.0007283 2.714e-05 0)
(0.0007213 2.441e-05 0)
(0.0007149 2.192e-05 0)
(0.0007092 1.967e-05 0)
(0.0007041 1.763e-05 0)
(0.0006995 1.579e-05 0)
(0.0006953 1.413e-05 0)
(0.0006916 1.265e-05 0)
(0.0006883 1.133e-05 0)
(0.0006853 1.017e-05 0)
(0.0006826 9.15e-06 0)
(0.0006802 8.27e-06 0)
(0.000678 7.523e-06 0)
(0.0006761 6.907e-06 0)
(0.0006743 6.417e-06 0)
(0.0006727 6.051e-06 0)
(0.0006712 5.802e-06 0)
(0.0006698 5.662e-06 0)
(0.0006685 5.615e-06 0)
(0.0006673 5.63e-06 0)
(0.0006662 5.662e-06 0)
(0.001208 0.0001097 0)
(0.00123 0.0002695 0)
(0.001259 0.0003688 0)
(0.001281 0.0004178 0)
(0.001293 0.0004311 0)
(0.001292 0.0004214 0)
(0.001281 0.0003981 0)
(0.001262 0.0003677 0)
(0.001238 0.0003345 0)
(0.00121 0.0003011 0)
(0.001181 0.0002689 0)
(0.001151 0.0002387 0)
(0.001123 0.0002108 0)
(0.001096 0.0001853 0)
(0.001071 0.000162 0)
(0.001048 0.0001407 0)
(0.001027 0.0001214 0)
(0.001009 0.0001037 0)
(0.0009927 8.739e-05 0)
(0.0009792 7.236e-05 0)
(0.0009681 5.839e-05 0)
(0.0009592 4.529e-05 0)
(0.0009527 3.291e-05 0)
(0.0009484 2.111e-05 0)
(0.0009463 9.749e-06 0)
(0.0009463 -1.297e-06 0)
(0.0009486 -1.214e-05 0)
(0.000953 -2.288e-05 0)
(0.0009597 -3.361e-05 0)
(0.0009685 -4.442e-05 0)
(0.0009796 -5.537e-05 0)
(0.0009931 -6.655e-05 0)
(0.001009 -7.8e-05 0)
(0.001027 -8.977e-05 0)
(0.001048 -0.0001019 0)
(0.001071 -0.0001144 0)
(0.001097 -0.0001273 0)
(0.001126 -0.0001405 0)
(0.001157 -0.0001541 0)
(0.001192 -0.0001679 0)
(0.001229 -0.0001819 0)
(0.001269 -0.000196 0)
(0.001312 -0.00021 0)
(0.001359 -0.0002238 0)
(0.001407 -0.0002371 0)
(0.001459 -0.0002497 0)
(0.001513 -0.0002613 0)
(0.001569 -0.0002716 0)
(0.001628 -0.0002803 0)
(0.001688 -0.0002869 0)
(0.001749 -0.0002912 0)
(0.001811 -0.0002926 0)
(0.001873 -0.0002908 0)
(0.001934 -0.0002855 0)
(0.001993 -0.0002764 0)
(0.002051 -0.0002633 0)
(0.002105 -0.0002459 0)
(0.002156 -0.0002244 0)
(0.002201 -0.0001988 0)
(0.00224 -0.0001695 0)
(0.002273 -0.0001368 0)
(0.002299 -0.0001014 0)
(0.002317 -6.417e-05 0)
(0.002326 -2.581e-05 0)
(0.002328 1.272e-05 0)
(0.002321 5.057e-05 0)
(0.002307 8.693e-05 0)
(0.002284 0.0001211 0)
(0.002255 0.0001526 0)
(0.00222 0.000181 0)
(0.002179 0.0002059 0)
(0.002133 0.0002273 0)
(0.002083 0.0002451 0)
(0.00203 0.0002592 0)
(0.001974 0.0002699 0)
(0.001916 0.0002772 0)
(0.001857 0.0002814 0)
(0.001797 0.0002827 0)
(0.001738 0.0002813 0)
(0.001678 0.0002777 0)
(0.00162 0.0002719 0)
(0.001563 0.0002645 0)
(0.001508 0.0002556 0)
(0.001454 0.0002456 0)
(0.001403 0.0002347 0)
(0.001354 0.0002231 0)
(0.001308 0.0002112 0)
(0.001264 0.000199 0)
(0.001222 0.0001868 0)
(0.001183 0.0001747 0)
(0.001147 0.0001629 0)
(0.001113 0.0001514 0)
(0.001081 0.0001403 0)
(0.001052 0.0001296 0)
(0.001025 0.0001195 0)
(0.0009996 0.0001099 0)
(0.0009765 0.0001008 0)
(0.0009553 9.228e-05 0)
(0.0009358 8.433e-05 0)
(0.0009179 7.692e-05 0)
(0.0009016 7.003e-05 0)
(0.0008867 6.366e-05 0)
(0.0008732 5.777e-05 0)
(0.0008608 5.235e-05 0)
(0.0008496 4.737e-05 0)
(0.0008395 4.28e-05 0)
(0.0008303 3.861e-05 0)
(0.0008219 3.479e-05 0)
(0.0008144 3.131e-05 0)
(0.0008076 2.814e-05 0)
(0.0008015 2.527e-05 0)
(0.000796 2.267e-05 0)
(0.000791 2.032e-05 0)
(0.0007865 1.82e-05 0)
(0.0007825 1.63e-05 0)
(0.0007789 1.461e-05 0)
(0.0007757 1.311e-05 0)
(0.0007728 1.179e-05 0)
(0.0007702 1.064e-05 0)
(0.0007679 9.658e-06 0)
(0.0007658 8.835e-06 0)
(0.0007639 8.166e-06 0)
(0.0007622 7.643e-06 0)
(0.0007606 7.261e-06 0)
(0.0007592 7.009e-06 0)
(0.0007579 6.868e-06 0)
(0.0007566 6.815e-06 0)
(0.0007555 6.81e-06 0)
(0.001206 9.562e-05 0)
(0.001225 0.0002424 0)
(0.001251 0.0003415 0)
(0.001275 0.0003982 0)
(0.001292 0.0004222 0)
(0.0013 0.000423 0)
(0.001299 0.0004086 0)
(0.00129 0.000385 0)
(0.001275 0.0003565 0)
(0.001256 0.0003258 0)
(0.001235 0.0002949 0)
(0.001212 0.0002648 0)
(0.00119 0.0002362 0)
(0.001167 0.0002093 0)
(0.001146 0.0001843 0)
(0.001126 0.0001612 0)
(0.001108 0.0001397 0)
(0.001092 0.0001198 0)
(0.001078 0.0001013 0)
(0.001065 8.404e-05 0)
(0.001055 6.784e-05 0)
(0.001048 5.254e-05 0)
(0.001042 3.798e-05 0)
(0.001038 2.401e-05 0)
(0.001037 1.048e-05 0)
(0.001037 -2.718e-06 0)
(0.00104 -1.572e-05 0)
(0.001045 -2.864e-05 0)
(0.001052 -4.158e-05 0)
(0.001061 -5.463e-05 0)
(0.001073 -6.789e-05 0)
(0.001087 -8.141e-05 0)
(0.001103 -9.528e-05 0)
(0.001122 -0.0001095 0)
(0.001143 -0.0001242 0)
(0.001167 -0.0001394 0)
(0.001194 -0.000155 0)
(0.001224 -0.000171 0)
(0.001256 -0.0001874 0)
(0.001291 -0.0002042 0)
(0.001329 -0.0002211 0)
(0.001371 -0.0002382 0)
(0.001415 -0.0002552 0)
(0.001462 -0.0002719 0)
(0.001512 -0.000288 0)
(0.001565 -0.0003033 0)
(0.001621 -0.0003174 0)
(0.001679 -0.0003299 0)
(0.001739 -0.0003405 0)
(0.001801 -0.0003486 0)
(0.001864 -0.0003538 0)
(0.001928 -0.0003556 0)
(0.001992 -0.0003536 0)
(0.002055 -0.0003473 0)
(0.002117 -0.0003364 0)
(0.002177 -0.0003205 0)
(0.002234 -0.0002996 0)
(0.002286 -0.0002735 0)
(0.002333 -0.0002424 0)
(0.002375 -0.0002067 0)
(0.002409 -0.0001669 0)
(0.002436 -0.0001238 0)
(0.002455 -7.83e-05 0)
(0.002465 -3.149e-05 0)
(0.002466 1.553e-05 0)
(0.002459 6.166e-05 0)
(0.002444 0.0001059 0)
(0.00242 0.0001475 0)
(0.00239 0.0001857 0)
(0.002353 0.0002201 0)
(0.00231 0.0002504 0)
(0.002263 0.0002763 0)
(0.002211 0.0002978 0)
(0.002156 0.000315 0)
(0.002098 0.0003279 0)
(0.002038 0.0003368 0)
(0.001977 0.0003419 0)
(0.001916 0.0003435 0)
(0.001854 0.0003419 0)
(0.001793 0.0003375 0)
(0.001733 0.0003306 0)
(0.001674 0.0003216 0)
(0.001617 0.0003108 0)
(0.001562 0.0002987 0)
(0.001509 0.0002855 0)
(0.001459 0.0002715 0)
(0.001411 0.0002571 0)
(0.001366 0.0002424 0)
(0.001323 0.0002276 0)
(0.001283 0.000213 0)
(0.001246 0.0001986 0)
(0.001211 0.0001847 0)
(0.001178 0.0001712 0)
(0.001148 0.0001583 0)
(0.00112 0.000146 0)
(0.001094 0.0001343 0)
(0.00107 0.0001233 0)
(0.001048 0.0001129 0)
(0.001028 0.0001033 0)
(0.00101 9.425e-05 0)
(0.0009928 8.587e-05 0)
(0.0009774 7.811e-05 0)
(0.0009633 7.093e-05 0)
(0.0009505 6.432e-05 0)
(0.0009389 5.824e-05 0)
(0.0009283 5.265e-05 0)
(0.0009188 4.754e-05 0)
(0.0009101 4.287e-05 0)
(0.0009023 3.861e-05 0)
(0.0008952 3.473e-05 0)
(0.0008888 3.12e-05 0)
(0.000883 2.801e-05 0)
(0.0008778 2.512e-05 0)
(0.0008732 2.251e-05 0)
(0.000869 2.018e-05 0)
(0.0008652 1.808e-05 0)
(0.0008619 1.623e-05 0)
(0.0008588 1.458e-05 0)
(0.0008561 1.315e-05 0)
(0.0008537 1.191e-05 0)
(0.0008515 1.086e-05 0)
(0.0008495 9.996e-06 0)
(0.0008478 9.299e-06 0)
(0.0008462 8.767e-06 0)
(0.0008447 8.386e-06 0)
(0.0008434 8.142e-06 0)
(0.0008421 8.013e-06 0)
(0.000841 7.969e-06 0)
(0.001205 8.441e-05 0)
(0.001221 0.0002188 0)
(0.001245 0.0003152 0)
(0.001269 0.000376 0)
(0.001289 0.0004074 0)
(0.001303 0.0004166 0)
(0.001309 0.0004101 0)
(0.001308 0.0003931 0)
(0.001301 0.0003696 0)
(0.00129 0.0003425 0)
(0.001276 0.0003137 0)
(0.00126 0.0002847 0)
(0.001243 0.0002563 0)
(0.001226 0.000229 0)
(0.001209 0.000203 0)
(0.001192 0.0001785 0)
(0.001177 0.0001555 0)
(0.001164 0.0001338 0)
(0.001152 0.0001135 0)
(0.001141 9.43e-05 0)
(0.001133 7.612e-05 0)
(0.001126 5.881e-05 0)
(0.001121 4.223e-05 0)
(0.001119 2.621e-05 0)
(0.001118 1.063e-05 0)
(0.001119 -4.651e-06 0)
(0.001122 -1.976e-05 0)
(0.001128 -3.482e-05 0)
(0.001135 -4.993e-05 0)
(0.001145 -6.521e-05 0)
(0.001156 -8.075e-05 0)
(0.00117 -9.662e-05 0)
(0.001187 -0.0001129 0)
(0.001206 -0.0001297 0)
(0.001227 -0.0001469 0)
(0.001251 -0.0001647 0)
(0.001278 -0.0001831 0)
(0.001308 -0.0002019 0)
(0.00134 -0.0002212 0)
(0.001376 -0.0002409 0)
(0.001414 -0.0002609 0)
(0.001455 -0.000281 0)
(0.0015 -0.000301 0)
(0.001547 -0.0003207 0)
(0.001597 -0.0003397 0)
(0.001651 -0.0003578 0)
(0.001706 -0.0003745 0)
(0.001765 -0.0003893 0)
(0.001825 -0.0004019 0)
(0.001888 -0.0004116 0)
(0.001952 -0.0004179 0)
(0.002017 -0.0004202 0)
(0.002082 -0.000418 0)
(0.002146 -0.0004108 0)
(0.002209 -0.0003981 0)
(0.00227 -0.0003796 0)
(0.002328 -0.000355 0)
(0.002382 -0.0003243 0)
(0.002431 -0.0002876 0)
(0.002473 -0.0002454 0)
(0.002509 -0.0001982 0)
(0.002536 -0.000147 0)
(0.002556 -9.289e-05 0)
(0.002566 -3.724e-05 0)
(0.002567 1.861e-05 0)
(0.002559 7.334e-05 0)
(0.002543 0.0001258 0)
(0.002519 0.0001749 0)
(0.002488 0.00022 0)
(0.00245 0.0002605 0)
(0.002407 0.0002961 0)
(0.002358 0.0003266 0)
(0.002305 0.0003519 0)
(0.002249 0.0003721 0)
(0.002191 0.0003873 0)
(0.00213 0.0003978 0)
(0.002068 0.0004037 0)
(0.002006 0.0004056 0)
(0.001944 0.0004037 0)
(0.001882 0.0003985 0)
(0.001821 0.0003904 0)
(0.001762 0.0003798 0)
(0.001705 0.0003671 0)