/*--------------------------------*- C++ -*----------------------------------*\
  =========                 |
  \\      /  F ield         | OpenFOAM: The Open Source CFD Toolbox
   \\    /   O peration     | Website:  https://openfoam.org
    \\  /    A nd           | Version:  7
     \\/     M anipulation  |
\*---------------------------------------------------------------------------*/
FoamFile
{
    version     2.0;
    format      ascii;
    class       volScalarField;
    location    "1259.99947341575034";
    object      Y.K;
}
// * * * * * * * * * * * * * * * * * * * * * * * * * * * * * * * * * * * * * //

dimensions      [0 0 0 0 0 0 0];

internalField   nonuniform List<scalar> 
4096
(
8.669e-70
-5.111e-71
1.127e-68
-6.848e-69
-9.308e-70
2.126e-69
-1.12e-69
-7.958e-70
1.872e-70
2.296e-69
-2.662e-68
4.182e-67
-5.879e-66
8.537e-65
-1.122e-63
1.427e-62
-1.714e-61
2.009e-60
-2.259e-59
2.503e-58
-2.649e-57
2.767e-56
-2.859e-55
2.865e-54
-2.731e-53
2.569e-52
-2.236e-51
1.955e-50
-1.679e-49
1.422e-48
-1.183e-47
9.655e-47
-7.586e-46
5.822e-45
-4.291e-44
3.053e-43
-2.04e-42
1.258e-41
-7.108e-41
3.5e-40
-1.383e-39
2.324e-39
2.435e-38
-3.573e-37
3.14e-36
-2.004e-35
1.112e-34
-4.894e-34
1.739e-33
-3.006e-33
-1.257e-32
1.894e-31
-9.93e-31
6.188e-30
-9.378e-30
4.808e-29
3.737e-28
6.45e-28
9.521e-27
3.531e-26
2.992e-25
1.56e-24
3.478e-24
2.551e-23
1.091e-22
8.34e-22
2.519e-21
8.499e-21
1.08e-19
1.52e-18
4.393e-18
9.392e-18
1.784e-17
3.179e-17
5.434e-17
8.996e-17
1.45e-16
2.283e-16
3.517e-16
5.311e-16
7.871e-16
1.146e-15
1.642e-15
2.315e-15
3.216e-15
4.407e-15
5.961e-15
7.965e-15
1.052e-14
1.375e-14
1.779e-14
2.28e-14
2.897e-14
3.652e-14
4.567e-14
5.671e-14
6.995e-14
8.575e-14
1.045e-13
1.267e-13
1.528e-13
1.833e-13
2.191e-13
2.606e-13
3.089e-13
3.646e-13
4.29e-13
5.03e-13
5.879e-13
6.851e-13
7.961e-13
9.226e-13
1.066e-12
1.23e-12
1.415e-12
1.623e-12
1.859e-12
2.125e-12
2.424e-12
2.759e-12
3.134e-12
3.554e-12
4.02e-12
4.536e-12
5.098e-12
5.693e-12
6.278e-12
6.736e-12
2.037e-68
-1.16e-67
1.342e-67
-1.934e-68
-9.872e-68
8.947e-68
-2.349e-69
-5.072e-68
-3.879e-69
1.389e-67
-1.568e-66
2.271e-65
-3.351e-64
4.673e-63
-6.163e-62
7.733e-61
-9.298e-60
1.078e-58
-1.212e-57
1.326e-56
-1.416e-55
1.476e-54
-1.502e-53
1.49e-52
-1.431e-51
1.336e-50
-1.166e-49
1.01e-48
-8.655e-48
7.321e-47
-6.085e-46
4.946e-45
-3.914e-44
3e-43
-2.212e-42
1.557e-41
-1.037e-40
6.447e-40
-3.661e-39
1.817e-38
-7.39e-38
1.578e-37
8.874e-37
-1.577e-35
1.448e-34
-9.319e-34
5.269e-33
-2.364e-32
8.699e-32
-1.745e-31
-3.129e-31
8.001e-30
-4.222e-29
2.944e-28
-3.359e-28
2.724e-27
1.827e-26
4.733e-26
4.799e-25
2.039e-24
1.551e-23
7.38e-23
1.851e-22
1.165e-21
4.763e-21
3.156e-20
9.442e-20
2.529e-19
1.492e-18
4.11e-18
8.718e-18
1.657e-17
2.957e-17
5.054e-17
8.355e-17
1.343e-16
2.106e-16
3.232e-16
4.859e-16
7.168e-16
1.039e-15
1.482e-15
2.082e-15
2.882e-15
3.937e-15
5.312e-15
7.083e-15
9.34e-15
1.219e-14
1.576e-14
2.019e-14
2.566e-14
3.234e-14
4.047e-14
5.029e-14
6.208e-14
7.618e-14
9.296e-14
1.128e-13
1.362e-13
1.637e-13
1.959e-13
2.335e-13
2.771e-13
3.276e-13
3.861e-13
4.534e-13
5.307e-13
6.194e-13
7.209e-13
8.367e-13
9.686e-13
1.118e-12
1.288e-12
1.481e-12
1.698e-12
1.944e-12
2.22e-12
2.53e-12
2.879e-12
3.269e-12
3.705e-12
4.191e-12
4.73e-12
5.324e-12
5.969e-12
6.645e-12
7.283e-12
-4.702e-67
3.276e-66
-8.259e-66
1.117e-65
-7.9e-66
1.34e-66
2.722e-66
-2.465e-66
-1.192e-66
8.025e-66
-8.489e-65
1.201e-63
-1.761e-62
2.44e-61
-3.192e-60
3.971e-59
-4.731e-58
5.437e-57
-6.06e-56
6.578e-55
-6.97e-54
7.218e-53
-7.299e-52
7.195e-51
-6.879e-50
6.383e-49
-5.569e-48
4.821e-47
-4.132e-46
3.493e-45
-2.901e-44
2.356e-43
-1.863e-42
1.426e-41
-1.052e-40
7.412e-40
-4.95e-39
3.094e-38
-1.776e-37
9.048e-37
-3.855e-36
1.089e-35
1.536e-35
-5.82e-34
5.937e-33
-3.919e-32
2.31e-31
-1.076e-30
4.117e-30
-1.032e-29
6.095e-30
2.735e-28
-1.47e-27
1.332e-26
-6.415e-27
1.641e-25
8.518e-25
3.394e-24
2.534e-23
1.162e-22
8.085e-22
3.437e-21
9.401e-21
5.13e-20
1.887e-19
9.631e-19
2.716e-18
5.939e-18
1.176e-17
2.19e-17
3.891e-17
6.65e-17
1.099e-16
1.761e-16
2.746e-16
4.176e-16
6.207e-16
9.033e-16
1.289e-15
1.807e-15
2.493e-15
3.387e-15
4.539e-15
6.007e-15
7.86e-15
1.018e-14
1.306e-14
1.66e-14
2.094e-14
2.623e-14
3.262e-14
4.033e-14
4.957e-14
6.061e-14
7.373e-14
8.928e-14
1.076e-13
1.292e-13
1.545e-13
1.841e-13
2.186e-13
2.586e-13
3.051e-13
3.587e-13
4.206e-13
4.918e-13
5.734e-13
6.67e-13
7.738e-13
8.957e-13
1.034e-12
1.192e-12
1.37e-12
1.572e-12
1.801e-12
2.058e-12
2.347e-12
2.673e-12
3.038e-12
3.447e-12
3.904e-12
4.414e-12
4.982e-12
5.614e-12
6.313e-12
7.083e-12
7.929e-12
8.873e-12
7.709e-66
-6.13e-65
2.167e-64
-4.713e-64
6.707e-64
-6.331e-64
3.665e-64
-7.894e-65
-8.571e-65
4.236e-64
-4.389e-63
5.955e-62
-8.632e-61
1.182e-59
-1.524e-58
1.869e-57
-2.195e-56
2.488e-55
-2.737e-54
2.935e-53
-3.076e-52
3.153e-51
-3.16e-50
3.09e-49
-2.936e-48
2.708e-47
-2.362e-46
2.046e-45
-1.754e-44
1.483e-43
-1.232e-42
1e-41
-7.912e-41
6.064e-40
-4.48e-39
3.169e-38
-2.13e-37
1.346e-36
-7.871e-36
4.16e-35
-1.868e-34
7.027e-34
-7.616e-34
-1.49e-32
1.985e-31
-1.39e-30
8.866e-30
-4.36e-29
1.84e-28
-5.552e-28
1.481e-27
5.841e-27
-3.325e-26
5.466e-25
4.469e-25
9.749e-24
4.849e-23
2.008e-22
1.337e-21
6.343e-21
3.843e-20
1.424e-19
4.032e-19
1.754e-18
5.017e-18
1.133e-17
2.309e-17
4.41e-17
8.006e-17
1.392e-16
2.33e-16
3.766e-16
5.893e-16
8.953e-16
1.323e-15
1.907e-15
2.685e-15
3.701e-15
5.004e-15
6.648e-15
8.694e-15
1.121e-14
1.427e-14
1.797e-14
2.239e-14
2.767e-14
3.392e-14
4.131e-14
5e-14
6.021e-14
7.218e-14
8.616e-14
1.025e-13
1.215e-13
1.436e-13
1.693e-13
1.991e-13
2.335e-13
2.733e-13
3.193e-13
3.722e-13
4.33e-13
5.028e-13
5.827e-13
6.742e-13
7.786e-13
8.977e-13
1.033e-12
1.187e-12
1.362e-12
1.559e-12
1.783e-12
2.035e-12
2.319e-12
2.639e-12
2.998e-12
3.4e-12
3.851e-12
4.355e-12
4.917e-12
5.544e-12
6.241e-12
7.015e-12
7.873e-12
8.821e-12
9.868e-12
1.104e-11
1.25e-11
-1.092e-64
9.432e-64
-4.126e-63
1.2e-62
-2.451e-62
3.645e-62
-3.982e-62
3.107e-62
-1.615e-62
2.058e-62
-2.199e-61
2.768e-60
-3.926e-59
5.259e-58
-6.631e-57
7.943e-56
-9.122e-55
1.012e-53
-1.092e-52
1.151e-51
-1.187e-50
1.199e-49
-1.187e-48
1.149e-47
-1.083e-46
9.921e-46
-8.661e-45
7.511e-44
-6.446e-43
5.454e-42
-4.533e-41
3.687e-40
-2.922e-39
2.246e-38
-1.666e-37
1.187e-36
-8.061e-36
5.174e-35
-3.103e-34
1.709e-33
-8.356e-33
3.534e-32
-9.862e-32
-5.992e-32
4.48e-30
-3.761e-29
2.807e-28
-1.492e-27
7.058e-27
-2.519e-26
1.181e-25
-2.01e-26
7.282e-26
1.919e-23
4.189e-23
5.552e-22
2.63e-21
1.126e-20
6.523e-20
2.922e-19
1.405e-18
4.458e-18
1.124e-17
2.554e-17
5.409e-17
1.08e-16
2.046e-16
3.693e-16
6.377e-16
1.056e-15
1.682e-15
2.585e-15
3.84e-15
5.532e-15
7.746e-15
1.057e-14
1.408e-14
1.837e-14
2.35e-14
2.956e-14
3.662e-14
4.478e-14
5.413e-14
6.48e-14
7.691e-14
9.064e-14
1.062e-13
1.238e-13
1.438e-13
1.664e-13
1.921e-13
2.214e-13
2.546e-13
2.924e-13
3.356e-13
3.847e-13
4.407e-13
5.045e-13
5.771e-13
6.599e-13
7.542e-13
8.614e-13
9.832e-13
1.122e-12
1.278e-12
1.456e-12
1.657e-12
1.885e-12
2.142e-12
2.431e-12
2.757e-12
3.123e-12
3.535e-12
3.996e-12
4.513e-12
5.09e-12
5.735e-12
6.454e-12
7.255e-12
8.144e-12
9.131e-12
1.022e-11
1.143e-11
1.277e-11
1.424e-11
1.585e-11
1.765e-11
2.007e-11
1.42e-63
-1.295e-62
6.567e-62
-2.349e-61
6.177e-61
-1.236e-60
1.917e-60
-2.295e-60
2.034e-60
-2.35e-61
-1.055e-59
1.195e-58
-1.637e-57
2.118e-56
-2.576e-55
2.979e-54
-3.309e-53
3.562e-52
-3.737e-51
3.84e-50
-3.874e-49
3.84e-48
-3.74e-47
3.571e-46
-3.333e-45
3.031e-44
-2.651e-43
2.304e-42
-1.981e-41
1.68e-40
-1.399e-39
1.141e-38
-9.078e-38
7.014e-37
-5.241e-36
3.769e-35
-2.597e-34
1.7e-33
-1.049e-32
6.044e-32
-3.196e-31
1.499e-30
-6.184e-30
1.565e-29
2.687e-30
-4.69e-28
6.26e-27
-3.909e-26
2.121e-25
-8.734e-25
5.257e-24
-6.11e-24
4.972e-23
5.168e-22
3.378e-21
2.905e-20
1.301e-19
5.2e-19
2.511e-18
8.519e-18
2.332e-17
5.758e-17
1.322e-16
2.846e-16
5.774e-16
1.108e-15
2.015e-15
3.486e-15
5.753e-15
9.085e-15
1.377e-14
2.009e-14
2.829e-14
3.858e-14
5.109e-14
6.588e-14
8.293e-14
1.022e-13
1.236e-13
1.47e-13
1.723e-13
1.996e-13
2.289e-13
2.603e-13
2.941e-13
3.305e-13
3.7e-13
4.13e-13
4.601e-13
5.119e-13
5.692e-13
6.329e-13
7.04e-13
7.836e-13
8.729e-13
9.732e-13
1.086e-12
1.214e-12
1.357e-12
1.519e-12
1.702e-12
1.908e-12
2.141e-12
2.403e-12
2.699e-12
3.032e-12
3.406e-12
3.826e-12
4.298e-12
4.827e-12
5.42e-12
6.083e-12
6.823e-12
7.65e-12
8.572e-12
9.598e-12
1.074e-11
1.2e-11
1.341e-11
1.496e-11
1.668e-11
1.857e-11
2.066e-11
2.295e-11
2.546e-11
2.821e-11
3.124e-11
3.553e-11
-1.747e-62
1.65e-61
-9.319e-61
3.897e-60
-1.245e-59
3.124e-59
-6.275e-59
1.011e-58
-1.296e-58
1.392e-58
-5.023e-58
4.742e-57
-6.123e-56
7.506e-55
-8.65e-54
9.502e-53
-1.007e-51
1.038e-50
-1.049e-49
1.042e-48
-1.021e-47
9.876e-47
-9.419e-46
8.846e-45
-8.16e-44
7.367e-43
-6.466e-42
5.638e-41
-4.865e-40
4.141e-39
-3.465e-38
2.84e-37
-2.273e-36
1.77e-35
-1.336e-34
9.733e-34
-6.824e-33
4.565e-32
-2.904e-31
1.746e-30
-9.839e-30
5.134e-29
-2.434e-28
9.942e-28
-4.37e-27
6.07e-27
2.761e-26
-3.479e-25
3.815e-24
-1.712e-23
1.78e-22
-7.052e-23
3.159e-21
2.742e-20
1.834e-19
1.12e-18
4.54e-18
1.494e-17
4.424e-17
1.211e-16
3.085e-16
7.34e-16
1.634e-15
3.411e-15
6.693e-15
1.237e-14
2.161e-14
3.579e-14
5.637e-14
8.472e-14
1.219e-13
1.686e-13
2.247e-13
2.896e-13
3.622e-13
4.408e-13
5.236e-13
6.087e-13
6.95e-13
7.81e-13
8.66e-13
9.5e-13
1.033e-12
1.117e-12
1.201e-12
1.287e-12
1.377e-12
1.471e-12
1.573e-12
1.682e-12
1.802e-12
1.935e-12
2.082e-12
2.246e-12
2.43e-12
2.635e-12
2.867e-12
3.126e-12
3.419e-12
3.747e-12
4.116e-12
4.532e-12
4.998e-12
5.521e-12
6.108e-12
6.766e-12
7.503e-12
8.327e-12
9.249e-12
1.028e-11
1.142e-11
1.27e-11
1.412e-11
1.57e-11
1.746e-11
1.94e-11
2.156e-11
2.394e-11
2.656e-11
2.946e-11
3.265e-11
3.615e-11
4e-11
4.42e-11
4.88e-11
5.382e-11
5.928e-11
6.727e-11
2.056e-61
-1.989e-60
1.218e-59
-5.759e-59
2.151e-58
-6.492e-58
1.609e-57
-3.283e-57
5.391e-57
-6.299e-57
-1.306e-56
1.636e-55
-1.968e-54
2.226e-53
-2.37e-52
2.422e-51
-2.406e-50
2.345e-49
-2.255e-48
2.147e-47
-2.028e-46
1.901e-45
-1.768e-44
1.629e-43
-1.483e-42
1.33e-41
-1.174e-40
1.029e-39
-8.934e-39
7.656e-38
-6.456e-37
5.34e-36
-4.32e-35
3.405e-34
-2.607e-33
1.933e-32
-1.386e-31
9.477e-31
-6.197e-30
3.861e-29
-2.283e-28
1.278e-27
-6.722e-27
3.296e-26
-1.488e-25
5.989e-25
-2.321e-24
5.601e-24
1.032e-23
-1.039e-23
2.914e-21
5.628e-21
1.375e-19
1.107e-18
5.237e-18
1.999e-17
6.839e-17
2.151e-16
6.259e-16
1.689e-15
4.23e-15
9.856e-15
2.139e-14
4.332e-14
8.207e-14
1.459e-13
2.442e-13
3.861e-13
5.789e-13
8.263e-13
1.127e-12
1.474e-12
1.856e-12
2.259e-12
2.664e-12
3.056e-12
3.422e-12
3.751e-12
4.044e-12
4.291e-12
4.5e-12
4.677e-12
4.828e-12
4.96e-12
5.081e-12
5.198e-12
5.317e-12
5.445e-12
5.589e-12
5.752e-12
5.943e-12
6.165e-12
6.423e-12
6.721e-12
7.064e-12
7.459e-12
7.912e-12
8.428e-12
9.015e-12
9.679e-12
1.043e-11
1.128e-11
1.223e-11
1.33e-11
1.45e-11
1.585e-11
1.735e-11
1.902e-11
2.089e-11
2.297e-11
2.528e-11
2.785e-11
3.069e-11
3.385e-11
3.733e-11
4.118e-11
4.543e-11
5.011e-11
5.526e-11
6.092e-11
6.712e-11
7.391e-11
8.133e-11
8.943e-11
9.824e-11
1.078e-10
1.181e-10
1.336e-10
-2.323e-60
2.284e-59
-1.489e-58
7.775e-58
-3.306e-57
1.166e-56
-3.461e-56
8.68e-56
-1.833e-55
3.297e-55
-9.156e-55
4.941e-54
-5.011e-53
5.018e-52
-4.763e-51
4.404e-50
-4.02e-49
3.645e-48
-3.296e-47
2.979e-46
-2.692e-45
2.432e-44
-2.195e-43
1.976e-42
-1.771e-41
1.579e-40
-1.407e-39
1.245e-38
-1.093e-37
9.486e-37
-8.123e-36
6.834e-35
-5.64e-34
4.539e-33
-3.56e-32
2.709e-31
-2.004e-30
1.399e-29
-9.395e-29
5.975e-28
-3.614e-27
2.099e-26
-1.165e-25
6.153e-25
-3.087e-24
1.472e-23
-6.595e-23
2.743e-22
-2.422e-22
7.495e-21
5.966e-20
5.367e-19
3.995e-18
1.977e-17
8.089e-17
2.989e-16
1.015e-15
3.177e-15
9.174e-15
2.445e-14
6.021e-14
1.371e-13
2.894e-13
5.672e-13
1.035e-12
1.764e-12
2.821e-12
4.249e-12
6.051e-12
8.184e-12
1.056e-11
1.304e-11
1.55e-11
1.777e-11
1.974e-11
2.133e-11
2.249e-11
2.323e-11
2.371e-11
2.37e-11
2.355e-11
2.324e-11
2.28e-11
2.23e-11
2.179e-11
2.13e-11
2.086e-11
2.05e-11
2.024e-11
2.005e-11
2.003e-11
2.01e-11
2.029e-11
2.061e-11
2.108e-11
2.17e-11
2.246e-11
2.339e-11
2.449e-11
2.578e-11
2.727e-11
2.898e-11
3.092e-11
3.312e-11
3.56e-11
3.838e-11
4.15e-11
4.498e-11
4.886e-11
5.317e-11
5.795e-11
6.325e-11
6.912e-11
7.559e-11
8.274e-11
9.061e-11
9.926e-11
1.088e-10
1.192e-10
1.306e-10
1.431e-10
1.567e-10
1.715e-10
1.876e-10
2.051e-10
2.24e-10
2.442e-10
2.751e-10
2.513e-59
-2.497e-58
1.709e-57
-9.689e-57
4.601e-56
-1.858e-55
6.458e-55
-1.937e-54
4.924e-54
-9.845e-54
-7.411e-55
8.972e-53
-8.423e-52
6.867e-51
-5.461e-50
4.435e-49
-3.658e-48
3.051e-47
-2.566e-46
2.18e-45
-1.868e-44
1.612e-43
-1.399e-42
1.218e-41
-1.063e-40
9.288e-40
-8.116e-39
7.052e-38
-6.108e-37
5.26e-36
-4.513e-35
3.815e-34
-3.204e-33
2.602e-32
-2.066e-31
1.592e-30
-1.189e-29
8.49e-29
-5.938e-28
3.952e-27
-2.563e-26
1.588e-25
-9.416e-25
5.287e-24
-2.85e-23
1.451e-22
-6.693e-22
1.821e-21
2.373e-20
2.767e-19
2.464e-18
1.426e-17
6.901e-17
3.026e-16
1.218e-15
4.508e-15
1.532e-14
4.779e-14
1.368e-13
3.597e-13
8.686e-13
1.93e-12
3.95e-12
7.469e-12
1.308e-11
2.132e-11
3.249e-11
4.647e-11
6.27e-11
8.018e-11
9.77e-11
1.137e-10
1.275e-10
1.374e-10
1.436e-10
1.46e-10
1.449e-10
1.415e-10
1.363e-10
1.295e-10
1.22e-10
1.143e-10
1.066e-10
9.944e-11
9.281e-11
8.687e-11
8.164e-11
7.715e-11
7.337e-11
7.026e-11
6.78e-11
6.594e-11
6.467e-11
6.383e-11
6.374e-11
6.402e-11
6.475e-11
6.599e-11
6.773e-11
6.997e-11
7.272e-11
7.601e-11
7.987e-11
8.432e-11
8.941e-11
9.518e-11
1.017e-10
1.09e-10
1.171e-10
1.262e-10
1.363e-10
1.474e-10
1.597e-10
1.733e-10
1.883e-10
2.047e-10
2.227e-10
2.425e-10
2.641e-10
2.876e-10
3.133e-10
3.413e-10
3.716e-10
4.045e-10
4.401e-10
4.786e-10
5.192e-10
5.822e-10
-2.58e-58
2.577e-57
-1.835e-56
1.114e-55
-5.822e-55
2.65e-54
-1.063e-53
3.789e-53
-1.201e-52
3.358e-52
-8.121e-52
1.654e-51
-3.183e-51
1.267e-50
-1.055e-49
9.57e-49
-7.599e-48
5.891e-47
-4.249e-46
3.373e-45
-2.792e-44
2.387e-43
-2.003e-42
1.618e-41
-1.207e-40
8.078e-40
-5.26e-39
1.226e-38
9.142e-38
-1.628e-36
1.878e-35
-1.896e-34
1.466e-33
-1.315e-32
7.691e-32
-3.974e-31
1.147e-30
8.51e-30
-1.825e-28
2.202e-27
-2.069e-26
1.712e-25
-1.313e-24
8.999e-24
-5.901e-23
4.189e-22
-1e-21
8.244e-20
9.815e-19
6.817e-18
3.957e-17
2.085e-16
1.009e-15
4.482e-15
1.824e-14
6.79e-14
2.31e-13
7.172e-13
2.033e-12
5.258e-12
1.242e-11
2.684e-11
5.314e-11
9.662e-11
1.619e-10
2.515e-10
3.638e-10
4.929e-10
6.283e-10
7.586e-10
8.717e-10
9.538e-10
1.01e-09
1.015e-09
9.983e-10
9.598e-10
9.024e-10
8.333e-10
7.586e-10
6.836e-10
6.116e-10
5.451e-10
4.852e-10
4.324e-10
3.866e-10
3.473e-10
3.14e-10
2.861e-10
2.628e-10
2.436e-10
2.28e-10
2.154e-10
2.055e-10
1.98e-10
1.926e-10
1.892e-10
1.872e-10
1.874e-10
1.888e-10
1.916e-10
1.959e-10
2.016e-10
2.088e-10
2.175e-10
2.277e-10
2.395e-10
2.53e-10
2.683e-10
2.855e-10
3.047e-10
3.261e-10
3.498e-10
3.76e-10
4.049e-10
4.367e-10
4.716e-10
5.097e-10
5.515e-10
5.97e-10
6.466e-10
7.004e-10
7.589e-10
8.222e-10
8.906e-10
9.644e-10
1.044e-09
1.127e-09
1.258e-09
2.474e-57
-2.477e-56
1.819e-55
-1.171e-54
6.644e-54
-3.359e-53
1.529e-52
-6.31e-52
2.368e-51
-8.033e-51
2.405e-50
-5.915e-50
8.763e-50
1.301e-49
-1.545e-48
5.819e-48
2.353e-47
-7.78e-46
6.296e-45
-4.725e-44
2.889e-43
-1.147e-42
-2.123e-42
1.13e-40
-1.648e-39
1.8e-38
-1.627e-37
1.318e-36
-9.624e-36
7.872e-35
-4.113e-34
1.894e-33
-3.534e-33
-6.224e-32
1.149e-30
-1.34e-29
1.305e-28
-1.14e-27
9.191e-27
-6.925e-26
4.933e-25
-3.327e-24
2.12e-23
-1.286e-22
8.069e-22
-2.616e-21
1.455e-19
1.891e-18
1.441e-17
9.289e-17
5.449e-16
2.933e-15
1.447e-14
6.52e-14
2.68e-13
1.002e-12
3.407e-12
1.051e-11
2.943e-11
7.473e-11
1.723e-10
3.609e-10
6.884e-10
1.199e-09
1.915e-09
2.824e-09
3.866e-09
4.948e-09
5.943e-09
6.777e-09
7.315e-09
7.508e-09
7.394e-09
7.078e-09
6.582e-09
5.969e-09
5.303e-09
4.635e-09
4.002e-09
3.428e-09
2.921e-09
2.485e-09
2.116e-09
1.808e-09
1.553e-09
1.344e-09
1.173e-09
1.033e-09
9.193e-10
8.272e-10
7.527e-10
6.927e-10
6.448e-10
6.07e-10
5.778e-10
5.559e-10
5.401e-10
5.303e-10
5.245e-10
5.253e-10
5.291e-10
5.369e-10
5.487e-10
5.644e-10
5.84e-10
6.075e-10
6.351e-10
6.668e-10
7.03e-10
7.437e-10
7.893e-10
8.4e-10
8.961e-10
9.581e-10
1.026e-09
1.101e-09
1.183e-09
1.272e-09
1.369e-09
1.475e-09
1.589e-09
1.713e-09
1.847e-09
1.991e-09
2.147e-09
2.314e-09
2.488e-09
2.762e-09
-2.17e-56
2.168e-55
-1.632e-54
1.104e-53
-6.73e-53
3.736e-52
-1.906e-51
9.009e-51
-3.969e-50
1.633e-49
-6.225e-49
2.14e-48
-6.085e-48
1.354e-48
9.906e-47
-1.037e-45
9.023e-45
-7.074e-44
5.27e-43
-3.813e-42
2.696e-41
-1.862e-40
1.25e-39
-8.044e-39
4.776e-38
-2.54e-37
1.037e-36
-6.45e-37
-5.123e-35
8.117e-34
-9.2e-33
9.041e-32
-8.149e-31
6.896e-30
-5.544e-29
4.261e-28
-3.141e-27
2.225e-26
-1.516e-25
9.954e-25
-6.255e-24
3.801e-23
-2.193e-22
1.305e-21
-4.847e-21
2.142e-19
3.056e-18
2.565e-17
1.839e-16
1.204e-15
7.236e-15
3.982e-14
1.999e-13
9.133e-13
3.785e-12
1.42e-11
4.812e-11
1.472e-10
4.059e-10
1.009e-09
2.262e-09
4.577e-09
8.377e-09
1.391e-08
2.109e-08
2.94e-08
3.799e-08
4.58e-08
5.177e-08
5.591e-08
5.567e-08
5.393e-08
5.04e-08
4.555e-08
4e-08
3.431e-08
2.889e-08
2.398e-08
1.97e-08
1.609e-08
1.311e-08
1.069e-08
8.739e-09
7.186e-09
5.954e-09
4.979e-09
4.207e-09
3.596e-09
3.112e-09
2.726e-09
2.42e-09
2.175e-09
1.981e-09
1.827e-09
1.706e-09
1.612e-09
1.54e-09
1.487e-09
1.451e-09
1.429e-09
1.421e-09
1.426e-09
1.44e-09
1.464e-09
1.499e-09
1.544e-09
1.599e-09
1.664e-09
1.739e-09
1.825e-09
1.922e-09
2.031e-09
2.151e-09
2.285e-09
2.432e-09
2.593e-09
2.769e-09
2.961e-09
3.17e-09
3.397e-09
3.643e-09
3.908e-09
4.194e-09
4.501e-09
4.831e-09
5.186e-09
5.552e-09
6.134e-09
1.682e-55
-1.672e-54
1.282e-53
-9.026e-53
5.851e-52
-3.52e-51
1.983e-50
-1.055e-49
5.351e-49
-2.607e-48
1.23e-47
-5.669e-47
2.579e-46
-1.179e-45
5.546e-45
-2.773e-44
1.513e-43
-9.043e-43
5.818e-42
-3.941e-41
2.765e-40
-2.008e-39
1.518e-38
-1.206e-37
1.014e-36
-8.518e-36
7.091e-35
-5.812e-34
4.673e-33
-3.679e-32
2.833e-31
-2.131e-30
1.566e-29
-1.123e-28
7.856e-28
-5.353e-27
3.551e-26
-2.29e-25
1.436e-24
-8.701e-24
5.177e-23
-2.917e-22
1.703e-21
-6.718e-21
2.59e-19
4.064e-18
3.759e-17
3.001e-16
2.196e-15
1.477e-14
9.099e-14
5.111e-13
2.608e-12
1.205e-11
5.022e-11
1.885e-10
6.353e-10
1.921e-09
5.201e-09
1.261e-08
2.737e-08
5.325e-08
9.307e-08
1.467e-07
2.1e-07
2.758e-07
3.355e-07
3.802e-07
4.067e-07
4.019e-07
3.834e-07
3.511e-07
3.097e-07
2.646e-07
2.201e-07
1.793e-07
1.436e-07
1.137e-07
8.93e-08
6.988e-08
5.467e-08
4.288e-08
3.382e-08
2.688e-08
2.158e-08
1.751e-08
1.439e-08
1.198e-08
1.011e-08
8.659e-09
7.522e-09
6.627e-09
5.923e-09
5.366e-09
4.927e-09
4.583e-09
4.315e-09
4.11e-09
3.959e-09
3.851e-09
3.784e-09
3.747e-09
3.753e-09
3.781e-09
3.834e-09
3.914e-09
4.019e-09
4.148e-09
4.303e-09
4.483e-09
4.688e-09
4.92e-09
5.179e-09
5.467e-09
5.784e-09
6.133e-09
6.514e-09
6.93e-09
7.382e-09
7.871e-09
8.401e-09
8.972e-09
9.587e-09
1.025e-08
1.095e-08
1.171e-08
1.249e-08
1.373e-08
-1.102e-54
1.088e-53
-8.438e-53
6.132e-52
-4.173e-51
2.677e-50
-1.631e-49
9.516e-49
-5.36e-48
2.936e-47
-1.573e-46
8.273e-46
-4.278e-45
2.173e-44
-1.083e-43
5.306e-43
-2.573e-42
1.271e-41
-6.788e-41
4.164e-40
-3.042e-39
2.511e-38
-2.204e-37
1.947e-36
-1.708e-35
1.383e-34
-1.077e-33
8.141e-33
-6.007e-32
4.337e-31
-3.069e-30
2.13e-29
-1.45e-28
9.684e-28
-6.338e-27
4.062e-26
-2.548e-25
1.562e-24
-9.338e-24
5.487e-23
-3.023e-22
1.759e-21
-7.143e-21
2.536e-19
4.374e-18
4.457e-17
3.96e-16
3.239e-15
2.439e-14
1.684e-13
1.061e-12
6.068e-12
3.137e-11
1.461e-10
6.107e-10
2.285e-09
7.63e-09
2.27e-08
6.01e-08
1.414e-07
2.956e-07
5.496e-07
9.121e-07
1.357e-06
1.827e-06
2.256e-06
2.581e-06
2.759e-06
2.714e-06
2.564e-06
2.315e-06
2.005e-06
1.677e-06
1.361e-06
1.078e-06
8.384e-07
6.426e-07
4.878e-07
3.683e-07
2.777e-07
2.097e-07
1.591e-07
1.217e-07
9.394e-08
7.338e-08
5.806e-08
4.659e-08
3.794e-08
3.138e-08
2.636e-08
2.249e-08
1.948e-08
1.714e-08
1.53e-08
1.386e-08
1.272e-08
1.183e-08
1.114e-08
1.061e-08
1.022e-08
9.94e-09
9.764e-09
9.658e-09
9.669e-09
9.73e-09
9.856e-09
1.004e-08
1.03e-08
1.061e-08
1.098e-08
1.141e-08
1.19e-08
1.246e-08
1.308e-08
1.376e-08
1.452e-08
1.535e-08
1.625e-08
1.723e-08
1.829e-08
1.943e-08
2.067e-08
2.199e-08
2.341e-08
2.493e-08
2.656e-08
2.822e-08
3.088e-08
5.837e-54
-5.712e-53
4.466e-52
-3.32e-51
2.341e-50
-1.574e-49
1.015e-48
-6.337e-48
3.866e-47
-2.332e-46
1.406e-45
-8.561e-45
5.3e-44
-3.343e-43
2.144e-42
-1.393e-41
9.12e-41
-5.976e-40
3.88e-39
-2.537e-38
1.651e-37
-1.078e-36
6.988e-36
-4.511e-35
2.937e-34
-1.911e-33
1.243e-32
-8.076e-32
5.233e-31
-3.378e-30
2.168e-29
-1.381e-28
8.714e-28
-5.44e-27
3.354e-26
-2.039e-25
1.219e-24
-7.163e-24
4.141e-23
-2.29e-22
1.42e-21
-5.906e-21
1.987e-19
3.763e-18
4.216e-17
4.161e-16
3.795e-15
3.196e-14
2.472e-13
1.747e-12
1.122e-11
6.507e-11
3.396e-10
1.587e-09
6.617e-09
2.454e-08
8.072e-08
2.349e-07
6.038e-07
1.369e-06
2.735e-06
4.826e-06
7.563e-06
1.057e-05
1.336e-05
1.553e-05
1.677e-05
1.65e-05
1.553e-05
1.392e-05
1.193e-05
9.84e-06
7.853e-06
6.1e-06
4.636e-06
3.466e-06
2.56e-06
1.876e-06
1.371e-06
1.002e-06
7.347e-07
5.426e-07
4.045e-07
3.05e-07
2.33e-07
1.806e-07
1.422e-07
1.138e-07
9.256e-08
7.656e-08
6.439e-08
5.505e-08
4.782e-08
4.219e-08
3.779e-08
3.433e-08
3.162e-08
2.95e-08
2.785e-08
2.66e-08
2.567e-08
2.502e-08
2.461e-08
2.437e-08
2.441e-08
2.457e-08
2.489e-08
2.536e-08
2.597e-08
2.673e-08
2.763e-08
2.868e-08
2.986e-08
3.119e-08
3.267e-08
3.43e-08
3.609e-08
3.805e-08
4.017e-08
4.247e-08
4.495e-08
4.762e-08
5.048e-08
5.355e-08
5.682e-08
6.032e-08
6.387e-08
6.958e-08
-2.402e-53
2.359e-52
-1.859e-51
1.404e-50
-1.012e-49
6.97e-49
-4.577e-48
2.863e-47
-1.7e-46
9.54e-46
-5.007e-45
2.408e-44
-1.013e-43
3.218e-43
-1.644e-43
-9.481e-42
1.168e-40
-9.509e-40
6.926e-39
-4.557e-38
2.701e-37
-1.582e-36
9.008e-36
-2.094e-35
-5.959e-35
1.534e-33
-1.69e-32
1.504e-31
-1.208e-30
9.095e-30
-6.547e-29
4.551e-28
-3.072e-27
2.022e-26
-1.3e-25
8.175e-25
-5.032e-24
3.035e-23
-1.78e-22
1.076e-21
-3.929e-21
1.216e-19
2.556e-18
3.15e-17
3.441e-16
3.488e-15
3.275e-14
2.832e-13
2.242e-12
1.615e-11
1.052e-10
6.156e-10
3.222e-09
1.501e-08
6.197e-08
2.259e-07
7.249e-07
2.043e-06
5.044e-06
1.09e-05
2.061e-05
3.427e-05
5.049e-05
6.611e-05
7.87e-05
8.71e-05
8.607e-05
8.142e-05
7.313e-05
6.26e-05
5.14e-05
4.073e-05
3.132e-05
2.351e-05
1.73e-05
1.254e-05
9.002e-06
6.422e-06
4.573e-06
3.263e-06
2.34e-06
1.692e-06
1.237e-06
9.162e-07
6.884e-07
5.255e-07
4.078e-07
3.22e-07
2.588e-07
2.116e-07
1.761e-07
1.491e-07
1.283e-07
1.123e-07
9.972e-08
8.991e-08
8.22e-08
7.614e-08
7.142e-08
6.777e-08
6.5e-08
6.297e-08
6.158e-08
6.073e-08
6.033e-08
6.049e-08
6.097e-08
6.181e-08
6.301e-08
6.454e-08
6.641e-08
6.861e-08
7.113e-08
7.398e-08
7.717e-08
8.069e-08
8.456e-08
8.879e-08
9.339e-08
9.837e-08
1.037e-07
1.095e-07
1.157e-07
1.223e-07
1.294e-07
1.369e-07
1.445e-07
1.568e-07
9.91e-53
-8.84e-52
6.697e-51
-5.164e-50
4.003e-49
-3.092e-48
2.362e-47
-1.773e-46
1.304e-45
-9.382e-45
6.604e-44
-4.556e-43
3.085e-42
-2.056e-41
1.352e-40
-8.78e-40
5.649e-39
-3.605e-38
2.286e-37
-1.442e-36
9.05e-36
-5.659e-35
3.526e-34
-2.189e-33
1.352e-32
-8.299e-32
5.06e-31
-3.064e-30
1.843e-29
-1.1e-28
6.521e-28
-3.835e-27
2.237e-26
-1.294e-25
7.415e-25
-4.21e-24
2.367e-23
-1.313e-22
7.41e-22
-3.237e-21
4.267e-20
1.319e-18
1.841e-17
2.225e-16
2.495e-15
2.601e-14
2.505e-13
2.216e-12
1.787e-11
1.305e-10
8.564e-10
5.023e-09
2.616e-08
1.203e-07
4.863e-07
1.721e-06
5.314e-06
1.428e-05
3.337e-05
6.769e-05
0.0001199
0.0001865
0.0002577
0.0003161
0.0003653
0.0003651
0.0003506
0.000319
0.0002758
0.0002282
0.0001818
0.0001402
0.0001052
7.721e-05
5.562e-05
3.952e-05
2.782e-05
1.949e-05
1.364e-05
9.57e-06
6.759e-06
4.818e-06
3.476e-06
2.543e-06
1.889e-06
1.427e-06
1.097e-06
8.589e-07
6.847e-07
5.558e-07
4.594e-07
3.864e-07
3.307e-07
2.876e-07
2.541e-07
2.28e-07
2.074e-07
1.912e-07
1.785e-07
1.687e-07
1.611e-07
1.554e-07
1.513e-07
1.487e-07
1.468e-07
1.468e-07
1.474e-07
1.489e-07
1.511e-07
1.542e-07
1.581e-07
1.627e-07
1.68e-07
1.741e-07
1.81e-07
1.886e-07
1.97e-07
2.061e-07
2.161e-07
2.268e-07
2.384e-07
2.509e-07
2.642e-07
2.785e-07
2.937e-07
3.098e-07
3.261e-07
3.525e-07
4.104e-52
-4.042e-51
3.232e-50
-2.502e-49
1.867e-48
-1.344e-47
9.347e-47
-6.291e-46
4.106e-45
-2.607e-44
1.614e-43
-9.789e-43
5.838e-42
-3.442e-41
2.017e-40
-1.182e-39
6.98e-39
-4.177e-38
2.547e-37
-1.587e-36
1.012e-35
-6.59e-35
4.368e-34
-2.937e-33
1.98e-32
-1.321e-31
8.708e-31
-5.674e-30
3.659e-29
-2.336e-28
1.477e-27
-9.26e-27
5.753e-26
-3.544e-25
2.164e-24
-1.31e-23
7.871e-23
-4.658e-22
2.871e-21
-1.071e-20
3.451e-19
8.106e-18
1.121e-16
1.386e-15
1.595e-14
1.703e-13
1.676e-12
1.509e-11
1.232e-10
9.064e-10
5.955e-09
3.469e-08
1.779e-07
7.977e-07
3.112e-06
1.052e-05
3.068e-05
7.717e-05
0.0001673
0.0003137
0.0005155
0.0007482
0.0009673
0.001134
0.00121
0.00118
0.001096
0.0009689
0.0008191
0.000666
0.0005233
0.000399
0.0002964
0.0002154
0.0001537
0.0001082
7.547e-05
5.237e-05
3.631e-05
2.526e-05
1.769e-05
1.252e-05
8.964e-06
6.515e-06
4.812e-06
3.616e-06
2.767e-06
2.157e-06
1.713e-06
1.386e-06
1.142e-06
9.578e-07
8.173e-07
7.091e-07
6.25e-07
5.592e-07
5.075e-07
4.667e-07
4.347e-07
4.096e-07
3.901e-07
3.753e-07
3.645e-07
3.57e-07
3.524e-07
3.502e-07
3.51e-07
3.535e-07
3.579e-07
3.641e-07
3.721e-07
3.818e-07
3.932e-07
4.062e-07
4.209e-07
4.373e-07
4.553e-07
4.751e-07
4.966e-07
5.198e-07
5.448e-07
5.717e-07
6.005e-07
6.311e-07
6.636e-07
6.983e-07
7.332e-07
7.895e-07
-1.321e-51
1.211e-50
-9.294e-50
7.144e-49
-5.448e-48
4.108e-47
-3.055e-46
2.235e-45
-1.606e-44
1.133e-43
-7.845e-43
5.337e-42
-3.571e-41
2.352e-40
-1.528e-39
9.8e-39
-6.217e-38
3.905e-37
-2.432e-36
1.504e-35
-9.236e-35
5.641e-34
-3.427e-33
2.072e-32
-1.246e-31
7.452e-31
-4.433e-30
2.625e-29
-1.548e-28
9.09e-28
-5.319e-27
3.102e-26
-1.803e-25
1.045e-24
-6.041e-24
3.485e-23
-2e-22
1.179e-21
-5.284e-21
8.903e-20
2.889e-18
4.43e-17
5.993e-16
7.567e-15
8.905e-14
9.702e-13
9.709e-12
8.849e-11
7.281e-10
5.358e-09
3.495e-08
2.002e-07
9.989e-07
4.307e-06
1.595e-05
5.048e-05
0.0001362
0.0003139
0.0006201
0.001064
0.001615
0.002195
0.002656
0.00297
0.002954
0.00283
0.002587
0.002267
0.001912
0.001557
0.001227
0.0009399
0.0007012
0.0005114
0.000366
0.000258
0.00018
0.0001249
8.65e-05
6.009e-05
4.203e-05
2.969e-05
2.125e-05
1.543e-05
1.139e-05
8.557e-06
6.548e-06
5.105e-06
4.055e-06
3.282e-06
2.706e-06
2.27e-06
1.938e-06
1.682e-06
1.482e-06
1.326e-06
1.204e-06
1.106e-06
1.03e-06
9.697e-07
9.228e-07
8.869e-07
8.603e-07
8.413e-07
8.296e-07
8.22e-07
8.229e-07
8.272e-07
8.357e-07
8.484e-07
8.651e-07
8.857e-07
9.1e-07
9.379e-07
9.695e-07
1.005e-06
1.044e-06
1.086e-06
1.132e-06
1.183e-06
1.236e-06
1.294e-06
1.356e-06
1.422e-06
1.491e-06
1.565e-06
1.639e-06
1.759e-06
-2.892e-51
2.833e-50
-2.277e-49
1.788e-48
-1.364e-47
1.011e-46
-7.287e-46
5.112e-45
-3.496e-44
2.337e-43
-1.531e-42
9.852e-42
-6.249e-41
3.918e-40
-2.436e-39
1.505e-38
-9.275e-38
5.71e-37
-3.519e-36
2.174e-35
-1.348e-34
8.398e-34
-5.257e-33
3.31e-32
-2.081e-31
1.302e-30
-8.107e-30
5.023e-29
-3.1e-28
1.907e-27
-1.169e-26
7.157e-26
-4.373e-25
2.669e-24
-1.628e-23
9.935e-23
-6.032e-22
3.855e-21
-1.473e-20
5.134e-19
1.327e-17
2.026e-16
2.793e-15
3.6e-14
4.318e-13
4.78e-12
4.844e-11
4.448e-10
3.666e-09
2.682e-08
1.722e-07
9.608e-07
4.607e-06
1.882e-05
6.496e-05
0.0001888
0.0004619
0.0009574
0.001704
0.002695
0.003765
0.004918
0.005506
0.005615
0.005476
0.00519
0.004772
0.004232
0.003611
0.002984
0.002391
0.001861
0.001411
0.001044
0.0007569
0.0005394
0.0003798
0.0002654
0.0001851
0.0001293
9.089e-05
6.452e-05
4.638e-05
3.383e-05
2.509e-05
1.894e-05
1.456e-05
1.14e-05
9.094e-06
7.39e-06
6.115e-06
5.15e-06
4.411e-06
3.839e-06
3.393e-06
3.043e-06
2.767e-06
2.548e-06
2.375e-06
2.239e-06
2.132e-06
2.05e-06
1.988e-06
1.944e-06
1.917e-06
1.897e-06
1.898e-06
1.906e-06
1.924e-06
1.95e-06
1.986e-06
2.03e-06
2.082e-06
2.142e-06
2.21e-06
2.286e-06
2.37e-06
2.461e-06
2.561e-06
2.668e-06
2.784e-06
2.907e-06
3.039e-06
3.179e-06
3.327e-06
3.485e-06
3.641e-06
3.895e-06
6.431e-51
-5.969e-50
4.624e-49
-3.569e-48
2.723e-47
-2.048e-46
1.516e-45
-1.102e-44
7.874e-44
-5.522e-43
3.802e-42
-2.572e-41
1.711e-40
-1.121e-39
7.233e-39
-4.607e-38
2.9e-37
-1.806e-36
1.114e-35
-6.815e-35
4.141e-34
-2.5e-33
1.502e-32
-8.987e-32
5.345e-31
-3.165e-30
1.868e-29
-1.1e-28
6.468e-28
-3.8e-27
2.233e-26
-1.314e-25
7.745e-25
-4.579e-24
2.719e-23
-1.617e-22
9.985e-22
-4.553e-21
9.636e-20
3.254e-18
5.425e-17
8.1e-16
1.135e-14
1.489e-13
1.813e-12
2.033e-11
2.077e-10
1.914e-09
1.572e-08
1.137e-07
7.136e-07
3.84e-06
1.749e-05
6.669e-05
0.0002112
0.0005537
0.001209
0.002233
0.003592
0.005437
0.006858
0.009574
0.01039
0.01036
0.01037
0.01025
0.008937
0.006935
0.005788
0.004882
0.003998
0.003184
0.002468
0.001865
0.001378
0.0009997
0.0007149
0.0005067
0.0003577
0.0002529
0.0001797
0.0001289
9.359e-05
6.894e-05
5.161e-05
3.93e-05
3.047e-05
2.406e-05
1.935e-05
1.585e-05
1.321e-05
1.12e-05
9.648e-06
8.445e-06
7.503e-06
6.76e-06
6.171e-06
5.704e-06
5.333e-06
5.04e-06
4.81e-06
4.633e-06
4.501e-06
4.405e-06
4.346e-06
4.304e-06
4.307e-06
4.325e-06
4.362e-06
4.42e-06
4.497e-06
4.593e-06
4.706e-06
4.836e-06
4.983e-06
5.146e-06
5.326e-06
5.523e-06
5.736e-06
5.966e-06
6.212e-06
6.475e-06
6.754e-06
7.05e-06
7.361e-06
7.691e-06
8.018e-06
8.545e-06
9.398e-51
-9.184e-50
7.408e-49
-5.872e-48
4.544e-47
-3.431e-46
2.527e-45
-1.816e-44
1.275e-43
-8.759e-43
5.897e-42
-3.898e-41
2.536e-40
-1.628e-39
1.032e-38
-6.485e-38
4.044e-37
-2.507e-36
1.548e-35
-9.538e-35
5.87e-34
-3.613e-33
2.226e-32
-1.375e-31
8.483e-31
-5.213e-30
3.193e-29
-1.952e-28
1.193e-27
-7.289e-27
4.461e-26
-2.737e-25
1.686e-24
-1.044e-23
6.506e-23
-4.064e-22
2.7e-21
-1.039e-20
3.977e-19
1.12e-17
1.862e-16
2.823e-15
4.021e-14
5.351e-13
6.599e-12
7.468e-11
7.673e-10
7.071e-09
5.765e-08
4.098e-07
2.5e-06
1.287e-05
5.514e-05
0.0001939
0.0005556
0.0013
0.002515
0.004151
0.006197
0.009787
0.01018
0.01049
0.01085
0.01077
0.01233
0.01283
0.01014
0.01029
0.01007
0.007542
0.006023
0.00489
0.003872
0.002988
0.002254
0.001667
0.001215
0.000877
0.0006299
0.0004526
0.0003268
0.000238
0.0001754
0.000131
9.945e-05
7.675e-05
6.027e-05
4.818e-05
3.919e-05
3.244e-05
2.731e-05
2.338e-05
2.032e-05
1.793e-05
1.605e-05
1.456e-05
1.337e-05
1.242e-05
1.167e-05
1.107e-05
1.061e-05
1.025e-05
9.983e-06
9.794e-06
9.676e-06
9.604e-06