/*--------------------------------*- C++ -*----------------------------------*\
  =========                 |
  \\      /  F ield         | OpenFOAM: The Open Source CFD Toolbox
   \\    /   O peration     | Website:  https://openfoam.org
    \\  /    A nd           | Version:  7
     \\/     M anipulation  |
\*---------------------------------------------------------------------------*/
FoamFile
{
    version     2.0;
    format      ascii;
    class       volScalarField;
    location    "299.999473411257384";
    object      p;
}
// * * * * * * * * * * * * * * * * * * * * * * * * * * * * * * * * * * * * * //

dimensions      [0 2 -2 0 0 0 0];

internalField   nonuniform List<scalar> 
4096
(
0.0006771
0.0005062
0.0004219
0.0003798
0.0003564
0.0003425
0.0003336
0.0003276
0.0003232
0.00032
0.0003174
0.0003154
0.0003138
0.0003124
0.0003113
0.0003103
0.0003094
0.0003086
0.0003079
0.0003072
0.0003066
0.000306
0.0003055
0.000305
0.0003044
0.0003039
0.0003034
0.0003029
0.0003024
0.0003019
0.0003013
0.0003007
0.0003001
0.0002994
0.0002987
0.0002979
0.0002971
0.0002961
0.000295
0.0002938
0.0002924
0.0002908
0.000289
0.000287
0.0002847
0.0002821
0.0002792
0.0002759
0.0002722
0.0002681
0.0002635
0.0002585
0.0002529
0.0002469
0.0002404
0.0002333
0.0002257
0.0002177
0.0002093
0.0002004
0.0001912
0.0001818
0.0001721
0.0001624
0.0001526
0.0001429
0.0001333
0.0001239
0.0001149
0.0001062
9.784e-05
8.996e-05
8.254e-05
7.56e-05
6.915e-05
6.319e-05
5.772e-05
5.273e-05
4.82e-05
4.41e-05
4.042e-05
3.712e-05
3.418e-05
3.156e-05
2.924e-05
2.719e-05
2.537e-05
2.376e-05
2.234e-05
2.107e-05
1.995e-05
1.894e-05
1.804e-05
1.722e-05
1.647e-05
1.579e-05
1.515e-05
1.455e-05
1.399e-05
1.345e-05
1.294e-05
1.243e-05
1.195e-05
1.147e-05
1.099e-05
1.052e-05
1.006e-05
9.59e-06
9.124e-06
8.657e-06
8.188e-06
7.717e-06
7.243e-06
6.766e-06
6.286e-06
5.802e-06
5.314e-06
4.822e-06
4.326e-06
3.826e-06
3.323e-06
2.817e-06
2.309e-06
1.802e-06
1.301e-06
8.135e-07
3.573e-07
3.47e-08
0.0005326
0.0004688
0.000419
0.000387
0.0003661
0.0003518
0.0003418
0.0003345
0.000329
0.0003248
0.0003215
0.0003188
0.0003166
0.0003148
0.0003133
0.000312
0.0003108
0.0003098
0.0003088
0.000308
0.0003072
0.0003064
0.0003057
0.0003051
0.0003044
0.0003038
0.0003031
0.0003025
0.0003018
0.0003011
0.0003004
0.0002997
0.0002989
0.0002981
0.0002972
0.0002963
0.0002952
0.0002941
0.0002928
0.0002914
0.0002899
0.0002881
0.0002862
0.000284
0.0002815
0.0002788
0.0002757
0.0002723
0.0002685
0.0002644
0.0002598
0.0002547
0.0002493
0.0002433
0.0002369
0.00023
0.0002227
0.000215
0.0002069
0.0001984
0.0001896
0.0001806
0.0001714
0.0001622
0.0001529
0.0001436
0.0001345
0.0001256
0.0001169
0.0001086
0.0001006
9.294e-05
8.575e-05
7.9e-05
7.269e-05
6.682e-05
6.141e-05
5.643e-05
5.188e-05
4.773e-05
4.397e-05
4.057e-05
3.751e-05
3.476e-05
3.229e-05
3.009e-05
2.811e-05
2.634e-05
2.476e-05
2.334e-05
2.205e-05
2.09e-05
1.985e-05
1.889e-05
1.801e-05
1.719e-05
1.644e-05
1.573e-05
1.506e-05
1.443e-05
1.382e-05
1.323e-05
1.267e-05
1.212e-05
1.158e-05
1.105e-05
1.053e-05
1.002e-05
9.506e-06
8.999e-06
8.494e-06
7.99e-06
7.487e-06
6.984e-06
6.48e-06
5.975e-06
5.469e-06
4.962e-06
4.453e-06
3.942e-06
3.431e-06
2.918e-06
2.407e-06
1.898e-06
1.394e-06
9.023e-07
4.31e-07
6.523e-08
0.0004491
0.0004274
0.000402
0.0003812
0.0003657
0.000354
0.000345
0.000338
0.0003325
0.000328
0.0003244
0.0003214
0.0003189
0.0003168
0.000315
0.0003134
0.000312
0.0003108
0.0003097
0.0003086
0.0003077
0.0003068
0.000306
0.0003051
0.0003044
0.0003036
0.0003028
0.000302
0.0003012
0.0003004
0.0002996
0.0002987
0.0002978
0.0002969
0.0002958
0.0002947
0.0002935
0.0002922
0.0002908
0.0002892
0.0002875
0.0002856
0.0002835
0.0002812
0.0002786
0.0002757
0.0002726
0.0002691
0.0002653
0.000261
0.0002564
0.0002514
0.000246
0.0002401
0.0002339
0.0002272
0.0002201
0.0002126
0.0002048
0.0001966
0.0001882
0.0001796
0.0001708
0.0001619
0.0001531
0.0001442
0.0001355
0.0001269
0.0001186
0.0001106
0.0001029
9.554e-05
8.856e-05
8.198e-05
7.58e-05
7.004e-05
6.468e-05
5.973e-05
5.517e-05
5.1e-05
4.718e-05
4.371e-05
4.055e-05
3.77e-05
3.511e-05
3.278e-05
3.067e-05
2.876e-05
2.704e-05
2.547e-05
2.405e-05
2.276e-05
2.158e-05
2.049e-05
1.949e-05
1.856e-05
1.769e-05
1.688e-05
1.611e-05
1.538e-05
1.469e-05
1.403e-05
1.339e-05
1.277e-05
1.217e-05
1.158e-05
1.101e-05
1.045e-05
9.893e-06
9.346e-06
8.805e-06
8.269e-06
7.737e-06
7.207e-06
6.68e-06
6.155e-06
5.631e-06
5.107e-06
4.584e-06
4.062e-06
3.54e-06
3.019e-06
2.5e-06
1.983e-06
1.471e-06
9.65e-07
4.698e-07
7.008e-08
0.0004043
0.0003973
0.000384
0.0003708
0.0003599
0.0003512
0.000344
0.0003382
0.0003333
0.0003292
0.0003257
0.0003227
0.0003202
0.000318
0.0003161
0.0003144
0.0003129
0.0003115
0.0003103
0.0003091
0.0003081
0.000307
0.0003061
0.0003052
0.0003043
0.0003034
0.0003025
0.0003016
0.0003007
0.0002998
0.0002989
0.0002979
0.0002968
0.0002958
0.0002946
0.0002934
0.0002921
0.0002906
0.0002891
0.0002874
0.0002856
0.0002835
0.0002813
0.0002789
0.0002762
0.0002733
0.00027
0.0002665
0.0002626
0.0002584
0.0002538
0.0002488
0.0002434
0.0002377
0.0002315
0.0002249
0.000218
0.0002107
0.0002031
0.0001953
0.0001871
0.0001788
0.0001703
0.0001618
0.0001532
0.0001447
0.0001362
0.000128
0.0001199
0.0001122
0.0001047
9.755e-05
9.075e-05
8.431e-05
7.825e-05
7.257e-05
6.728e-05
6.237e-05
5.782e-05
5.363e-05
4.979e-05
4.627e-05
4.306e-05
4.013e-05
3.746e-05
3.503e-05
3.282e-05
3.081e-05
2.898e-05
2.731e-05
2.578e-05
2.438e-05
2.309e-05
2.19e-05
2.079e-05
1.976e-05
1.88e-05
1.79e-05
1.705e-05
1.625e-05
1.548e-05
1.475e-05
1.404e-05
1.337e-05
1.271e-05
1.207e-05
1.145e-05
1.085e-05
1.025e-05
9.67e-06
9.096e-06
8.53e-06
7.971e-06
7.417e-06
6.869e-06
6.324e-06
5.783e-06
5.244e-06
4.708e-06
4.173e-06
3.641e-06
3.11e-06
2.58e-06
2.052e-06
1.527e-06
1.006e-06
4.875e-07
6.612e-08
0.0003774
0.0003764
0.0003695
0.0003609
0.0003531
0.0003466
0.0003411
0.0003364
0.0003323
0.0003288
0.0003257
0.000323
0.0003206
0.0003185
0.0003166
0.0003149
0.0003133
0.0003119
0.0003106
0.0003094
0.0003083
0.0003072
0.0003061
0.0003051
0.0003041
0.0003032
0.0003022
0.0003012
0.0003002
0.0002992
0.0002982
0.0002971
0.000296
0.0002948
0.0002936
0.0002922
0.0002908
0.0002893
0.0002877
0.0002859
0.0002839
0.0002818
0.0002795
0.000277
0.0002743
0.0002713
0.000268
0.0002644
0.0002605
0.0002563
0.0002517
0.0002468
0.0002414
0.0002357
0.0002297
0.0002232
0.0002165
0.0002093
0.0002019
0.0001942
0.0001863
0.0001782
0.0001699
0.0001616
0.0001532
0.0001449
0.0001368
0.0001287
0.0001209
0.0001133
0.000106
9.905e-05
9.239e-05
8.607e-05
8.011e-05
7.451e-05
6.928e-05
6.44e-05
5.988e-05
5.57e-05
5.184e-05
4.83e-05
4.505e-05
4.208e-05
3.935e-05
3.686e-05
3.459e-05
3.25e-05
3.059e-05
2.884e-05
2.722e-05
2.574e-05
2.437e-05
2.309e-05
2.191e-05
2.08e-05
1.977e-05
1.879e-05
1.787e-05
1.7e-05
1.617e-05
1.538e-05
1.462e-05
1.389e-05
1.319e-05
1.251e-05
1.185e-05
1.12e-05
1.057e-05
9.96e-06
9.358e-06
8.766e-06
8.183e-06
7.608e-06
7.04e-06
6.478e-06
5.921e-06
5.368e-06
4.819e-06
4.273e-06
3.73e-06
3.188e-06
2.648e-06
2.11e-06
1.572e-06
1.035e-06
4.984e-07
6.158e-08
0.00036
0.0003616
0.0003582
0.0003526
0.0003469
0.0003418
0.0003375
0.0003337
0.0003304
0.0003275
0.0003249
0.0003225
0.0003203
0.0003184
0.0003166
0.000315
0.0003134
0.000312
0.0003107
0.0003095
0.0003083
0.0003072
0.0003061
0.000305
0.000304
0.000303
0.0003019
0.0003009
0.0002998
0.0002988
0.0002977
0.0002965
0.0002953
0.0002941
0.0002927
0.0002913
0.0002898
0.0002882
0.0002865
0.0002847
0.0002827
0.0002805
0.0002782
0.0002756
0.0002728
0.0002698
0.0002665
0.0002629
0.000259
0.0002548
0.0002502
0.0002453
0.00024
0.0002344
0.0002284
0.000222
0.0002153
0.0002083
0.000201
0.0001934
0.0001857
0.0001777
0.0001696
0.0001614
0.0001532
0.0001451
0.0001371
0.0001292
0.0001215
0.0001141
0.000107
0.0001001
9.354e-05
8.732e-05
8.144e-05
7.591e-05
7.072e-05
6.589e-05
6.139e-05
5.722e-05
5.337e-05
4.983e-05
4.656e-05
4.357e-05
4.081e-05
3.829e-05
3.597e-05
3.383e-05
3.187e-05
3.006e-05
2.839e-05
2.684e-05
2.541e-05
2.407e-05
2.283e-05
2.166e-05
2.057e-05
1.953e-05
1.856e-05
1.763e-05
1.675e-05
1.592e-05
1.511e-05
1.434e-05
1.36e-05
1.288e-05
1.218e-05
1.151e-05
1.085e-05
1.021e-05
9.584e-06
8.969e-06
8.366e-06
7.773e-06
7.189e-06
6.612e-06
6.041e-06
5.476e-06
4.916e-06
4.359e-06
3.806e-06
3.255e-06
2.705e-06
2.157e-06
1.608e-06
1.059e-06
5.07e-07
5.831e-08
0.0003481
0.0003506
0.0003493
0.0003457
0.0003415
0.0003375
0.000334
0.000331
0.0003282
0.0003258
0.0003236
0.0003215
0.0003196
0.0003179
0.0003162
0.0003147
0.0003133
0.0003119
0.0003106
0.0003094
0.0003082
0.0003071
0.000306
0.0003049
0.0003038
0.0003028
0.0003017
0.0003006
0.0002995
0.0002984
0.0002972
0.000296
0.0002948
0.0002935
0.0002921
0.0002906
0.0002891
0.0002874
0.0002857
0.0002838
0.0002817
0.0002795
0.0002772
0.0002746
0.0002718
0.0002687
0.0002654
0.0002618
0.0002579
0.0002537
0.0002492
0.0002443
0.000239
0.0002334
0.0002275
0.0002212
0.0002146
0.0002076
0.0002004
0.0001929
0.0001852
0.0001773
0.0001693
0.0001613
0.0001532
0.0001451
0.0001372
0.0001295
0.0001219
0.0001146
0.0001075
0.0001007
9.426e-05
8.811e-05
8.228e-05
7.68e-05
7.166e-05
6.685e-05
6.239e-05
5.824e-05
5.441e-05
5.088e-05
4.762e-05
4.462e-05
4.186e-05
3.932e-05
3.698e-05
3.482e-05
3.282e-05
3.098e-05
2.927e-05
2.769e-05
2.621e-05
2.483e-05
2.354e-05
2.234e-05
2.12e-05
2.012e-05
1.911e-05
1.814e-05
1.722e-05
1.635e-05
1.551e-05
1.47e-05
1.393e-05
1.318e-05
1.246e-05
1.176e-05
1.108e-05
1.042e-05
9.769e-06
9.136e-06
8.517e-06
7.909e-06
7.311e-06
6.721e-06
6.14e-06
5.565e-06
4.995e-06
4.43e-06
3.869e-06
3.31e-06
2.752e-06
2.196e-06
1.639e-06
1.079e-06
5.154e-07
5.699e-08
0.0003395
0.0003422
0.0003422
0.0003399
0.0003369
0.0003338
0.0003309
0.0003283
0.000326
0.000324
0.0003221
0.0003203
0.0003187
0.0003171
0.0003156
0.0003142
0.0003129
0.0003116
0.0003104
0.0003092
0.0003081
0.0003069
0.0003058
0.0003047
0.0003036
0.0003026
0.0003015
0.0003003
0.0002992
0.0002981
0.0002969
0.0002956
0.0002944
0.000293
0.0002916
0.0002901
0.0002886
0.0002869
0.0002851
0.0002832
0.0002811
0.0002789
0.0002765
0.000274
0.0002712
0.0002681
0.0002648
0.0002613
0.0002574
0.0002532
0.0002487
0.0002438
0.0002386
0.000233
0.000227
0.0002208
0.0002142
0.0002072
0.0002001
0.0001926
0.000185
0.0001771
0.0001691
0.0001611
0.0001531
0.0001451
0.0001372
0.0001295
0.000122
0.0001147
0.0001077
0.000101
9.455e-05
8.844e-05
8.266e-05
7.721e-05
7.21e-05
6.733e-05
6.289e-05
5.878e-05
5.497e-05
5.146e-05
4.823e-05
4.524e-05
4.25e-05
3.996e-05
3.762e-05
3.546e-05
3.346e-05
3.161e-05
2.988e-05
2.828e-05
2.678e-05
2.538e-05
2.406e-05
2.282e-05
2.166e-05
2.055e-05
1.951e-05
1.852e-05
1.757e-05
1.667e-05
1.58e-05
1.497e-05
1.418e-05
1.341e-05
1.267e-05
1.195e-05
1.125e-05
1.057e-05
9.909e-06
9.263e-06
8.631e-06
8.012e-06
7.403e-06
6.805e-06
6.215e-06
5.632e-06
5.056e-06
4.484e-06
3.917e-06
3.352e-06
2.789e-06
2.227e-06
1.663e-06
1.097e-06
5.242e-07
5.795e-08
0.000333
0.0003357
0.0003363
0.0003351
0.0003329
0.0003305
0.0003281
0.0003259
0.000324
0.0003222
0.0003205
0.000319
0.0003176
0.0003162
0.0003149
0.0003136
0.0003124
0.0003112
0.00031
0.0003089
0.0003078
0.0003067
0.0003056
0.0003045
0.0003035
0.0003024
0.0003013
0.0003002
0.000299
0.0002979
0.0002966
0.0002954
0.0002941
0.0002928
0.0002913
0.0002898
0.0002883
0.0002866
0.0002848
0.0002829
0.0002808
0.0002786
0.0002763
0.0002737
0.0002709
0.0002679
0.0002647
0.0002611
0.0002573
0.0002531
0.0002486
0.0002437
0.0002385
0.0002329
0.000227
0.0002207
0.0002141
0.0002072
0.0002
0.0001925
0.0001849
0.000177
0.000169
0.000161
0.0001529
0.0001449
0.000137
0.0001293
0.0001218
0.0001146
0.0001076
0.0001009
9.444e-05
8.834e-05
8.257e-05
7.714e-05
7.206e-05
6.731e-05
6.291e-05
5.884e-05
5.507e-05
5.16e-05
4.84e-05
4.546e-05
4.274e-05
4.023e-05
3.792e-05
3.577e-05
3.379e-05
3.194e-05
3.022e-05
2.861e-05
2.711e-05
2.57e-05
2.437e-05
2.312e-05
2.194e-05
2.083e-05
1.977e-05
1.876e-05
1.779e-05
1.688e-05
1.6e-05
1.515e-05
1.434e-05
1.356e-05
1.28e-05
1.207e-05
1.136e-05
1.067e-05
1e-05
9.346e-06
8.706e-06
8.079e-06
7.464e-06
6.86e-06
6.265e-06
5.677e-06
5.097e-06
4.521e-06
3.95e-06
3.382e-06
2.816e-06
2.25e-06
1.683e-06
1.112e-06
5.34e-07
6.14e-08
0.0003279
0.0003305
0.0003315
0.0003309
0.0003295
0.0003276
0.0003257
0.0003238
0.0003221
0.0003205
0.0003191
0.0003177
0.0003165
0.0003152
0.0003141
0.0003129
0.0003118
0.0003107
0.0003096
0.0003086
0.0003075
0.0003065
0.0003054
0.0003043
0.0003033
0.0003022
0.0003011
0.0003
0.0002989
0.0002977
0.0002965
0.0002953
0.000294
0.0002927
0.0002912
0.0002898
0.0002882
0.0002865
0.0002848
0.0002829
0.0002809
0.0002787
0.0002764
0.0002738
0.0002711
0.0002682
0.0002649
0.0002614
0.0002576
0.0002535
0.000249
0.0002442
0.000239
0.0002334
0.0002274
0.0002211
0.0002144
0.0002075
0.0002002
0.0001927
0.0001849
0.000177
0.0001689
0.0001608
0.0001527
0.0001446
0.0001367
0.0001289
0.0001214
0.0001141
0.0001071
0.0001003
9.389e-05
8.778e-05
8.201e-05
7.659e-05
7.152e-05
6.681e-05
6.245e-05
5.842e-05
5.471e-05
5.13e-05
4.816e-05
4.527e-05
4.26e-05
4.014e-05
3.787e-05
3.577e-05
3.381e-05
3.199e-05
3.029e-05
2.87e-05
2.721e-05
2.581e-05
2.449e-05
2.324e-05
2.206e-05
2.094e-05
1.988e-05
1.886e-05
1.79e-05
1.697e-05
1.609e-05
1.523e-05
1.442e-05
1.363e-05
1.287e-05
1.213e-05
1.141e-05
1.072e-05
1.004e-05
9.384e-06
8.741e-06
8.111e-06
7.493e-06
6.886e-06
6.288e-06
5.699e-06
5.117e-06
4.541e-06
3.969e-06
3.4e-06
2.833e-06
2.266e-06
1.698e-06
1.125e-06
5.451e-07
6.75e-08
0.0003239
0.0003263
0.0003275
0.0003274
0.0003264
0.000325
0.0003235
0.0003219
0.0003204
0.000319
0.0003178
0.0003166
0.0003154
0.0003143
0.0003133
0.0003122
0.0003112
0.0003102
0.0003092
0.0003082
0.0003072
0.0003062
0.0003052
0.0003042
0.0003032
0.0003021
0.0003011
0.0003
0.0002989
0.0002977
0.0002965
0.0002953
0.000294
0.0002927
0.0002913
0.0002899
0.0002883
0.0002867
0.000285
0.0002831
0.0002812
0.0002791
0.0002768
0.0002743
0.0002717
0.0002688
0.0002656
0.0002622
0.0002585
0.0002544
0.0002499
0.0002451
0.0002399
0.0002343
0.0002283
0.0002219
0.0002152
0.0002081
0.0002007
0.0001931
0.0001852
0.0001772
0.000169
0.0001607
0.0001524
0.0001442
0.0001361
0.0001282
0.0001206
0.0001133
0.0001062
9.937e-05
9.289e-05
8.674e-05
8.095e-05
7.553e-05
7.048e-05
6.58e-05
6.149e-05
5.753e-05
5.389e-05
5.055e-05
4.749e-05
4.468e-05
4.209e-05
3.97e-05
3.749e-05
3.545e-05
3.354e-05
3.177e-05
3.011e-05
2.855e-05
2.709e-05
2.571e-05
2.441e-05
2.318e-05
2.201e-05
2.09e-05
1.985e-05
1.884e-05
1.788e-05
1.696e-05
1.607e-05
1.522e-05
1.441e-05
1.362e-05
1.286e-05
1.212e-05
1.141e-05
1.071e-05
1.004e-05
9.378e-06
8.735e-06
8.105e-06
7.488e-06
6.882e-06
6.286e-06
5.698e-06
5.117e-06
4.542e-06
3.972e-06
3.405e-06
2.839e-06
2.274e-06
1.708e-06
1.136e-06
5.576e-07
7.636e-08
0.0003206
0.0003228
0.0003241
0.0003243
0.0003238
0.0003228
0.0003215
0.0003202
0.0003189
0.0003177
0.0003166
0.0003155
0.0003145
0.0003135
0.0003125
0.0003116
0.0003106
0.0003097
0.0003088
0.0003078
0.0003069
0.000306
0.000305
0.000304
0.0003031
0.0003021
0.000301
0.0003
0.0002989
0.0002978
0.0002967
0.0002955
0.0002942
0.0002929
0.0002916
0.0002902
0.0002887
0.0002871
0.0002855
0.0002837
0.0002818
0.0002797
0.0002776
0.0002752
0.0002726
0.0002698
0.0002668
0.0002634
0.0002598
0.0002558
0.0002514
0.0002466
0.0002414
0.0002357
0.0002297
0.0002232
0.0002164
0.0002092
0.0002016
0.0001938
0.0001858
0.0001775
0.0001691
0.0001606
0.000152
0.0001436
0.0001353
0.0001273
0.0001195
0.0001121
0.0001048
9.793e-05
9.137e-05
8.517e-05
7.935e-05
7.392e-05
6.889e-05
6.427e-05
6.002e-05
5.614e-05
5.26e-05
4.937e-05
4.641e-05
4.37e-05
4.121e-05
3.891e-05
3.679e-05
3.482e-05
3.299e-05
3.128e-05
2.968e-05
2.817e-05
2.675e-05
2.542e-05
2.415e-05
2.295e-05
2.18e-05
2.072e-05
1.968e-05
1.869e-05
1.774e-05
1.683e-05
1.596e-05
1.512e-05
1.431e-05
1.353e-05
1.278e-05
1.205e-05
1.134e-05
1.065e-05
9.98e-06
9.327e-06
8.688e-06
8.063e-06
7.45e-06
6.849e-06
6.256e-06
5.673e-06
5.096e-06
4.526e-06
3.96e-06
3.397e-06
2.836e-06
2.276e-06
1.713e-06
1.146e-06
5.717e-07
8.802e-08
0.0003179
0.0003199
0.0003212
0.0003217
0.0003214
0.0003207
0.0003198
0.0003187
0.0003176
0.0003165
0.0003155
0.0003145
0.0003136
0.0003127
0.0003118
0.0003109
0.0003101
0.0003092
0.0003084
0.0003075
0.0003066
0.0003057
0.0003048
0.0003039
0.000303
0.000302
0.0003011
0.0003001
0.000299
0.000298
0.0002969
0.0002957
0.0002945
0.0002933
0.000292
0.0002907
0.0002892
0.0002877
0.0002862
0.0002845
0.0002827
0.0002807
0.0002786
0.0002764
0.0002739
0.0002713
0.0002683
0.0002651
0.0002616
0.0002577
0.0002534
0.0002486
0.0002434
0.0002378
0.0002317
0.0002251
0.0002181
0.0002108
0.000203
0.000195
0.0001867
0.0001782
0.0001694
0.0001605
0.0001516
0.0001428
0.0001343
0.000126
0.000118
0.0001103
0.000103
9.591e-05
8.926e-05
8.299e-05
7.714e-05
7.172e-05
6.673e-05
6.217e-05
5.802e-05
5.426e-05
5.084e-05
4.774e-05
4.491e-05
4.234e-05
3.997e-05
3.78e-05
3.578e-05
3.392e-05
3.218e-05
3.055e-05
2.902e-05
2.758e-05
2.622e-05
2.493e-05
2.371e-05
2.255e-05
2.145e-05
2.039e-05
1.938e-05
1.842e-05
1.75e-05
1.661e-05
1.575e-05
1.493e-05
1.414e-05
1.337e-05
1.263e-05
1.191e-05
1.122e-05
1.054e-05
9.877e-06
9.233e-06
8.603e-06
7.986e-06
7.381e-06
6.787e-06
6.202e-06
5.625e-06
5.056e-06
4.492e-06
3.933e-06
3.377e-06
2.823e-06
2.27e-06
1.714e-06
1.154e-06
5.874e-07
1.024e-07
0.0003156
0.0003175
0.0003188
0.0003194
0.0003194
0.000319
0.0003182
0.0003174
0.0003164
0.0003155
0.0003146
0.0003137
0.0003128
0.000312
0.0003112
0.0003104
0.0003096
0.0003088
0.000308
0.0003072
0.0003064
0.0003056
0.0003047
0.0003039
0.000303
0.0003021
0.0003012
0.0003002
0.0002993
0.0002982
0.0002972
0.0002961
0.000295
0.0002938
0.0002926
0.0002913
0.00029
0.0002886
0.0002871
0.0002855
0.0002838
0.000282
0.00028
0.0002779
0.0002756
0.0002731
0.0002703
0.0002673
0.0002639
0.0002601
0.000256
0.0002513
0.0002462
0.0002405
0.0002344
0.0002278
0.0002207
0.0002131
0.000205
0.0001967
0.0001881
0.0001792
0.0001699
0.0001604
0.0001511
0.0001419
0.0001328
0.0001242
0.0001159
0.000108
0.0001004
9.319e-05
8.643e-05
8.012e-05
7.425e-05
6.885e-05
6.393e-05
5.948e-05
5.546e-05
5.185e-05
4.861e-05
4.567e-05
4.302e-05
4.06e-05
3.84e-05
3.636e-05
3.449e-05
3.274e-05
3.111e-05
2.958e-05
2.815e-05
2.679e-05
2.55e-05
2.428e-05
2.312e-05
2.201e-05
2.095e-05
1.994e-05
1.897e-05
1.804e-05
1.715e-05
1.629e-05
1.546e-05
1.466e-05
1.389e-05
1.314e-05
1.242e-05
1.172e-05
1.104e-05
1.038e-05
9.729e-06
9.098e-06
8.48e-06
7.875e-06
7.282e-06
6.698e-06
6.123e-06
5.557e-06
4.997e-06
4.443e-06
3.893e-06
3.346e-06
2.802e-06
2.257e-06
1.711e-06
1.161e-06
6.046e-07
1.195e-07
0.0003137
0.0003155
0.0003168
0.0003174
0.0003176
0.0003174
0.0003169
0.0003162
0.0003154
0.0003146
0.0003138
0.000313
0.0003122
0.0003114
0.0003107
0.0003099
0.0003092
0.0003085
0.0003077
0.000307
0.0003062
0.0003055
0.0003047
0.0003039
0.0003031
0.0003022
0.0003014
0.0003005
0.0002996
0.0002986
0.0002976
0.0002966
0.0002956
0.0002945
0.0002933
0.0002921
0.0002909
0.0002896
0.0002882
0.0002867
0.0002852
0.0002835
0.0002817
0.0002798
0.0002776
0.0002753
0.0002728
0.0002699
0.0002668
0.0002632
0.0002592
0.0002547
0.0002497
0.0002441
0.000238
0.0002313
0.0002241
0.0002163
0.000208
0.0001993
0.0001903
0.0001808
0.0001707
0.0001605
0.0001505
0.0001405
0.0001307
0.0001216
0.0001131
0.0001048
9.691e-05
8.957e-05
8.276e-05
7.642e-05
7.058e-05
6.525e-05
6.045e-05
5.616e-05
5.234e-05
4.894e-05
4.59e-05
4.318e-05
4.074e-05
3.852e-05
3.65e-05
3.464e-05
3.292e-05
3.132e-05
2.982e-05
2.841e-05
2.708e-05
2.581e-05
2.461e-05
2.347e-05
2.237e-05
2.133e-05
2.033e-05
1.937e-05
1.844e-05
1.756e-05
1.67e-05
1.588e-05
1.508e-05
1.432e-05
1.357e-05
1.285e-05
1.215e-05
1.147e-05
1.081e-05
1.017e-05
9.541e-06
8.926e-06
8.324e-06
7.734e-06
7.154e-06
6.584e-06
6.022e-06
5.468e-06
4.92e-06
4.378e-06
3.84e-06
3.305e-06
2.772e-06
2.239e-06
1.705e-06
1.167e-06
6.233e-07
1.39e-07
0.0003121
0.0003137
0.000315
0.0003157
0.000316
0.000316
0.0003156
0.0003151
0.0003145
0.0003138
0.000313
0.0003123
0.0003116
0.0003109
0.0003102
0.0003096
0.0003089
0.0003082
0.0003075
0.0003068
0.0003061
0.0003054
0.0003047
0.000304
0.0003032
0.0003024
0.0003016
0.0003008
0.0002999
0.0002991
0.0002982
0.0002972
0.0002962
0.0002952
0.0002942
0.0002931
0.0002919
0.0002907
0.0002895
0.0002882
0.0002867
0.0002852
0.0002836
0.0002819
0.00028
0.0002779
0.0002756
0.000273
0.0002701
0.0002668
0.0002631
0.0002588
0.000254
0.0002486
0.0002425
0.0002359
0.0002288
0.0002209
0.0002122
0.0002031
0.0001938
0.0001835
0.0001722
0.0001608
0.0001496
0.0001385
0.0001276
0.0001178
0.000109
0.0001004
9.224e-05
8.483e-05
7.806e-05
7.179e-05
6.604e-05
6.086e-05
5.626e-05
5.22e-05
4.864e-05
4.551e-05
4.274e-05
4.029e-05
3.81e-05
3.612e-05
3.431e-05
3.265e-05
3.112e-05
2.968e-05
2.833e-05
2.705e-05
2.584e-05
2.468e-05
2.357e-05
2.252e-05
2.15e-05
2.053e-05
1.959e-05
1.869e-05
1.782e-05
1.698e-05
1.617e-05
1.539e-05
1.464e-05
1.39e-05
1.319e-05
1.25e-05
1.183e-05
1.118e-05
1.054e-05
9.923e-06
9.315e-06
8.72e-06
8.137e-06
7.565e-06
7.002e-06
6.448e-06
5.902e-06
5.362e-06
4.828e-06
4.3e-06
3.775e-06
3.254e-06
2.734e-06
2.215e-06
1.695e-06
1.172e-06
6.433e-07
1.607e-07
0.0003107
0.0003123
0.0003135
0.0003143
0.0003147
0.0003147
0.0003145
0.0003141
0.0003136
0.000313
0.0003124
0.0003118
0.0003111
0.0003105
0.0003099
0.0003092
0.0003086
0.000308
0.0003074
0.0003067
0.0003061
0.0003054
0.0003048
0.0003041
0.0003034
0.0003027
0.0003019
0.0003012
0.0003004
0.0002996
0.0002988
0.0002979
0.000297
0.0002961
0.0002951
0.0002942
0.0002931
0.0002921
0.0002909
0.0002898
0.0002885
0.0002872
0.0002858
0.0002843
0.0002826
0.0002808
0.0002788
0.0002765
0.000274
0.000271
0.0002676
0.0002637
0.0002592
0.000254
0.0002482
0.0002418
0.0002349
0.0002272
0.0002182
0.0002089
0.0001994
0.0001881
0.0001747
0.0001613
0.0001483
0.0001353
0.0001226
0.0001121
0.0001031
9.429e-05
8.598e-05
7.872e-05
7.219e-05
6.612e-05
6.057e-05
5.564e-05
5.133e-05
4.761e-05
4.439e-05
4.16e-05
3.917e-05
3.703e-05
3.513e-05
3.343e-05
3.187e-05
3.044e-05
2.911e-05
2.785e-05
2.666e-05
2.553e-05
2.445e-05
2.341e-05
2.241e-05
2.145e-05
2.052e-05
1.963e-05
1.876e-05
1.793e-05
1.712e-05
1.633e-05
1.558e-05
1.484e-05
1.413e-05
1.344e-05
1.276e-05
1.211e-05
1.147e-05
1.085e-05
1.024e-05
9.641e-06
9.058e-06
8.486e-06
7.924e-06
7.372e-06
6.828e-06
6.292e-06
5.763e-06
5.24e-06
4.723e-06
4.21e-06
3.701e-06
3.194e-06
2.69e-06
2.186e-06
1.682e-06
1.175e-06
6.645e-07
1.844e-07
0.0003096
0.000311
0.0003122
0.000313
0.0003135
0.0003136
0.0003136
0.0003133
0.0003129
0.0003124
0.0003119
0.0003113
0.0003107
0.0003102
0.0003096
0.000309
0.0003084
0.0003079
0.0003073
0.0003067
0.0003061
0.0003055
0.0003049
0.0003043
0.0003036
0.000303
0.0003023
0.0003016
0.0003009
0.0003002
0.0002994
0.0002986
0.0002979
0.000297
0.0002962
0.0002953
0.0002944
0.0002935
0.0002925
0.0002915
0.0002904
0.0002893
0.0002881
0.0002869
0.0002855
0.000284
0.0002823
0.0002804
0.0002782
0.0002757
0.0002728
0.0002693
0.0002652
0.0002605
0.0002551
0.0002492
0.0002429
0.0002357
0.0002268
0.0002174
0.0002088
0.0001969
0.0001794
0.000162
0.0001461
0.0001297
0.0001138
0.0001028
9.464e-05
8.592e-05
7.768e-05
7.098e-05
6.505e-05
5.938e-05
5.416e-05
4.96e-05
4.572e-05
4.243e-05
3.964e-05
3.727e-05
3.523e-05
3.346e-05
3.19e-05
3.051e-05
2.923e-05
2.805e-05
2.693e-05
2.588e-05
2.487e-05
2.389e-05
2.295e-05
2.204e-05
2.115e-05
2.029e-05
1.945e-05
1.864e-05
1.786e-05
1.709e-05
1.635e-05
1.562e-05
1.492e-05
1.424e-05
1.357e-05
1.292e-05
1.229e-05
1.167e-05
1.107e-05
1.048e-05
9.898e-06
9.331e-06
8.774e-06
8.227e-06
7.689e-06
7.159e-06
6.636e-06
6.12e-06
5.61e-06
5.106e-06
4.606e-06
4.11e-06
3.618e-06
3.128e-06
2.64e-06
2.153e-06
1.666e-06
1.178e-06
6.865e-07
2.097e-07
0.0003086
0.00031
0.0003111
0.0003119
0.0003125
0.0003127
0.0003127
0.0003125
0.0003122
0.0003119
0.0003114
0.0003109
0.0003104
0.0003099
0.0003094
0.0003088
0.0003083
0.0003078
0.0003072
0.0003067
0.0003062
0.0003056
0.0003051
0.0003045
0.0003039
0.0003033
0.0003027
0.0003021
0.0003015
0.0003008
0.0003001
0.0002995
0.0002988
0.000298
0.0002973
0.0002965
0.0002958
0.000295
0.0002942
0.0002933
0.0002924
0.0002915
0.0002906
0.0002896
0.0002885
0.0002874
0.0002861
0.0002846
0.0002829
0.0002808
0.0002784
0.0002755
0.000272
0.0002679
0.000263
0.0002579
0.0002529
0.0002471
0.0002381
0.0002279
0.0002233
0.000213
0.0001865
0.0001619
0.0001437
0.0001215
9.888e-05
8.915e-05
8.42e-05
7.496e-05
6.679e-05
6.135e-05
5.663e-05
5.164e-05
4.69e-05
4.286e-05
3.953e-05
3.677e-05
3.449e-05
3.26e-05
3.101e-05
2.966e-05
2.848e-05
2.742e-05
2.644e-05
2.553e-05
2.465e-05
2.38e-05
2.297e-05
2.216e-05
2.137e-05
2.058e-05
1.981e-05
1.906e-05
1.832e-05
1.76e-05
1.689e-05
1.62e-05
1.552e-05
1.486e-05
1.422e-05
1.359e-05
1.297e-05
1.237e-05
1.178e-05
1.12e-05
1.064e-05
1.008e-05
9.534e-06
8.998e-06
8.47e-06
7.95e-06
7.437e-06
6.931e-06
6.431e-06
5.936e-06
5.446e-06
4.961e-06
4.48e-06
4.003e-06
3.528e-06
3.056e-06
2.586e-06
2.117e-06
1.649e-06
1.18e-06
7.092e-07
2.362e-07
0.0003078
0.0003091
0.0003102
0.000311
0.0003116
0.0003119
0.000312
0.0003119
0.0003117
0.0003114
0.000311
0.0003106
0.0003101
0.0003097
0.0003092
0.0003087
0.0003082
0.0003077
0.0003073
0.0003068
0.0003063
0.0003058
0.0003053
0.0003048
0.0003042
0.0003037
0.0003032
0.0003026
0.0003021
0.0003015
0.0003009
0.0003003
0.0002997
0.0002991
0.0002985
0.0002978
0.0002972
0.0002965
0.0002959
0.0002952
0.0002945
0.0002938
0.0002931
0.0002924
0.0002916
0.0002908
0.0002899
0.0002889
0.0002877
0.0002862
0.0002844
0.0002821
0.0002793
0.0002758
0.0002717
0.0002676
0.000265
0.0002623
0.0002509
0.0002352
0.0002371
0.0002412
0.0001685
0.0001539
0.0001533
0.0001371
7.187e-05
7.426e-05
7.682e-05
6.312e-05
5.251e-05
4.991e-05
4.734e-05
4.327e-05
3.909e-05
3.566e-05
3.295e-05
3.08e-05
2.908e-05
2.772e-05
2.662e-05
2.572e-05
2.494e-05
2.424e-05
2.358e-05
2.294e-05
2.231e-05
2.167e-05
2.103e-05
2.038e-05
1.973e-05
1.908e-05
1.844e-05
1.779e-05
1.715e-05
1.652e-05
1.589e-05
1.527e-05
1.467e-05
1.407e-05
1.349e-05
1.291e-05
1.235e-05
1.179e-05
1.125e-05
1.071e-05
1.019e-05
9.666e-06
9.155e-06
8.65e-06
8.152e-06
7.66e-06
7.173e-06
6.692e-06
6.215e-06
5.743e-06
5.274e-06
4.81e-06
4.348e-06
3.89e-06
3.434e-06
2.98e-06
2.529e-06
2.079e-06
1.63e-06
1.181e-06
7.322e-07
2.634e-07
0.0003071
0.0003083
0.0003094
0.0003102
0.0003108
0.0003111
0.0003113
0.0003113
0.0003112
0.000311
0.0003107
0.0003103
0.0003099
0.0003095
0.0003091
0.0003086
0.0003082
0.0003078
0.0003073
0.0003069
0.0003064
0.000306
0.0003055
0.0003051
0.0003046
0.0003041
0.0003036
0.0003032
0.0003027
0.0003022
0.0003017
0.0003012
0.0003007
0.0003002
0.0002996
0.0002991
0.0002986
0.0002981
0.0002976
0.0002971
0.0002966
0.0002961
0.0002956
0.0002952
0.0002948
0.0002943
0.0002938
0.0002933
0.0002926
0.0002917
0.0002904
0.0002888
0.0002867
0.0002838
0.0002799
0.0002761
0.0002754
0.0002811
0.0002754
0.0001917
0.0001896
0.0002075
0.0001435
0.0001488
0.0001605
0.0001614
0.0001046
0.000121
0.0001174
4.094e-05
3.431e-05
4.028e-05
3.929e-05
3.518e-05
3.116e-05
2.826e-05
2.621e-05
2.468e-05
2.356e-05
2.276e-05
2.219e-05
2.176e-05
2.14e-05
2.107e-05
2.072e-05
2.036e-05
1.996e-05
1.954e-05
1.908e-05
1.86e-05
1.809e-05
1.757e-05
1.704e-05
1.65e-05
1.596e-05
1.542e-05
1.487e-05
1.433e-05
1.38e-05
1.327e-05
1.274e-05
1.222e-05
1.171e-05
1.121e-05
1.071e-05
1.021e-05
9.725e-06
9.243e-06
8.766e-06
8.294e-06
7.826e-06
7.363e-06
6.903e-06
6.447e-06
5.994e-06
5.545e-06
5.098e-06
4.654e-06
4.212e-06
3.773e-06
3.337e-06
2.902e-06
2.469e-06
2.039e-06
1.61e-06
1.182e-06
7.553e-07
2.91e-07
0.0003065
0.0003077
0.0003087
0.0003095
0.0003101
0.0003105
0.0003108
0.0003108
0.0003108
0.0003106
0.0003104
0.0003101
0.0003097
0.0003094
0.000309
0.0003086
0.0003082
0.0003078
0.0003074
0.000307
0.0003066
0.0003062
0.0003058
0.0003054
0.000305
0.0003046
0.0003041
0.0003037
0.0003033
0.0003029
0.0003025
0.0003021
0.0003016
0.0003012
0.0003008
0.0003004
0.0003
0.0002996
0.0002993
0.0002989
0.0002986
0.0002983
0.0002981
0.0002979
0.0002978
0.0002977
0.0002976
0.0002975
0.0002974
0.000297
0.0002964
0.0002954
0.0002939
0.0002916
0.0002872
0.0002794
0.0002769
0.0002742
0.0002453
0.0001444
0.0001611
-3.427e-05
-3.335e-06
0.0001341
0.0001834
0.0003045
0.0002887
0.0001496
0.0001606
7.42e-05
4.384e-05
4.082e-05
3.615e-05
2.781e-05
2.306e-05
2.074e-05
1.943e-05
1.858e-05
1.81e-05
1.789e-05
1.786e-05
1.791e-05
1.797e-05
1.799e-05
1.795e-05
1.785e-05
1.768e-05
1.745e-05
1.717e-05
1.684e-05
1.648e-05
1.608e-05
1.566e-05
1.523e-05
1.478e-05
1.432e-05
1.386e-05
1.339e-05
1.293e-05
1.246e-05
1.2e-05
1.153e-05
1.107e-05
1.062e-05
1.016e-05
9.711e-06
9.263e-06
8.818e-06
8.376e-06
7.936e-06
7.499e-06
7.064e-06
6.632e-06
6.201e-06
5.772e-06
5.345e-06
4.921e-06
4.497e-06
4.076e-06
3.657e-06
3.239e-06
2.823e-06
2.41e-06
1.998e-06
1.589e-06
1.182e-06
7.78e-07
3.184e-07
0.000306
0.0003071
0.0003081
0.000309
0.0003096
0.00031
0.0003103
0.0003104
0.0003104
0.0003103
0.0003101
0.0003099
0.0003096
0.0003093
0.000309
0.0003086
0.0003082
0.0003079
0.0003075
0.0003072
0.0003068
0.0003064
0.0003061
0.0003057
0.0003054
0.000305
0.0003046
0.0003043
0.0003039
0.0003036
0.0003033
0.0003029
0.0003026
0.0003023
0.000302
0.0003017
0.0003014
0.0003011
0.0003009
0.0003007
0.0003006
0.0003005
0.0003004
0.0003005
0.0003006
0.0003009
0.0003012
0.0003015
0.0003019
0.0003021
0.0003021
0.0003018
0.0003012
0.0003
0.0002962
0.0002877
0.0002437
0.000232
-3.409e-05
-0.0001653
6.443e-05
4.19e-05
6.691e-05
0.0001287
0.0001787
0.0002334
0.0002483
0.0002408
0.0004457
0.0003479
8.648e-05
8.699e-05
2.761e-05
1.746e-05
1.393e-05
1.319e-05
1.29e-05
1.278e-05
1.294e-05
1.332e-05
1.382e-05
1.431e-05
1.475e-05
1.51e-05
1.534e-05
1.548e-05
1.552e-05
1.547e-05
1.534e-05
1.516e-05
1.492e-05
1.464e-05
1.432e-05
1.399e-05
1.363e-05
1.325e-05
1.287e-05
1.247e-05
1.207e-05
1.167e-05
1.126e-05
1.086e-05
1.045e-05
1.004e-05
9.628e-06
9.218e-06
8.809e-06
8.401e-06
7.992e-06
7.585e-06
7.177e-06
6.771e-06
6.364e-06
5.959e-06
5.554e-06
5.149e-06
4.746e-06
4.343e-06
3.941e-06
3.541e-06
3.142e-06
2.745e-06
2.35e-06
1.958e-06
1.568e-06
1.182e-06
8.001e-07
3.452e-07
0.0003056
0.0003067
0.0003077
0.0003085
0.0003091
0.0003096
0.0003099
0.00031
0.0003101
0.00031
0.0003099
0.0003097
0.0003095
0.0003092
0.0003089
0.0003086
0.0003083
0.000308
0.0003076