/*--------------------------------*- C++ -*----------------------------------*\
  =========                 |
  \\      /  F ield         | OpenFOAM: The Open Source CFD Toolbox
   \\    /   O peration     | Website:  https://openfoam.org
    \\  /    A nd           | Version:  7
     \\/     M anipulation  |
\*---------------------------------------------------------------------------*/
FoamFile
{
    version     2.0;
    format      ascii;
    class       surfaceScalarField;
    location    "299.999473411257384";
    object      phi;
}
// * * * * * * * * * * * * * * * * * * * * * * * * * * * * * * * * * * * * * //

dimensions      [0 3 -1 0 0 0 0];

internalField   nonuniform List<scalar> 
8032
(
6.857e-10
2.518e-10
4.804e-10
2.053e-10
3.48e-10
1.324e-10
2.643e-10
8.372e-11
2.101e-10
5.414e-11
1.738e-10
3.634e-11
1.483e-10
2.547e-11
1.297e-10
1.86e-11
1.156e-10
1.408e-11
1.047e-10
1.097e-11
9.594e-11
8.724e-12
8.889e-11
7.053e-12
8.312e-11
5.767e-12
7.837e-11
4.751e-12
7.444e-11
3.93e-12
7.119e-11
3.252e-12
6.85e-11
2.683e-12
6.631e-11
2.196e-12
6.453e-11
1.773e-12
6.313e-11
1.4e-12
6.207e-11
1.065e-12
6.131e-11
7.601e-13
6.083e-11
4.773e-13
6.062e-11
2.111e-13
6.066e-11
-4.344e-14
6.095e-11
-2.905e-13
6.149e-11
-5.337e-13
6.226e-11
-7.762e-13
6.329e-11
-1.021e-12
6.456e-11
-1.27e-12
6.608e-11
-1.526e-12
6.787e-11
-1.79e-12
6.994e-11
-2.065e-12
7.229e-11
-2.351e-12
7.494e-11
-2.65e-12
7.79e-11
-2.961e-12
8.118e-11
-3.285e-12
8.481e-11
-3.622e-12
8.878e-11
-3.97e-12
9.31e-11
-4.328e-12
9.78e-11
-4.693e-12
1.029e-10
-5.062e-12
1.083e-10
-5.431e-12
1.141e-10
-5.795e-12
1.202e-10
-6.148e-12
1.267e-10
-6.482e-12
1.335e-10
-6.789e-12
1.406e-10
-7.061e-12
1.479e-10
-7.287e-12
1.553e-10
-7.458e-12
1.629e-10
-7.564e-12
1.705e-10
-7.594e-12
1.78e-10
-7.538e-12
1.854e-10
-7.388e-12
1.925e-10
-7.137e-12
1.993e-10
-6.78e-12
2.056e-10
-6.312e-12
2.114e-10
-5.736e-12
2.164e-10
-5.052e-12
2.207e-10
-4.27e-12
2.241e-10
-3.4e-12
2.265e-10
-2.457e-12
2.28e-10
-1.461e-12
2.284e-10
-4.34e-13
2.278e-10
5.99e-13
2.262e-10
1.614e-12
2.236e-10
2.586e-12
2.201e-10
3.497e-12
2.158e-10
4.329e-12
2.107e-10
5.069e-12
2.05e-10
5.711e-12
1.988e-10
6.25e-12
1.921e-10
6.685e-12
1.851e-10
7.018e-12
1.778e-10
7.252e-12
1.704e-10
7.394e-12
1.63e-10
7.449e-12
1.556e-10
7.426e-12
1.482e-10
7.334e-12
1.41e-10
7.181e-12
1.341e-10
6.977e-12
1.273e-10
6.73e-12
1.209e-10
6.45e-12
1.147e-10
6.144e-12
1.089e-10
5.821e-12
1.034e-10
5.487e-12
9.828e-11
5.149e-12
9.347e-11
4.81e-12
8.899e-11
4.476e-12
8.484e-11
4.15e-12
8.101e-11
3.834e-12
7.748e-11
3.532e-12
7.423e-11
3.244e-12
7.126e-11
2.972e-12
6.854e-11
2.715e-12
6.607e-11
2.475e-12
6.382e-11
2.251e-12
6.177e-11
2.044e-12
5.992e-11
1.851e-12
5.825e-11
1.674e-12
5.674e-11
1.511e-12
5.538e-11
1.362e-12
5.415e-11
1.225e-12
5.305e-11
1.1e-12
5.206e-11
9.87e-13
5.118e-11
8.838e-13
5.039e-11
7.903e-13
4.968e-11
7.056e-13
4.906e-11
6.292e-13
4.849e-11
5.602e-13
4.8e-11
4.982e-13
4.755e-11
4.425e-13
4.716e-11
3.927e-13
4.681e-11
3.484e-13
4.65e-11
3.092e-13
4.623e-11
2.748e-13
4.598e-11
2.45e-13
4.576e-11
2.197e-13
4.557e-11
1.988e-13
4.538e-11
1.826e-13
4.521e-11
1.715e-13
4.505e-11
1.663e-13
4.488e-11
1.683e-13
4.47e-11
1.804e-13
4.449e-11
2.078e-13
4.423e-11
2.592e-13
4.389e-11
3.443e-13
4.474e-13
9.523e-10
2.37e-10
8.501e-10
3.075e-10
7.275e-10
2.55e-10
6.183e-10
1.929e-10
5.295e-10
1.43e-10
4.594e-10
1.064e-10
4.045e-10
8.04e-11
3.611e-10
6.197e-11
3.265e-10
4.87e-11
2.985e-10
3.893e-11
2.757e-10
3.156e-11
2.569e-10
2.586e-11
2.413e-10
2.136e-11
2.283e-10
1.774e-11
2.175e-10
1.476e-11
2.085e-10
1.227e-11
2.01e-10
1.016e-11
1.948e-10
8.348e-12
1.899e-10
6.759e-12
1.859e-10
5.349e-12
1.829e-10
4.079e-12
1.807e-10
2.917e-12
1.794e-10
1.838e-12
1.788e-10
8.199e-13
1.789e-10
-1.539e-13
1.797e-10
-1.099e-12
1.812e-10
-2.03e-12
1.834e-10
-2.956e-12
1.862e-10
-3.889e-12
1.898e-10
-4.838e-12
1.941e-10
-5.81e-12
1.991e-10
-6.812e-12
2.049e-10
-7.849e-12
2.115e-10
-8.927e-12
2.189e-10
-1.005e-11
2.271e-10
-1.121e-11
2.362e-10
-1.242e-11
2.463e-10
-1.367e-11
2.573e-10
-1.496e-11
2.692e-10
-1.628e-11
2.822e-10
-1.762e-11
2.961e-10
-1.897e-11
3.109e-10
-2.031e-11
3.268e-10
-2.163e-11
3.435e-10
-2.29e-11
3.611e-10
-2.409e-11
3.795e-10
-2.519e-11
3.986e-10
-2.614e-11
4.183e-10
-2.692e-11
4.383e-10
-2.75e-11
4.586e-10
-2.784e-11
4.789e-10
-2.79e-11
4.99e-10
-2.764e-11
5.186e-10
-2.705e-11
5.376e-10
-2.609e-11
5.556e-10
-2.474e-11
5.723e-10
-2.301e-11
5.874e-10
-2.088e-11
6.007e-10
-1.838e-11
6.12e-10
-1.553e-11
6.209e-10
-1.236e-11
6.274e-10
-8.946e-12
6.313e-10
-5.342e-12
6.325e-10
-1.629e-12
6.31e-10
2.106e-12
6.268e-10
5.779e-12
6.201e-10
9.308e-12
6.11e-10
1.262e-11
5.997e-10
1.566e-11
5.864e-10
1.838e-11
5.713e-10
2.075e-11
5.548e-10
2.276e-11
5.371e-10
2.439e-11
5.185e-10
2.566e-11
4.992e-10
2.657e-11
4.794e-10
2.714e-11
4.595e-10
2.74e-11
4.395e-10
2.738e-11
4.197e-10
2.709e-11
4.003e-10
2.659e-11
3.814e-10
2.589e-11
3.631e-10
2.503e-11
3.455e-10
2.404e-11
3.287e-10
2.295e-11
3.128e-10
2.179e-11
2.977e-10
2.059e-11
2.835e-10
1.936e-11
2.701e-10
1.812e-11
2.577e-10
1.69e-11
2.462e-10
1.57e-11
2.355e-10
1.454e-11
2.256e-10
1.342e-11
2.165e-10
1.235e-11
2.081e-10
1.134e-11
2.004e-10
1.038e-11
1.934e-10
9.479e-12
1.87e-10
8.639e-12
1.812e-10
7.857e-12
1.76e-10
7.131e-12
1.712e-10
6.461e-12
1.668e-10
5.844e-12
1.629e-10
5.276e-12
1.594e-10
4.756e-12
1.562e-10
4.28e-12
1.534e-10
3.847e-12
1.508e-10
3.452e-12
1.485e-10
3.093e-12
1.464e-10
2.768e-12
1.446e-10
2.473e-12
1.429e-10
2.207e-12
1.415e-10
1.967e-12
1.401e-10
1.752e-12
1.39e-10
1.559e-12
1.379e-10
1.387e-12
1.37e-10
1.234e-12
1.362e-10
1.1e-12
1.355e-10
9.837e-13
1.348e-10
8.842e-13
1.342e-10
8.016e-13
1.336e-10
7.364e-13
1.331e-10
6.895e-13
1.326e-10
6.627e-13
1.321e-10
6.591e-13
1.316e-10
6.831e-13
1.311e-10
7.416e-13
1.305e-10
8.422e-13
1.299e-10
9.838e-13
1.117e-12
9.779e-10
1.966e-10
9.637e-10
3.217e-10
9.014e-10
3.174e-10
8.213e-10
2.729e-10
7.412e-10
2.231e-10
6.684e-10
1.792e-10
6.052e-10
1.436e-10
5.516e-10
1.156e-10
5.064e-10
9.39e-11
4.684e-10
7.692e-11
4.364e-10
6.352e-11
4.095e-10
5.279e-11
3.868e-10
4.408e-11
3.676e-10
3.691e-11
3.514e-10
3.092e-11
3.378e-10
2.585e-11
3.265e-10
2.151e-11
3.171e-10
1.772e-11
3.095e-10
1.439e-11
3.034e-10
1.141e-11
2.988e-10
8.711e-12
2.955e-10
6.232e-12
2.934e-10
3.921e-12
2.925e-10
1.737e-12
2.927e-10
-3.579e-13
2.94e-10
-2.394e-12
2.964e-10
-4.398e-12
2.998e-10
-6.395e-12
3.043e-10
-8.405e-12
3.099e-10
-1.045e-11
3.166e-10
-1.253e-11
3.245e-10
-1.468e-11
3.336e-10
-1.691e-11
3.439e-10
-1.921e-11
3.554e-10
-2.16e-11
3.683e-10
-2.408e-11
3.825e-10
-2.665e-11
3.981e-10
-2.93e-11
4.152e-10
-3.202e-11
4.337e-10
-3.481e-11
4.537e-10
-3.763e-11
4.752e-10
-4.046e-11
4.982e-10
-4.327e-11
5.226e-10
-4.602e-11
5.483e-10
-4.866e-11
5.754e-10
-5.113e-11
6.036e-10
-5.338e-11
6.328e-10
-5.533e-11
6.628e-10
-5.692e-11
6.933e-10
-5.808e-11
7.242e-10
-5.872e-11
7.551e-10
-5.877e-11
7.856e-10
-5.818e-11
8.155e-10
-5.687e-11
8.442e-10
-5.48e-11
8.714e-10
-5.194e-11
8.966e-10
-4.827e-11
9.195e-10
-4.378e-11
9.397e-10
-3.853e-11
9.567e-10
-3.254e-11
9.703e-10
-2.592e-11
9.801e-10
-1.878e-11
9.86e-10
-1.125e-11
9.879e-10
-3.499e-12
9.857e-10
4.304e-12
9.795e-10
1.198e-11
9.694e-10
1.936e-11
9.557e-10
2.63e-11
9.387e-10
3.268e-11
9.187e-10
3.841e-11
8.96e-10
4.342e-11
8.711e-10
4.768e-11
8.443e-10
5.116e-11
8.161e-10
5.389e-11
7.868e-10
5.588e-11
7.567e-10
5.716e-11
7.264e-10
5.779e-11
6.959e-10
5.781e-11
6.657e-10
5.729e-11
6.36e-10
5.63e-11
6.07e-10
5.489e-11
5.789e-10
5.314e-11
5.518e-10
5.111e-11
5.259e-10
4.887e-11
5.012e-10
4.647e-11
4.778e-10
4.396e-11
4.558e-10
4.14e-11
4.351e-10
3.881e-11
4.158e-10
3.624e-11
3.977e-10
3.372e-11
3.81e-10
3.127e-11
3.655e-10
2.89e-11
3.513e-10
2.664e-11
3.381e-10
2.448e-11
3.26e-10
2.244e-11
3.15e-10
2.053e-11
3.049e-10
1.873e-11
2.957e-10
1.706e-11
2.873e-10
1.551e-11
2.797e-10
1.407e-11
2.728e-10
1.274e-11
2.666e-10
1.152e-11
2.609e-10
1.04e-11
2.558e-10
9.372e-12
2.513e-10
8.434e-12
2.471e-10
7.579e-12
2.434e-10
6.801e-12
2.401e-10
6.095e-12
2.371e-10
5.455e-12
2.344e-10
4.876e-12
2.321e-10
4.354e-12
2.299e-10
3.884e-12
2.28e-10
3.462e-12
2.263e-10
3.086e-12
2.248e-10
2.751e-12
2.235e-10
2.456e-12
2.222e-10
2.199e-12
2.211e-10
1.978e-12
2.201e-10
1.793e-12
2.192e-10
1.645e-12
2.184e-10
1.533e-12
2.176e-10
1.461e-12
2.168e-10
1.432e-12
2.161e-10
1.448e-12
2.153e-10
1.516e-12
2.145e-10
1.633e-12
2.137e-10
1.785e-12
1.909e-12
9.752e-10
1.589e-10
9.931e-10
3.038e-10
9.729e-10
3.376e-10
9.271e-10
3.187e-10
8.694e-10
2.808e-10
8.091e-10
2.395e-10
7.513e-10
2.014e-10
6.984e-10
1.685e-10
6.513e-10
1.41e-10
6.1e-10
1.182e-10
5.741e-10
9.944e-11
5.43e-10
8.386e-11
5.163e-10
7.085e-11
4.933e-10
5.988e-11
4.737e-10
5.054e-11
4.57e-10
4.251e-11
4.43e-10
3.553e-11
4.313e-10
2.939e-11
4.218e-10
2.393e-11
4.142e-10
1.901e-11
4.084e-10
1.452e-11
4.042e-10
1.038e-11
4.017e-10
6.494e-12
4.006e-10
2.811e-12
4.01e-10
-7.311e-13
4.028e-10
-4.181e-12
4.059e-10
-7.581e-12
4.105e-10
-1.097e-11
4.165e-10
-1.438e-11
4.239e-10
-1.785e-11
4.328e-10
-2.139e-11
4.431e-10
-2.503e-11
4.55e-10
-2.879e-11
4.685e-10
-3.269e-11
4.836e-10
-3.672e-11
5.004e-10
-4.09e-11
5.19e-10
-4.521e-11
5.393e-10
-4.966e-11
5.615e-10
-5.423e-11
5.856e-10
-5.888e-11
6.116e-10
-6.359e-11
6.394e-10
-6.831e-11
6.691e-10
-7.298e-11
7.006e-10
-7.753e-11
7.339e-10
-8.189e-11
7.687e-10
-8.597e-11
8.05e-10
-8.966e-11
8.425e-10
-9.285e-11
8.81e-10
-9.543e-11
9.202e-10
-9.727e-11
9.597e-10
-9.826e-11
9.992e-10
-9.828e-11
1.038e-09
-9.721e-11
1.076e-09
-9.496e-11
1.113e-09
-9.145e-11
1.148e-09
-8.663e-11
1.18e-09
-8.047e-11
1.209e-09
-7.298e-11
1.235e-09
-6.421e-11
1.256e-09
-5.425e-11
1.274e-09
-4.323e-11
1.286e-09
-3.135e-11
1.294e-09
-1.884e-11
1.296e-09
-5.952e-12
1.294e-09
7.018e-12
1.286e-09
1.978e-11
1.273e-09
3.207e-11
1.256e-09
4.363e-11
1.234e-09
5.428e-11
1.209e-09
6.385e-11
1.18e-09
7.224e-11
1.148e-09
7.939e-11
1.114e-09
8.527e-11
1.078e-09
8.99e-11
1.041e-09
9.33e-11
1.002e-09
9.554e-11
9.635e-10
9.669e-11
9.245e-10
9.683e-11
8.857e-10
9.606e-11
8.475e-10
9.45e-11
8.102e-10
9.224e-11
7.739e-10
8.94e-11
7.389e-10
8.609e-11
7.054e-10
8.24e-11
6.734e-10
7.844e-11
6.431e-10
7.43e-11
6.144e-10
7.004e-11
5.875e-10
6.575e-11
5.623e-10
6.147e-11
5.387e-10
5.726e-11
5.168e-10
5.316e-11
4.965e-10
4.919e-11
4.778e-10
4.539e-11
4.605e-10
4.177e-11
4.446e-10
3.834e-11
4.3e-10
3.511e-11
4.167e-10
3.208e-11
4.045e-10
2.925e-11
3.934e-10
2.661e-11
3.833e-10
2.417e-11
3.741e-10
2.192e-11
3.658e-10
1.984e-11
3.582e-10
1.793e-11
3.514e-10
1.618e-11
3.453e-10
1.458e-11
3.398e-10
1.312e-11
3.348e-10
1.179e-11
3.303e-10
1.058e-11
3.263e-10
9.478e-12
3.227e-10
8.484e-12
3.194e-10
7.585e-12
3.165e-10
6.776e-12
3.139e-10
6.049e-12
3.116e-10
5.398e-12
3.096e-10
4.819e-12
3.077e-10
4.307e-12
3.061e-10
3.859e-12
3.046e-10
3.473e-12
3.032e-10
3.146e-12
3.02e-10
2.878e-12
3.008e-10
2.67e-12
2.998e-10
2.523e-12
2.988e-10
2.439e-12
2.978e-10
2.42e-12
2.968e-10
2.464e-12
2.959e-10
2.566e-12
2.95e-10
2.699e-12
2.802e-12
9.668e-10
1.296e-10
9.945e-10
2.761e-10
9.981e-10
3.34e-10
9.784e-10
3.383e-10
9.432e-10
3.161e-10
8.996e-10
2.831e-10
8.531e-10
2.478e-10
8.073e-10
2.143e-10
7.641e-10
1.842e-10
7.244e-10
1.579e-10
6.886e-10
1.352e-10
6.569e-10
1.157e-10
6.288e-10
9.886e-11
6.044e-10
8.436e-11
5.831e-10
7.177e-11
5.649e-10
6.075e-11
5.494e-10
5.103e-11
5.364e-10
4.237e-11
5.257e-10
3.459e-11
5.172e-10
2.752e-11
5.107e-10
2.103e-11
5.061e-10
1.498e-11
5.033e-10
9.293e-12
5.023e-10
3.87e-12
5.029e-10
-1.363e-12
5.052e-10
-6.473e-12
5.091e-10
-1.152e-11
5.147e-10
-1.656e-11
5.22e-10
-2.163e-11
5.309e-10
-2.678e-11
5.416e-10
-3.205e-11
5.54e-10
-3.747e-11
5.682e-10
-4.305e-11
5.844e-10
-4.882e-11
6.025e-10
-5.48e-11
6.225e-10
-6.098e-11
6.447e-10
-6.736e-11
6.689e-10
-7.392e-11
6.953e-10
-8.064e-11
7.24e-10
-8.749e-11
7.548e-10
-9.44e-11
7.878e-10
-1.013e-10
8.229e-10
-1.081e-10
8.602e-10
-1.148e-10
8.995e-10
-1.212e-10
9.406e-10
-1.271e-10
9.833e-10
-1.324e-10
1.028e-09
-1.37e-10
1.073e-09
-1.407e-10
1.119e-09
-1.434e-10
1.165e-09
-1.447e-10
1.212e-09
-1.447e-10
1.258e-09
-1.43e-10
1.302e-09
-1.396e-10
1.345e-09
-1.344e-10
1.386e-09
-1.273e-10
1.424e-09
-1.182e-10
1.458e-09
-1.072e-10
1.488e-09
-9.434e-11
1.514e-09
-7.972e-11
1.534e-09
-6.357e-11
1.549e-09
-4.615e-11
1.558e-09
-2.78e-11
1.561e-09
-8.9e-12
1.558e-09
1.012e-11
1.548e-09
2.885e-11
1.534e-09
4.688e-11
1.513e-09
6.386e-11
1.488e-09
7.949e-11
1.458e-09
9.357e-11
1.425e-09
1.059e-10
1.388e-09
1.165e-10
1.348e-09
1.252e-10
1.306e-09
1.321e-10
1.262e-09
1.372e-10
1.217e-09
1.406e-10
1.171e-09
1.424e-10
1.125e-09
1.427e-10
1.079e-09
1.417e-10
1.034e-09
1.395e-10
9.903e-10
1.363e-10
9.475e-10
1.322e-10
9.062e-10
1.274e-10
8.664e-10
1.221e-10
8.285e-10
1.164e-10
7.925e-10
1.103e-10
7.585e-10
1.041e-10
7.264e-10
9.782e-11
6.963e-10
9.155e-11
6.682e-10
8.537e-11
6.42e-10
7.933e-11
6.177e-10
7.349e-11
5.952e-10
6.788e-11
5.745e-10
6.253e-11
5.554e-10
5.745e-11
5.378e-10
5.267e-11
5.217e-10
4.817e-11
5.07e-10
4.397e-11
4.935e-10
4.005e-11
4.813e-10
3.642e-11
4.702e-10
3.306e-11
4.601e-10
2.996e-11
4.509e-10
2.71e-11
4.426e-10
2.448e-11
4.351e-10
2.208e-11
4.283e-10
1.989e-11
4.222e-10
1.789e-11
4.167e-10
1.607e-11
4.118e-10
1.442e-11
4.073e-10
1.292e-11
4.033e-10
1.157e-11
3.998e-10
1.035e-11
3.966e-10
9.246e-12
3.937e-10
8.261e-12
3.911e-10
7.382e-12
3.888e-10
6.603e-12
3.868e-10
5.919e-12
3.849e-10
5.325e-12
3.833e-10
4.819e-12
3.817e-10
4.397e-12
3.803e-10
4.06e-12
3.791e-10
3.807e-12
3.779e-10
3.638e-12
3.767e-10
3.552e-12
3.757e-10
3.545e-12
3.746e-10
3.603e-12
3.736e-10
3.698e-12
3.774e-12
9.592e-10
1.079e-10
9.877e-10
2.476e-10
1.003e-09
3.186e-10
1.001e-09
3.407e-10
9.834e-10
3.334e-10
9.557e-10
3.108e-10
9.22e-10
2.815e-10
8.858e-10
2.505e-10
8.495e-10
2.206e-10
8.146e-10
1.929e-10
7.819e-10
1.679e-10
7.519e-10
1.456e-10
7.248e-10
1.259e-10
7.007e-10
1.085e-10
6.795e-10
9.3e-11
6.61e-10
7.922e-11
6.452e-10
6.689e-11
6.318e-10
5.576e-11
6.207e-10
4.564e-11
6.119e-10
3.636e-11
6.052e-10
2.775e-11
6.005e-10
1.969e-11
5.977e-10
1.206e-11
5.968e-10
4.746e-12
5.978e-10
-2.34e-12
6.006e-10
-9.281e-12
6.052e-10
-1.615e-11
6.117e-10
-2.302e-11
6.2e-10
-2.995e-11
6.302e-10
-3.699e-11
6.424e-10
-4.419e-11
6.565e-10
-5.158e-11
6.726e-10
-5.92e-11
6.909e-10
-6.708e-11
7.113e-10
-7.522e-11
7.34e-10
-8.363e-11
7.589e-10
-9.231e-11
7.862e-10
-1.012e-10
8.159e-10
-1.103e-10
8.481e-10
-1.196e-10
8.826e-10
-1.29e-10
9.196e-10
-1.383e-10
9.591e-10
-1.476e-10
1.001e-09
-1.565e-10
1.045e-09
-1.651e-10
1.091e-09
-1.73e-10
1.138e-09
-1.802e-10
1.188e-09
-1.864e-10
1.238e-09
-1.913e-10
1.29e-09
-1.948e-10
1.342e-09
-1.965e-10
1.393e-09
-1.964e-10
1.444e-09
-1.941e-10
1.494e-09
-1.894e-10
1.542e-09
-1.823e-10
1.587e-09
-1.727e-10
1.629e-09
-1.603e-10
1.668e-09
-1.454e-10
1.701e-09
-1.28e-10
1.73e-09
-1.082e-10
1.752e-09
-8.631e-11
1.769e-09
-6.272e-11
1.779e-09
-3.786e-11
1.782e-09
-1.225e-11
1.779e-09
1.353e-11
1.769e-09
3.89e-11
1.753e-09
6.333e-11
1.73e-09
8.634e-11
1.702e-09
1.075e-10
1.669e-09
1.266e-10
1.632e-09
1.434e-10
1.59e-09
1.577e-10
1.546e-09
1.696e-10
1.499e-09
1.79e-10
1.45e-09
1.86e-10
1.4e-09
1.908e-10
1.349e-09
1.933e-10
1.298e-09
1.939e-10
1.247e-09
1.926e-10
1.197e-09
1.898e-10
1.147e-09
1.856e-10
1.099e-09
1.802e-10
1.053e-09
1.738e-10
1.008e-09
1.666e-10
9.659e-10
1.589e-10
9.255e-10
1.508e-10
8.872e-10
1.424e-10
8.511e-10
1.339e-10
8.172e-10
1.254e-10
7.855e-10
1.171e-10
7.559e-10
1.089e-10
7.284e-10
1.01e-10
7.03e-10
9.335e-11
6.794e-10
8.607e-11
6.577e-10
7.916e-11
6.378e-10
7.263e-11
6.194e-10
6.649e-11
6.027e-10
6.075e-11
5.873e-10
5.539e-11
5.733e-10
5.041e-11
5.606e-10
4.58e-11
5.49e-10
4.155e-11
5.385e-10
3.763e-11
5.289e-10
3.402e-11
5.203e-10
3.072e-11
5.125e-10
2.77e-11
5.054e-10
2.494e-11
4.991e-10
2.243e-11
4.934e-10
2.014e-11
4.882e-10
1.807e-11
4.836e-10
1.619e-11
4.795e-10
1.449e-11
4.757e-10
1.297e-11
4.724e-10
1.16e-11
4.694e-10
1.037e-11
4.667e-10
9.282e-12
4.643e-10
8.322e-12
4.622e-10
7.484e-12
4.602e-10
6.764e-12
4.585e-10
6.157e-12
4.569e-10
5.661e-12
4.554e-10
5.272e-12
4.541e-10
4.99e-12
4.528e-10
4.81e-12
4.516e-10
4.724e-12
4.505e-10
4.717e-12
4.494e-10
4.76e-12
4.806e-12
9.536e-10
9.176e-11
9.797e-10
2.216e-10
1e-09
2.983e-10
1.008e-09
3.325e-10
1.004e-09
3.378e-10
9.892e-10
3.254e-10
9.674e-10
3.033e-10
9.412e-10
2.767e-10
9.13e-10
2.488e-10
8.843e-10
2.215e-10
8.564e-10
1.958e-10
8.299e-10
1.721e-10
8.054e-10
1.504e-10
7.831e-10
1.308e-10
7.631e-10
1.13e-10
7.455e-10
9.684e-11
7.302e-10
8.217e-11
7.172e-10
6.875e-11
7.065e-10
5.641e-11
6.978e-10
4.497e-11
6.913e-10
3.427e-11
6.868e-10
2.418e-11
6.843e-10
1.455e-11
6.838e-10
5.285e-12
6.852e-10
-3.735e-12
6.885e-10
-1.26e-11
6.938e-10
-2.141e-11
7.01e-10
-3.023e-11
7.102e-10
-3.913e-11
7.214e-10
-4.819e-11
7.346e-10
-5.745e-11
7.5e-10
-6.697e-11
7.676e-10
-7.678e-11
7.874e-10
-8.69e-11
8.096e-10
-9.737e-11
8.341e-10
-1.082e-10
8.611e-10
-1.193e-10
8.906e-10
-1.308e-10
9.227e-10
-1.424e-10
9.574e-10
-1.543e-10
9.947e-10
-1.663e-10
1.035e-09
-1.782e-10
1.077e-09
-1.9e-10
1.122e-09
-2.015e-10
1.169e-09
-2.124e-10
1.219e-09
-2.225e-10
1.27e-09
-2.316e-10
1.323e-09
-2.394e-10
1.378e-09
-2.457e-10
1.433e-09
-2.5e-10
1.489e-09
-2.522e-10
1.544e-09
-2.52e-10
1.599e-09
-2.489e-10
1.653e-09
-2.43e-10
1.704e-09
-2.338e-10
1.753e-09
-2.214e-10
1.798e-09
-2.057e-10
1.839e-09
-1.865e-10
1.875e-09
-1.642e-10
1.906e-09
-1.389e-10
1.931e-09
-1.109e-10
1.949e-09
-8.063e-11
1.96e-09
-4.876e-11
1.963e-09
-1.591e-11
1.96e-09
1.716e-11
1.949e-09
4.971e-11
1.931e-09
8.103e-11
1.907e-09
1.105e-10
1.877e-09
1.377e-10
1.841e-09
1.621e-10
1.801e-09
1.836e-10
1.757e-09
2.02e-10
1.709e-09
2.173e-10
1.659e-09
2.294e-10
1.606e-09
2.385e-10
1.552e-09
2.446e-10
1.498e-09
2.48e-10
1.443e-09
2.489e-10
1.388e-09
2.474e-10
1.334e-09
2.439e-10
1.281e-09
2.386e-10
1.229e-09
2.318e-10
1.179e-09
2.237e-10
1.131e-09
2.146e-10
1.085e-09
2.048e-10
1.042e-09
1.945e-10
1e-09
1.838e-10
9.611e-10
1.73e-10
9.244e-10
1.621e-10
8.901e-10
1.514e-10
8.58e-10
1.41e-10
8.282e-10
1.308e-10
8.005e-10
1.21e-10
7.749e-10
1.117e-10
7.512e-10
1.028e-10
7.295e-10
9.44e-11
7.095e-10
8.649e-11
6.911e-10
7.909e-11
6.743e-10
7.217e-11
6.59e-10
6.575e-11
6.45e-10
5.979e-11
6.323e-10
5.428e-11
6.207e-10
4.92e-11
6.102e-10
4.453e-11
6.007e-10
4.024e-11
5.921e-10
3.631e-11
5.843e-10
3.273e-11
5.773e-10
2.946e-11
5.709e-10
2.648e-11
5.652e-10
2.378e-11
5.601e-10
2.132e-11
5.555e-10
1.911e-11
5.513e-10
1.711e-11
5.476e-10
1.531e-11
5.443e-10
1.37e-11
5.413e-10
1.227e-11
5.386e-10
1.1e-11
5.362e-10
9.89e-12
5.34e-10
8.928e-12
5.321e-10
8.108e-12
5.303e-10
7.426e-12
5.287e-10
6.877e-12
5.272e-10
6.456e-12
5.259e-10
6.158e-12
5.247e-10
5.973e-12
5.235e-10
5.884e-12
5.224e-10
5.866e-12
5.878e-12
9.498e-10
7.943e-11
9.727e-10
1.988e-10
9.943e-10
2.767e-10
1.008e-09
3.184e-10
1.013e-09
3.333e-10
1.008e-09
3.299e-10
9.965e-10
3.15e-10
9.795e-10
2.936e-10
9.593e-10
2.69e-10
9.374e-10
2.435e-10
9.15e-10
2.182e-10
8.93e-10
1.941e-10
8.721e-10
1.714e-10
8.525e-10
1.503e-10
8.347e-10
1.308e-10
8.188e-10
1.128e-10
8.049e-10
9.613e-11
7.929e-10
8.071e-11
7.83e-10
6.636e-11
7.75e-10
5.291e-11
7.691e-10
4.023e-11
7.651e-10
2.816e-11
7.631e-10
1.658e-11
7.63e-10
5.366e-12
7.648e-10
-5.599e-12
7.687e-10
-1.642e-11
7.744e-10
-2.719e-11
7.822e-10
-3.801e-11
7.92e-10
-4.895e-11
8.04e-10
-6.009e-11
8.18e-10
-7.149e-11
8.342e-10
-8.321e-11
8.528e-10
-9.529e-11
8.736e-10
-1.078e-10
8.969e-10
-1.206e-10
9.227e-10
-1.339e-10
9.51e-10
-1.476e-10
9.819e-10
-1.617e-10
1.016e-09
-1.76e-10
1.052e-09
-1.906e-10
1.091e-09
-2.053e-10
1.133e-09
-2.199e-10
1.177e-09
-2.344e-10
1.224e-09
-2.484e-10
1.273e-09
-2.617e-10
1.325e-09
-2.741e-10
1.379e-09
-2.853e-10
1.434e-09
-2.948e-10
1.491e-09
-3.024e-10
1.548e-09
-3.078e-10
1.607e-09
-3.104e-10
1.665e-09
-3.1e-10
1.722e-09
-3.063e-10
1.778e-09
-2.989e-10
1.832e-09
-2.877e-10
1.883e-09
-2.724e-10
1.93e-09
-2.531e-10
1.973e-09
-2.296e-10
2.011e-09
-2.022e-10
2.044e-09
-1.711e-10
2.069e-09
-1.367e-10
2.088e-09
-9.949e-11
2.1e-09
-6.024e-11
2.104e-09
-1.977e-11
2.1e-09
2.098e-11
2.088e-09
6.106e-11
2.07e-09
9.961e-11
2.045e-09
1.359e-10
2.013e-09
1.692e-10
1.976e-09
1.992e-10
1.934e-09
2.256e-10
1.888e-09
2.482e-10
1.838e-09
2.67e-10
1.785e-09
2.82e-10
1.731e-09
2.932e-10
1.674e-09
3.009e-10
1.617e-09
3.052e-10
1.56e-09
3.063e-10
1.503e-09
3.046e-10
1.446e-09
3.004e-10
1.391e-09
2.94e-10
1.337e-09
2.857e-10
1.285e-09
2.759e-10
1.234e-09
2.649e-10
1.186e-09
2.529e-10
1.14e-09
2.402e-10
1.097e-09
2.272e-10
1.056e-09
2.139e-10
1.018e-09
2.006e-10
9.816e-10
1.875e-10
9.479e-10
1.747e-10
9.165e-10
1.622e-10
8.874e-10
1.502e-10
8.604e-10
1.387e-10
8.355e-10
1.277e-10
8.126e-10
1.174e-10
7.914e-10
1.076e-10
7.72e-10
9.848e-11
7.543e-10
8.994e-11
7.38e-10
8.199e-11
7.232e-10
7.462e-11
7.097e-10
6.78e-11
6.974e-10
6.15e-11
6.862e-10
5.571e-11
6.76e-10
5.038e-11
6.669e-10
4.551e-11
6.585e-10
4.105e-11
6.51e-10
3.697e-11
6.442e-10
3.326e-11
6.381e-10
2.989e-11
6.326e-10
2.683e-11
6.277e-10
2.406e-11
6.232e-10
2.156e-11
6.192e-10
1.931e-11
6.156e-10
1.729e-11
6.124e-10
1.549e-11
6.095e-10
1.389e-11
6.069e-10
1.248e-11
6.046e-10
1.125e-11
6.025e-10
1.02e-11
6.006e-10
9.308e-12
5.989e-10
8.578e-12
5.974e-10
7.999e-12
5.96e-10
7.565e-12
5.947e-10
7.265e-12
5.935e-10
7.082e-12
5.924e-10
6.994e-12
6.97e-12
9.472e-10
6.971e-11
9.671e-10
1.79e-10
9.884e-10
2.554e-10
1.005e-09
3.014e-10
1.016e-09
3.232e-10
1.018e-09
3.271e-10
1.015e-09
3.188e-10
1.006e-09
3.027e-10
9.926e-10
2.819e-10
9.773e-10
2.588e-10
9.606e-10
2.349e-10
9.435e-10
2.112e-10
9.266e-10
1.883e-10
9.104e-10
1.664e-10
8.954e-10
1.458e-10
8.817e-10
1.264e-10
8.696e-10
1.082e-10
8.591e-10
9.116e-11
8.504e-10
7.507e-11
8.435e-10
5.983e-11
8.384e-10
4.533e-11
8.351e-10
3.143e-11
8.337e-10
1.799e-11
8.342e-10
4.907e-12
8.365e-10
-7.949e-12
8.408e-10
-2.069e-11
8.47e-10
-3.341e-11
8.552e-10
-4.622e-11
8.655e-10
-5.919e-11
8.778e-10
-7.242e-11
8.923e-10
-8.597e-11
9.09e-10
-9.991e-11
9.279e-10
-1.143e-10
9.493e-10
-1.291e-10
9.731e-10
-1.444e-10
9.994e-10
-1.602e-10
1.028e-09
-1.765e-10
1.06e-09
-1.932e-10
1.094e-09
-2.103e-10
1.131e-09
-2.276e-10
1.171e-09
-2.45e-10
1.213e-09
-2.624e-10
1.258e-09
-2.796e-10
1.306e-09
-2.962e-10
1.357e-09
-3.12e-10
1.409e-09
-3.267e-10
1.464e-09
-3.399e-10
1.52e-09
-3.513e-10
1.578e-09
-3.603e-10
1.637e-09
-3.666e-10
1.696e-09
-3.697e-10
1.755e-09
-3.692e-10
1.814e-09
-3.647e-10
1.871e-09
-3.56e-10
1.926e-09
-3.426e-10
1.978e-09
-3.245e-10
2.026e-09
-3.015e-10
2.07e-09
-2.737e-10
2.109e-09
-2.411e-10
2.142e-09
-2.042e-10
2.169e-09
-1.632e-10
2.188e-09
-1.189e-10
2.2e-09
-7.203e-11
2.204e-09
-2.372e-11
2.2e-09
2.493e-11
2.188e-09
7.275e-11
2.169e-09
1.187e-10
2.143e-09
1.618e-10
2.111e-09
2.014e-10
2.073e-09
2.371e-10
2.03e-09
2.684e-10
1.983e-09
2.953e-10
1.933e-09
3.176e-10
1.879e-09
3.355e-10
1.823e-09
3.489e-10
1.766e-09
3.581e-10
1.708e-09
3.633e-10
1.65e-09
3.648e-10
1.591e-09
3.629e-10
1.534e-09
3.58e-10
1.477e-09
3.505e-10
1.422e-09
3.407e-10
1.369e-09
3.291e-10
1.318e-09
3.161e-10
1.269e-09
3.019e-10
1.222e-09
2.869e-10
1.178e-09
2.714e-10
1.136e-09
2.557e-10
1.097e-09
2.4e-10
1.06e-09
2.244e-10
1.026e-09
2.091e-10
9.934e-10
1.943e-10
9.636e-10
1.8e-10
9.36e-10
1.663e-10
9.104e-10
1.533e-10
8.868e-10
1.409e-10
8.652e-10
1.293e-10
8.452e-10
1.184e-10
8.269e-10
1.082e-10
8.102e-10
9.872e-11
7.949e-10
8.991e-11
7.81e-10
8.174e-11
7.683e-10
7.421e-11
7.567e-10
6.726e-11
7.462e-10
6.088e-11
7.367e-10
5.503e-11
7.281e-10
4.967e-11
7.203e-10
4.478e-11
7.132e-10
4.032e-11
7.068e-10
3.626e-11
7.011e-10
3.257e-11
6.959e-10
2.923e-11
6.913e-10
2.621e-11
6.871e-10
2.348e-11
6.834e-10
2.104e-11
6.8e-10
1.885e-11
6.77e-10
1.69e-11
6.743e-10
1.518e-11
6.719e-10
1.367e-11
6.697e-10
1.237e-11
6.678e-10
1.126e-11
6.66e-10
1.033e-11
6.644e-10
9.582e-12
6.63e-10
8.999e-12
6.617e-10
8.572e-12
6.605e-10
8.286e-12
6.593e-10
8.124e-12
8.062e-12
9.454e-10
6.181e-11
9.627e-10
1.617e-10
9.829e-10
2.351e-10
1.001e-09
2.831e-10
1.015e-09
3.095e-10
1.023e-09
3.192e-10
1.025e-09
3.165e-10
1.023e-09
3.052e-10
1.016e-09
2.884e-10
1.007e-09
2.681e-10
9.956e-10
2.462e-10
9.833e-10
2.235e-10
9.706e-10
2.01e-10
9.581e-10
1.79e-10
9.461e-10
1.578e-10
9.35e-10
1.375e-10
9.251e-10
1.182e-10
9.165e-10
9.979e-11
9.093e-10
8.226e-11
9.036e-10
6.55e-11
8.995e-10
4.939e-11
8.971e-10
3.383e-11
8.964e-10
1.87e-11
8.975e-10
3.87e-12
9.003e-10
-1.077e-11
9.049e-10
-2.533e-11
9.115e-10
-3.993e-11
9.199e-10
-5.466e-11
9.303e-10
-6.961e-11
9.428e-10
-8.488e-11
9.573e-10
-1.005e-10
9.741e-10
-1.166e-10
9.931e-10
-1.333e-10
1.014e-09
-1.504e-10
1.038e-09
-1.682e-10
1.064e-09
-1.865e-10
1.093e-09
-2.053e-10
1.124e-09
-2.246e-10
1.159e-09
-2.444e-10
1.195e-09
-2.644e-10
1.235e-09
-2.846e-10
1.277e-09
-3.047e-10
1.322e-09
-3.245e-10
1.37e-09
-3.437e-10
1.42e-09
-3.62e-10
1.472e-09
-3.79e-10
1.526e-09
-3.943e-10
1.582e-09
-4.074e-10
1.64e-09
-4.178e-10
1.698e-09
-4.251e-10
1.757e-09
-4.286e-10
1.816e-09
-4.281e-10
1.875e-09
-4.229e-10
1.931e-09
-4.127e-10
1.986e-09
-3.973e-10
2.038e-09
-3.764e-10
2.086e-09
-3.498e-10
2.13e-09
-3.176e-10
2.169e-09
-2.8e-10
2.202e-09
-2.372e-10
2.228e-09
-1.897e-10
2.248e-09
-1.383e-10
2.26e-09
-8.383e-11
2.264e-09
-2.762e-11
2.259e-09
2.897e-11
2.248e-09
8.456e-11
2.229e-09
1.379e-10
2.203e-09
1.878e-10
2.17e-09
2.336e-10
2.133e-09
2.748e-10
2.09e-09
3.11e-10
2.043e-09
3.42e-10
1.993e-09
3.679e-10
1.94e-09
3.885e-10
1.885e-09
4.041e-10
1.828e-09
4.149e-10
1.77e-09
4.21e-10
1.712e-09
4.229e-10
1.654e-09
4.209e-10
1.597e-09
4.153e-10
1.541e-09
4.067e-10
1.486e-09
3.955e-10
1.433e-09
3.821e-10
1.382e-09
3.67e-10
1.333e-09
3.507e-10
1.287e-09
3.334e-10
1.243e-09
3.155e-10
1.201e-09
2.973e-10
1.162e-09
2.791e-10
1.125e-09
2.611e-10
1.091e-09
2.434e-10
1.059e-09
2.263e-10
1.029e-09
2.097e-10
1.001e-09
1.939e-10
9.758e-10
1.788e-10
9.523e-10
1.645e-10
9.305e-10
1.51e-10
9.106e-10
1.384e-10
8.923e-10
1.265e-10
8.755e-10
1.155e-10
8.601e-10
1.053e-10
8.461e-10
9.576e-11
8.333e-10
8.699e-11
8.217e-10
7.89e-11
8.111e-10
7.146e-11
8.015e-10
6.464e-11
7.928e-10
5.838e-11
7.849e-10
5.267e-11
7.778e-10
4.745e-11
7.713e-10
4.27e-11
7.655e-10
3.838e-11
7.603e-10
3.447e-11
7.555e-10
3.092e-11
7.513e-10
2.772e-11
7.475e-10
2.484e-11
7.441e-10
2.227e-11
7.41e-10
1.996e-11
7.383e-10
1.792e-11
7.358e-10
1.613e-11
7.336e-10
1.457e-11
7.316e-10
1.323e-11
7.299e-10
1.21e-11
7.283e-10
1.117e-11
7.269e-10
1.043e-11
7.256e-10
9.866e-12
7.244e-10
9.473e-12
7.233e-10
9.233e-12
9.132e-12
9.441e-10
5.521e-11
9.593e-10
1.465e-10
9.782e-10
2.162e-10
9.968e-10
2.644e-10
1.013e-09
2.938e-10
1.024e-09
3.077e-10
1.031e-09
3.096e-10
1.034e-09
3.026e-10
1.032e-09
2.895e-10
1.028e-09
2.722e-10
1.022e-09
2.524e-10
1.014e-09
2.313e-10
1.006e-09
2.096e-10
9.969e-10
1.879e-10
9.881e-10
1.666e-10
9.797e-10
1.458e-10
9.722e-10
1.258e-10
9.655e-10
1.064e-10
9.6e-10
8.778e-11
9.557e-10
6.976e-11
9.528e-10
5.231e-11
9.514e-10
3.531e-11
9.514e-10
1.866e-11
9.53e-10
2.258e-12
9.563e-10
-1.401e-11
9.612e-10
-3.027e-11
9.679e-10
-4.661e-11
9.764e-10
-6.314e-11
9.867e-10
-7.997e-11
9.99e-10
-9.717e-11
1.013e-09
-1.148e-10
1.03e-09
-1.33e-10
1.048e-09
-1.518e-10
1.069e-09
-1.712e-10
1.092e-09
-1.913e-10
1.118e-09
-2.12e-10
1.146e-09
-2.333e-10
1.176e-09
-2.551e-10
1.209e-09
-2.774e-10
1.245e-09
-3.001e-10
1.283e-09
-3.229e-10
1.324e-09
-3.457e-10
1.368e-09
-3.681e-10
1.414e-09
-3.899e-10
1.463e-09
-4.106e-10
1.513e-09
-4.298e-10
1.566e-09
-4.472e-10
1.621e-09
-4.62e-10
1.677e-09
-4.738e-10
1.734e-09
-4.82e-10
1.791e-09
-4.86e-10
1.848e-09
-4.853e-10
1.905e-09
-4.793e-10
1.96e-09
-4.678e-10
2.013e-09
-4.503e-10
2.063e-09
-4.266e-10
2.11e-09
-3.966e-10
2.152e-09
-3.602e-10
2.19e-09
-3.176e-10
2.222e-09
-2.692e-10
2.248e-09
-2.155e-10
2.267e-09
-1.572e-10
2.278e-09
-9.528e-11
2.282e-09
-3.132e-11
2.278e-09
3.304e-11
2.266e-09
9.619e-11
2.247e-09
1.566e-10
2.222e-09
2.131e-10
2.191e-09
2.648e-10
2.154e-09
3.112e-10
2.113e-09
3.52e-10
2.068e-09
3.871e-10
2.02e-09
4.163e-10
1.969e-09
4.398e-10
1.915e-09
4.576e-10
1.86e-09
4.699e-10
1.804e-09
4.77e-10
1.748e-09
4.793e-10
1.692e-09
4.771e-10
1.636e-09
4.709e-10
1.581e-09
4.613e-10
1.528e-09
4.487e-10
1.477e-09
4.336e-10
1.427e-09
4.166e-10
1.38e-09
3.981e-10
1.334e-09
3.786e-10
1.292e-09
3.584e-10
1.251e-09
3.378e-10
1.213e-09
3.172e-10
1.177e-09
2.969e-10
1.144e-09
2.769e-10
1.113e-09
2.575e-10
1.084e-09
2.387e-10
1.057e-09
2.208e-10
1.032e-09
2.037e-10
1.009e-09
1.875e-10
9.876e-10
1.722e-10
9.681e-10
1.579e-10
9.502e-10
1.444e-10
9.338e-10
1.319e-10
9.188e-10
1.203e-10
9.051e-10
1.095e-10
8.925e-10
9.952e-11
8.811e-10
9.032e-11
8.707e-10
8.186e-11
8.613e-10
7.408e-11
8.527e-10
6.696e-11
8.449e-10
6.044e-11
8.379e-10
5.449e-11
8.315e-10
4.906e-11
8.258e-10
4.413e-11
8.206e-10
3.965e-11
8.159e-10
3.559e-11
8.117e-10
3.192e-11
8.079e-10
2.862e-11
8.046e-10
2.565e-11
8.015e-10
2.3e-11
7.988e-10
2.064e-11
7.964e-10
1.856e-11
7.942e-10
1.674e-11
7.923e-10
1.517e-11
7.905e-10
1.383e-11
7.89e-10
1.272e-11
7.876e-10
1.182e-11
7.863e-10
1.112e-11
7.852e-10
1.062e-11
7.841e-10
1.03e-11
1.016e-11
9.431e-10
4.959e-11
9.566e-10
1.33e-10
9.742e-10
1.986e-10
9.926e-10
2.461e-10
1.009e-09
2.769e-10
1.023e-09
2.938e-10
1.034e-09
2.993e-10
1.04e-09
2.96e-10
1.043e-09
2.862e-10
1.044e-09
2.718e-10
1.042e-09
2.543e-10
1.038e-09
2.349e-10
1.034e-09
2.143e-10
1.028e-09
1.933e-10
1.022e-09
1.723e-10
1.017e-09
1.514e-10
1.012e-09
1.31e-10
1.007e-09
1.11e-10
1.003e-09
9.156e-11
1e-09
7.258e-11
9.987e-10
5.403e-11
9.981e-10
3.583e-11
9.989e-10
1.789e-11
1.001e-09
1.179e-13
1.005e-09
-1.76e-11
1.01e-09
-3.537e-11
1.016e-09
-5.329e-11
1.025e-09
-7.147e-11
1.035e-09
-9.002e-11
1.047e-09
-1.09e-10
1.06e-09
-1.285e-10
1.076e-09
-1.487e-10
1.094e-09
-1.695e-10
1.113e-09
-1.91e-10
1.135e-09
-2.132e-10
1.159e-09
-2.361e-10
1.186e-09
-2.598e-10
1.215e-09
-2.84e-10
1.246e-09
-3.088e-10
1.28e-09
-3.339e-10
1.316e-09
-3.593e-10
1.355e-09
-3.845e-10
1.396e-09
-4.094e-10
1.44e-09
-4.336e-10
1.486e-09
-4.566e-10
1.534e-09
-4.78e-10
1.585e-09
-4.972e-10
1.636e-09
-5.137e-10
1.689e-09
-5.267e-10
1.743e-09
-5.358e-10
1.797e-09
-5.401e-10
1.851e-09
-5.392e-10
1.904e-09
-5.325e-10
1.956e-09
-5.195e-10
2.006e-09