/*--------------------------------*- C++ -*----------------------------------*\
  =========                 |
  \\      /  F ield         | OpenFOAM: The Open Source CFD Toolbox
   \\    /   O peration     | Website:  https://openfoam.org
    \\  /    A nd           | Version:  7
     \\/     M anipulation  |
\*---------------------------------------------------------------------------*/
FoamFile
{
    version     2.0;
    format      ascii;
    class       volVectorField;
    location    "299.999473411257384";
    object      U;
}
// * * * * * * * * * * * * * * * * * * * * * * * * * * * * * * * * * * * * * //

dimensions      [0 1 -1 0 0 0 0];

internalField   nonuniform List<vector> 
4096
(
(0.001039 0.0001611 0)
(0.0007463 0.0001314 0)
(0.0005302 8.474e-05 0)
(0.0003918 5.358e-05 0)
(0.0003036 3.465e-05 0)
(0.0002457 2.326e-05 0)
(0.0002061 1.63e-05 0)
(0.0001779 1.191e-05 0)
(0.000157 9.013e-06 0)
(0.000141 7.018e-06 0)
(0.0001284 5.584e-06 0)
(0.0001183 4.514e-06 0)
(0.0001101 3.691e-06 0)
(0.0001034 3.041e-06 0)
(9.78e-05 2.515e-06 0)
(9.32e-05 2.081e-06 0)
(8.94e-05 1.717e-06 0)
(8.628e-05 1.406e-06 0)
(8.374e-05 1.135e-06 0)
(8.171e-05 8.961e-07 0)
(8.013e-05 6.818e-07 0)
(7.896e-05 4.865e-07 0)
(7.817e-05 3.055e-07 0)
(7.773e-05 1.351e-07 0)
(7.762e-05 -2.78e-08 0)
(7.784e-05 -1.859e-07 0)
(7.836e-05 -3.416e-07 0)
(7.92e-05 -4.968e-07 0)
(8.035e-05 -6.534e-07 0)
(8.182e-05 -8.128e-07 0)
(8.361e-05 -9.766e-07 0)
(8.573e-05 -1.146e-06 0)
(8.82e-05 -1.322e-06 0)
(9.102e-05 -1.505e-06 0)
(9.423e-05 -1.696e-06 0)
(9.782e-05 -1.895e-06 0)
(0.0001018 -2.102e-06 0)
(0.0001062 -2.318e-06 0)
(0.0001111 -2.541e-06 0)
(0.0001164 -2.77e-06 0)
(0.0001222 -3.003e-06 0)
(0.0001284 -3.24e-06 0)
(0.0001351 -3.476e-06 0)
(0.0001423 -3.709e-06 0)
(0.00015 -3.934e-06 0)
(0.000158 -4.148e-06 0)
(0.0001665 -4.345e-06 0)
(0.0001754 -4.519e-06 0)
(0.0001846 -4.664e-06 0)
(0.000194 -4.773e-06 0)
(0.0002036 -4.841e-06 0)
(0.0002133 -4.86e-06 0)
(0.000223 -4.824e-06 0)
(0.0002326 -4.729e-06 0)
(0.0002419 -4.568e-06 0)
(0.0002508 -4.339e-06 0)
(0.0002592 -4.04e-06 0)
(0.0002669 -3.671e-06 0)
(0.0002738 -3.234e-06 0)
(0.0002797 -2.733e-06 0)
(0.0002846 -2.176e-06 0)
(0.0002884 -1.572e-06 0)
(0.0002909 -9.35e-07 0)
(0.0002921 -2.778e-07 0)
(0.000292 3.834e-07 0)
(0.0002906 1.033e-06 0)
(0.0002879 1.655e-06 0)
(0.000284 2.238e-06 0)
(0.000279 2.77e-06 0)
(0.000273 3.244e-06 0)
(0.0002661 3.655e-06 0)
(0.0002584 4e-06 0)
(0.0002502 4.279e-06 0)
(0.0002414 4.492e-06 0)
(0.0002323 4.642e-06 0)
(0.0002229 4.732e-06 0)
(0.0002134 4.767e-06 0)
(0.0002039 4.753e-06 0)
(0.0001944 4.694e-06 0)
(0.0001851 4.596e-06 0)
(0.0001761 4.465e-06 0)
(0.0001673 4.307e-06 0)
(0.0001589 4.128e-06 0)
(0.0001508 3.932e-06 0)
(0.0001431 3.726e-06 0)
(0.0001359 3.512e-06 0)
(0.0001291 3.295e-06 0)
(0.0001227 3.078e-06 0)
(0.0001168 2.865e-06 0)
(0.0001113 2.656e-06 0)
(0.0001061 2.454e-06 0)
(0.0001014 2.261e-06 0)
(9.709e-05 2.076e-06 0)
(9.311e-05 1.902e-06 0)
(8.948e-05 1.738e-06 0)
(8.615e-05 1.584e-06 0)
(8.313e-05 1.441e-06 0)
(8.038e-05 1.308e-06 0)
(7.789e-05 1.185e-06 0)
(7.563e-05 1.071e-06 0)
(7.359e-05 9.671e-07 0)
(7.175e-05 8.715e-07 0)
(7.01e-05 7.841e-07 0)
(6.861e-05 7.043e-07 0)
(6.727e-05 6.317e-07 0)
(6.608e-05 5.656e-07 0)
(6.5e-05 5.058e-07 0)
(6.405e-05 4.516e-07 0)
(6.319e-05 4.027e-07 0)
(6.243e-05 3.585e-07 0)
(6.175e-05 3.188e-07 0)
(6.115e-05 2.832e-07 0)
(6.062e-05 2.513e-07 0)
(6.014e-05 2.23e-07 0)
(5.972e-05 1.979e-07 0)
(5.935e-05 1.759e-07 0)
(5.902e-05 1.568e-07 0)
(5.872e-05 1.406e-07 0)
(5.845e-05 1.272e-07 0)
(5.821e-05 1.169e-07 0)
(5.798e-05 1.098e-07 0)
(5.776e-05 1.064e-07 0)
(5.755e-05 1.077e-07 0)
(5.733e-05 1.155e-07 0)
(5.708e-05 1.33e-07 0)
(5.678e-05 1.659e-07 0)
(5.639e-05 2.204e-07 0)
(5.589e-05 2.863e-07 0)
(0.001209 0.0003128 0)
(0.001154 0.0003282 0)
(0.00101 0.000248 0)
(0.0008613 0.000177 0)
(0.0007346 0.0001262 0)
(0.0006329 9.134e-05 0)
(0.0005529 6.775e-05 0)
(0.00049 5.157e-05 0)
(0.0004401 4.018e-05 0)
(0.0004 3.193e-05 0)
(0.0003675 2.578e-05 0)
(0.0003409 2.107e-05 0)
(0.0003189 1.736e-05 0)
(0.0003006 1.439e-05 0)
(0.0002853 1.196e-05 0)
(0.0002726 9.936e-06 0)
(0.0002621 8.222e-06 0)
(0.0002533 6.748e-06 0)
(0.0002462 5.461e-06 0)
(0.0002405 4.32e-06 0)
(0.000236 3.292e-06 0)
(0.0002327 2.353e-06 0)
(0.0002305 1.481e-06 0)
(0.0002292 6.599e-07 0)
(0.0002289 -1.263e-07 0)
(0.0002295 -8.895e-07 0)
(0.000231 -1.64e-06 0)
(0.0002333 -2.389e-06 0)
(0.0002365 -3.143e-06 0)
(0.0002407 -3.909e-06 0)
(0.0002457 -4.695e-06 0)
(0.0002516 -5.506e-06 0)
(0.0002586 -6.345e-06 0)
(0.0002665 -7.218e-06 0)
(0.0002754 -8.126e-06 0)
(0.0002854 -9.07e-06 0)
(0.0002965 -1.005e-05 0)
(0.0003088 -1.107e-05 0)
(0.0003223 -1.211e-05 0)
(0.000337 -1.319e-05 0)
(0.0003529 -1.428e-05 0)
(0.0003701 -1.538e-05 0)
(0.0003885 -1.648e-05 0)
(0.0004081 -1.755e-05 0)
(0.000429 -1.859e-05 0)
(0.000451 -1.957e-05 0)
(0.000474 -2.046e-05 0)
(0.000498 -2.125e-05 0)
(0.0005228 -2.19e-05 0)
(0.0005482 -2.238e-05 0)
(0.000574 -2.266e-05 0)
(0.0006 -2.271e-05 0)
(0.0006258 -2.252e-05 0)
(0.0006513 -2.204e-05 0)
(0.000676 -2.126e-05 0)
(0.0006996 -2.017e-05 0)
(0.0007218 -1.876e-05 0)
(0.0007422 -1.704e-05 0)
(0.0007604 -1.5e-05 0)
(0.0007761 -1.267e-05 0)
(0.0007891 -1.009e-05 0)
(0.000799 -7.298e-06 0)
(0.0008056 -4.354e-06 0)
(0.0008088 -1.321e-06 0)
(0.0008086 1.731e-06 0)
(0.000805 4.731e-06 0)
(0.0007981 7.612e-06 0)
(0.0007879 1.032e-05 0)
(0.0007748 1.279e-05 0)
(0.000759 1.501e-05 0)
(0.0007409 1.694e-05 0)
(0.0007207 1.856e-05 0)
(0.0006988 1.989e-05 0)
(0.0006756 2.091e-05 0)
(0.0006513 2.164e-05 0)
(0.0006263 2.21e-05 0)
(0.0006009 2.231e-05 0)
(0.0005753 2.227e-05 0)
(0.0005499 2.203e-05 0)
(0.0005248 2.161e-05 0)
(0.0005003 2.103e-05 0)
(0.0004765 2.032e-05 0)
(0.0004535 1.951e-05 0)
(0.0004315 1.862e-05 0)
(0.0004106 1.767e-05 0)
(0.0003907 1.669e-05 0)
(0.0003719 1.568e-05 0)
(0.0003543 1.468e-05 0)
(0.0003378 1.368e-05 0)
(0.0003225 1.27e-05 0)
(0.0003082 1.176e-05 0)
(0.0002951 1.085e-05 0)
(0.0002829 9.981e-06 0)
(0.0002717 9.157e-06 0)
(0.0002615 8.38e-06 0)
(0.0002521 7.651e-06 0)
(0.0002435 6.97e-06 0)
(0.0002357 6.336e-06 0)
(0.0002286 5.749e-06 0)
(0.0002222 5.207e-06 0)
(0.0002163 4.707e-06 0)
(0.000211 4.248e-06 0)
(0.0002063 3.828e-06 0)
(0.000202 3.444e-06 0)
(0.0001981 3.094e-06 0)
(0.0001946 2.775e-06 0)
(0.0001915 2.485e-06 0)
(0.0001887 2.223e-06 0)
(0.0001862 1.985e-06 0)
(0.000184 1.771e-06 0)
(0.000182 1.578e-06 0)
(0.0001802 1.405e-06 0)
(0.0001786 1.249e-06 0)
(0.0001772 1.111e-06 0)
(0.000176 9.88e-07 0)
(0.0001749 8.801e-07 0)
(0.0001739 7.864e-07 0)
(0.000173 7.065e-07 0)
(0.0001721 6.403e-07 0)
(0.0001714 5.882e-07 0)
(0.0001707 5.511e-07 0)
(0.0001701 5.306e-07 0)
(0.0001694 5.295e-07 0)
(0.0001688 5.526e-07 0)
(0.0001681 6.076e-07 0)
(0.0001674 7.049e-07 0)
(0.0001666 8.5e-07 0)
(0.0001658 1.002e-06 0)
(0.001226 0.0002775 0)
(0.001243 0.0004027 0)
(0.001194 0.0003664 0)
(0.001103 0.0002981 0)
(0.001 0.0002343 0)
(0.0009021 0.0001828 0)
(0.0008151 0.0001433 0)
(0.0007403 0.0001137 0)
(0.0006771 9.127e-05 0)
(0.0006238 7.415e-05 0)
(0.0005791 6.085e-05 0)
(0.0005414 5.034e-05 0)
(0.0005096 4.188e-05 0)
(0.0004828 3.497e-05 0)
(0.0004602 2.924e-05 0)
(0.0004411 2.44e-05 0)
(0.0004252 2.027e-05 0)
(0.0004119 1.668e-05 0)
(0.000401 1.353e-05 0)
(0.0003923 1.073e-05 0)
(0.0003854 8.186e-06 0)
(0.0003803 5.855e-06 0)
(0.0003769 3.686e-06 0)
(0.000375 1.636e-06 0)
(0.0003745 -3.276e-07 0)
(0.0003755 -2.236e-06 0)
(0.0003778 -4.114e-06 0)
(0.0003815 -5.985e-06 0)
(0.0003866 -7.868e-06 0)
(0.0003931 -9.782e-06 0)
(0.000401 -1.174e-05 0)
(0.0004103 -1.376e-05 0)
(0.0004212 -1.584e-05 0)
(0.0004336 -1.801e-05 0)
(0.0004475 -2.025e-05 0)
(0.0004632 -2.259e-05 0)
(0.0004805 -2.5e-05 0)
(0.0004996 -2.75e-05 0)
(0.0005205 -3.007e-05 0)
(0.0005433 -3.269e-05 0)
(0.000568 -3.536e-05 0)
(0.0005945 -3.804e-05 0)
(0.000623 -4.069e-05 0)
(0.0006533 -4.33e-05 0)
(0.0006854 -4.58e-05 0)
(0.0007192 -4.814e-05 0)
(0.0007545 -5.028e-05 0)
(0.0007912 -5.214e-05 0)
(0.0008291 -5.366e-05 0)
(0.0008679 -5.477e-05 0)
(0.0009072 -5.54e-05 0)
(0.0009468 -5.547e-05 0)
(0.0009861 -5.492e-05 0)
(0.001025 -5.371e-05 0)
(0.001062 -5.177e-05 0)
(0.001098 -4.908e-05 0)
(0.001132 -4.561e-05 0)
(0.001162 -4.139e-05 0)
(0.00119 -3.642e-05 0)
(0.001214 -3.077e-05 0)
(0.001233 -2.45e-05 0)
(0.001248 -1.775e-05 0)
(0.001258 -1.062e-05 0)
(0.001263 -3.282e-06 0)
(0.001263 4.102e-06 0)
(0.001258 1.137e-05 0)
(0.001247 1.835e-05 0)
(0.001232 2.491e-05 0)
(0.001212 3.094e-05 0)
(0.001189 3.635e-05 0)
(0.001161 4.107e-05 0)
(0.001131 4.508e-05 0)
(0.001098 4.835e-05 0)
(0.001063 5.091e-05 0)
(0.001026 5.277e-05 0)
(0.0009878 5.395e-05 0)
(0.0009492 5.452e-05 0)
(0.0009103 5.452e-05 0)
(0.0008715 5.401e-05 0)
(0.0008331 5.305e-05 0)
(0.0007955 5.17e-05 0)
(0.000759 5.003e-05 0)
(0.0007237 4.81e-05 0)
(0.0006897 4.597e-05 0)
(0.0006574 4.369e-05 0)
(0.0006266 4.131e-05 0)
(0.0005975 3.888e-05 0)
(0.0005702 3.644e-05 0)
(0.0005446 3.401e-05 0)
(0.0005207 3.163e-05 0)
(0.0004984 2.932e-05 0)
(0.0004778 2.709e-05 0)
(0.0004587 2.495e-05 0)
(0.0004412 2.292e-05 0)
(0.0004251 2.101e-05 0)
(0.0004103 1.92e-05 0)
(0.0003967 1.752e-05 0)
(0.0003844 1.595e-05 0)
(0.0003731 1.449e-05 0)
(0.0003629 1.314e-05 0)
(0.0003536 1.189e-05 0)
(0.0003452 1.075e-05 0)
(0.0003376 9.698e-06 0)
(0.0003307 8.737e-06 0)
(0.0003245 7.86e-06 0)
(0.000319 7.06e-06 0)
(0.000314 6.332e-06 0)
(0.0003094 5.672e-06 0)
(0.0003054 5.074e-06 0)
(0.0003018 4.533e-06 0)
(0.0002986 4.046e-06 0)
(0.0002957 3.607e-06 0)
(0.0002931 3.214e-06 0)
(0.0002908 2.862e-06 0)
(0.0002887 2.551e-06 0)
(0.0002869 2.276e-06 0)
(0.0002852 2.037e-06 0)
(0.0002838 1.832e-06 0)
(0.0002824 1.661e-06 0)
(0.0002812 1.524e-06 0)
(0.0002801 1.423e-06 0)
(0.000279 1.359e-06 0)
(0.000278 1.338e-06 0)
(0.000277 1.364e-06 0)
(0.0002761 1.445e-06 0)
(0.0002751 1.584e-06 0)
(0.000274 1.772e-06 0)
(0.000273 1.937e-06 0)
(0.001224 0.0002275 0)
(0.00126 0.0004003 0)
(0.001258 0.0004192 0)
(0.001216 0.0003786 0)
(0.00115 0.0003225 0)
(0.001074 0.000268 0)
(0.0009986 0.0002208 0)
(0.0009278 0.0001818 0)
(0.0008638 0.0001503 0)
(0.0008073 0.0001249 0)
(0.0007578 0.0001043 0)
(0.000715 8.746e-05 0)
(0.0006779 7.355e-05 0)
(0.0006461 6.195e-05 0)
(0.0006189 5.214e-05 0)
(0.0005957 4.375e-05 0)
(0.000576 3.65e-05 0)
(0.0005596 3.015e-05 0)
(0.000546 2.452e-05 0)
(0.000535 1.947e-05 0)
(0.0005265 1.487e-05 0)
(0.0005201 1.063e-05 0)
(0.0005158 6.666e-06 0)
(0.0005135 2.91e-06 0)
(0.000513 -6.97e-07 0)
(0.0005144 -4.208e-06 0)
(0.0005176 -7.667e-06 0)
(0.0005225 -1.111e-05 0)
(0.0005293 -1.458e-05 0)
(0.0005379 -1.811e-05 0)
(0.0005483 -2.171e-05 0)
(0.0005605 -2.542e-05 0)
(0.0005748 -2.925e-05 0)
(0.000591 -3.321e-05 0)
(0.0006093 -3.732e-05 0)
(0.0006297 -4.158e-05 0)
(0.0006524 -4.599e-05 0)
(0.0006773 -5.054e-05 0)
(0.0007046 -5.52e-05 0)
(0.0007342 -5.996e-05 0)
(0.0007662 -6.478e-05 0)
(0.0008006 -6.961e-05 0)
(0.0008375 -7.44e-05 0)
(0.0008766 -7.907e-05 0)
(0.0009181 -8.355e-05 0)
(0.0009616 -8.774e-05 0)
(0.001007 -9.154e-05 0)
(0.001054 -9.484e-05 0)
(0.001103 -9.75e-05 0)
(0.001153 -9.942e-05 0)
(0.001203 -0.0001005 0)
(0.001254 -0.0001005 0)
(0.001304 -9.945e-05 0)
(0.001353 -9.717e-05 0)
(0.001401 -9.36e-05 0)
(0.001447 -8.869e-05 0)
(0.00149 -8.239e-05 0)
(0.001529 -7.473e-05 0)
(0.001564 -6.575e-05 0)
(0.001594 -5.555e-05 0)
(0.001619 -4.426e-05 0)
(0.001638 -3.209e-05 0)
(0.001651 -1.926e-05 0)
(0.001658 -6.048e-06 0)
(0.001658 7.246e-06 0)
(0.001651 2.033e-05 0)
(0.001638 3.292e-05 0)
(0.001619 4.476e-05 0)
(0.001594 5.565e-05 0)
(0.001564 6.544e-05 0)
(0.001529 7.402e-05 0)
(0.00149 8.132e-05 0)
(0.001448 8.732e-05 0)
(0.001403 9.202e-05 0)
(0.001356 9.548e-05 0)
(0.001308 9.773e-05 0)
(0.001258 9.886e-05 0)
(0.001208 9.897e-05 0)
(0.001159 9.815e-05 0)
(0.001109 9.651e-05 0)
(0.001061 9.416e-05 0)
(0.001014 9.123e-05 0)
(0.0009682 8.781e-05 0)
(0.0009244 8.402e-05 0)
(0.0008824 7.994e-05 0)
(0.0008426 7.569e-05 0)
(0.0008048 7.132e-05 0)
(0.0007692 6.692e-05 0)
(0.0007358 6.254e-05 0)
(0.0007046 5.823e-05 0)
(0.0006756 5.403e-05 0)
(0.0006486 4.998e-05 0)
(0.0006236 4.61e-05 0)
(0.0006005 4.24e-05 0)
(0.0005793 3.89e-05 0)
(0.0005598 3.561e-05 0)
(0.0005419 3.252e-05 0)
(0.0005255 2.964e-05 0)
(0.0005106 2.696e-05 0)
(0.0004971 2.447e-05 0)
(0.0004847 2.218e-05 0)
(0.0004735 2.007e-05 0)
(0.0004634 1.813e-05 0)
(0.0004542 1.635e-05 0)
(0.0004459 1.473e-05 0)
(0.0004384 1.325e-05 0)
(0.0004317 1.19e-05 0)
(0.0004256 1.067e-05 0)
(0.0004202 9.557e-06 0)
(0.0004153 8.55e-06 0)
(0.0004109 7.641e-06 0)
(0.000407 6.822e-06 0)
(0.0004035 6.087e-06 0)
(0.0004004 5.43e-06 0)
(0.0003976 4.845e-06 0)
(0.0003951 4.329e-06 0)
(0.0003928 3.877e-06 0)
(0.0003908 3.489e-06 0)
(0.000389 3.161e-06 0)
(0.0003873 2.895e-06 0)
(0.0003858 2.69e-06 0)
(0.0003844 2.55e-06 0)
(0.0003831 2.477e-06 0)
(0.0003818 2.476e-06 0)
(0.0003806 2.547e-06 0)
(0.0003794 2.687e-06 0)
(0.0003782 2.87e-06 0)
(0.000377 3.015e-06 0)
(0.001219 0.0001847 0)
(0.001255 0.0003711 0)
(0.001275 0.0004298 0)
(0.001265 0.0004205 0)
(0.00123 0.000382 0)
(0.001179 0.0003345 0)
(0.001122 0.0002875 0)
(0.001063 0.000245 0)
(0.001006 0.0002081 0)
(0.0009526 0.0001767 0)
(0.0009043 0.0001502 0)
(0.0008611 0.0001277 0)
(0.0008228 0.0001086 0)
(0.0007892 9.231e-05 0)
(0.00076 7.828e-05 0)
(0.0007347 6.608e-05 0)
(0.0007131 5.54e-05 0)
(0.0006949 4.593e-05 0)
(0.0006798 3.745e-05 0)
(0.0006675 2.978e-05 0)
(0.0006579 2.275e-05 0)
(0.0006508 1.623e-05 0)
(0.000646 1.01e-05 0)
(0.0006436 4.276e-06 0)
(0.0006433 -1.34e-06 0)
(0.0006452 -6.818e-06 0)
(0.0006491 -1.222e-05 0)
(0.0006552 -1.762e-05 0)
(0.0006635 -2.305e-05 0)
(0.0006738 -2.856e-05 0)
(0.0006864 -3.42e-05 0)
(0.0007011 -4e-05 0)
(0.0007182 -4.598e-05 0)
(0.0007377 -5.217e-05 0)
(0.0007596 -5.857e-05 0)
(0.000784 -6.52e-05 0)
(0.000811 -7.204e-05 0)
(0.0008407 -7.909e-05 0)
(0.0008731 -8.632e-05 0)
(0.0009084 -9.368e-05 0)
(0.0009464 -0.0001011 0)
(0.0009872 -0.0001086 0)
(0.001031 -0.0001159 0)
(0.001077 -0.0001231 0)
(0.001126 -0.0001299 0)
(0.001178 -0.0001363 0)
(0.001231 -0.0001421 0)
(0.001287 -0.0001471 0)
(0.001344 -0.0001511 0)
(0.001403 -0.000154 0)
(0.001462 -0.0001555 0)
(0.001521 -0.0001555 0)
(0.00158 -0.0001537 0)
(0.001638 -0.0001501 0)
(0.001694 -0.0001446 0)
(0.001748 -0.0001369 0)
(0.001798 -0.0001272 0)
(0.001844 -0.0001153 0)
(0.001885 -0.0001015 0)
(0.001921 -8.574e-05 0)
(0.00195 -6.835e-05 0)
(0.001973 -4.96e-05 0)
(0.001988 -2.985e-05 0)
(0.001996 -9.505e-06 0)
(0.001996 1.097e-05 0)
(0.001988 3.113e-05 0)
(0.001973 5.053e-05 0)
(0.00195 6.879e-05 0)
(0.001921 8.561e-05 0)
(0.001886 0.0001007 0)
(0.001845 0.000114 0)
(0.0018 0.0001254 0)
(0.001751 0.0001347 0)
(0.001698 0.0001421 0)
(0.001643 0.0001475 0)
(0.001586 0.0001511 0)
(0.001528 0.000153 0)
(0.001469 0.0001533 0)
(0.001411 0.0001522 0)
(0.001353 0.0001498 0)
(0.001296 0.0001463 0)
(0.00124 0.0001418 0)
(0.001186 0.0001367 0)
(0.001134 0.0001309 0)
(0.001085 0.0001247 0)
(0.001037 0.0001182 0)
(0.0009926 0.0001115 0)
(0.0009503 0.0001047 0)
(0.0009105 9.793e-05 0)
(0.0008733 9.128e-05 0)
(0.0008385 8.479e-05 0)
(0.0008062 7.852e-05 0)
(0.0007763 7.25e-05 0)
(0.0007486 6.675e-05 0)
(0.0007231 6.131e-05 0)
(0.0006996 5.617e-05 0)
(0.0006781 5.136e-05 0)
(0.0006584 4.686e-05 0)
(0.0006403 4.267e-05 0)
(0.0006239 3.878e-05 0)
(0.0006089 3.518e-05 0)
(0.0005953 3.187e-05 0)
(0.000583 2.882e-05 0)
(0.0005718 2.602e-05 0)
(0.0005617 2.346e-05 0)
(0.0005526 2.113e-05 0)
(0.0005443 1.9e-05 0)
(0.0005369 1.706e-05 0)
(0.0005302 1.53e-05 0)
(0.0005242 1.37e-05 0)
(0.0005188 1.226e-05 0)
(0.000514 1.096e-05 0)
(0.0005096 9.789e-06 0)
(0.0005058 8.742e-06 0)
(0.0005023 7.809e-06 0)
(0.0004992 6.983e-06 0)
(0.0004964 6.258e-06 0)
(0.0004939 5.631e-06 0)
(0.0004916 5.097e-06 0)
(0.0004896 4.656e-06 0)
(0.0004877 4.307e-06 0)
(0.000486 4.051e-06 0)
(0.0004844 3.89e-06 0)
(0.0004829 3.822e-06 0)
(0.0004815 3.846e-06 0)
(0.0004802 3.948e-06 0)
(0.0004789 4.094e-06 0)
(0.0004776 4.208e-06 0)
(0.001214 0.000152 0)
(0.001246 0.0003352 0)
(0.001274 0.0004177 0)
(0.001282 0.0004346 0)
(0.00127 0.0004157 0)
(0.001241 0.0003801 0)
(0.001202 0.0003388 0)
(0.001157 0.0002975 0)
(0.001111 0.0002591 0)
(0.001065 0.0002245 0)
(0.001022 0.000194 0)
(0.0009816 0.0001672 0)
(0.0009451 0.0001439 0)
(0.0009124 0.0001234 0)
(0.0008833 0.0001054 0)
(0.0008579 8.958e-05 0)
(0.000836 7.547e-05 0)
(0.0008172 6.281e-05 0)
(0.0008016 5.135e-05 0)
(0.0007889 4.088e-05 0)
(0.0007789 3.122e-05 0)
(0.0007716 2.219e-05 0)
(0.0007668 1.367e-05 0)
(0.0007645 5.514e-06 0)
(0.0007645 -2.369e-06 0)
(0.000767 -1.008e-05 0)
(0.0007717 -1.771e-05 0)
(0.0007788 -2.533e-05 0)
(0.0007883 -3.301e-05 0)
(0.0008001 -4.082e-05 0)
(0.0008144 -4.879e-05 0)
(0.0008312 -5.699e-05 0)
(0.0008506 -6.544e-05 0)
(0.0008726 -7.418e-05 0)
(0.0008974 -8.321e-05 0)
(0.000925 -9.255e-05 0)
(0.0009554 -0.0001022 0)
(0.0009889 -0.0001121 0)
(0.001025 -0.0001222 0)
(0.001065 -0.0001326 0)
(0.001108 -0.000143 0)
(0.001153 -0.0001534 0)
(0.001202 -0.0001636 0)
(0.001254 -0.0001736 0)
(0.001309 -0.0001832 0)
(0.001367 -0.0001921 0)
(0.001427 -0.0002001 0)
(0.001489 -0.000207 0)
(0.001553 -0.0002125 0)
(0.001618 -0.0002164 0)
(0.001684 -0.0002184 0)
(0.00175 -0.0002183 0)
(0.001816 -0.0002157 0)
(0.001881 -0.0002106 0)
(0.001943 -0.0002027 0)
(0.002003 -0.000192 0)
(0.002059 -0.0001783 0)
(0.00211 -0.0001617 0)
(0.002156 -0.0001423 0)
(0.002196 -0.0001203 0)
(0.002229 -9.592e-05 0)
(0.002254 -6.968e-05 0)
(0.002271 -4.202e-05 0)
(0.002279 -1.354e-05 0)
(0.002279 1.514e-05 0)
(0.002271 4.336e-05 0)
(0.002254 7.054e-05 0)
(0.002229 9.612e-05 0)
(0.002197 0.0001197 0)
(0.002157 0.0001409 0)
(0.002112 0.0001596 0)
(0.002062 0.0001755 0)
(0.002007 0.0001887 0)
(0.001949 0.0001991 0)
(0.001887 0.0002069 0)
(0.001824 0.0002121 0)
(0.001759 0.0002149 0)
(0.001694 0.0002154 0)
(0.001629 0.000214 0)
(0.001564 0.0002108 0)
(0.0015 0.000206 0)
(0.001438 0.0001999 0)
(0.001378 0.0001928 0)
(0.001319 0.0001848 0)
(0.001264 0.0001762 0)
(0.001211 0.0001671 0)
(0.00116 0.0001578 0)
(0.001112 0.0001483 0)
(0.001068 0.0001389 0)
(0.001026 0.0001296 0)
(0.0009865 0.0001205 0)
(0.00095 0.0001117 0)
(0.0009161 0.0001032 0)
(0.0008847 9.51e-05 0)
(0.0008558 8.743e-05 0)
(0.0008291 8.019e-05 0)
(0.0008046 7.338e-05 0)
(0.0007822 6.702e-05 0)
(0.0007616 6.108e-05 0)
(0.0007428 5.557e-05 0)
(0.0007257 5.047e-05 0)
(0.0007101 4.576e-05 0)
(0.000696 4.143e-05 0)
(0.0006831 3.744e-05 0)
(0.0006715 3.379e-05 0)
(0.000661 3.046e-05 0)
(0.0006515 2.741e-05 0)
(0.0006429 2.464e-05 0)
(0.0006352 2.212e-05 0)
(0.0006282 1.983e-05 0)
(0.000622 1.777e-05 0)
(0.0006164 1.59e-05 0)
(0.0006113 1.422e-05 0)
(0.0006068 1.271e-05 0)
(0.0006028 1.136e-05 0)
(0.0005991 1.017e-05 0)
(0.0005959 9.114e-06 0)
(0.000593 8.198e-06 0)
(0.0005903 7.413e-06 0)
(0.000588 6.755e-06 0)
(0.0005858 6.221e-06 0)
(0.0005839 5.811e-06 0)
(0.000582 5.522e-06 0)
(0.0005804 5.352e-06 0)
(0.0005788 5.292e-06 0)
(0.0005774 5.324e-06 0)
(0.000576 5.413e-06 0)
(0.0005746 5.491e-06 0)
(0.00121 0.0001278 0)
(0.001237 0.0003003 0)
(0.001267 0.0003948 0)
(0.001285 0.0004308 0)
(0.001288 0.0004296 0)
(0.001275 0.0004072 0)
(0.001252 0.0003742 0)
(0.001222 0.0003374 0)
(0.001187 0.0003004 0)
(0.00115 0.0002652 0)
(0.001114 0.0002328 0)
(0.001079 0.0002033 0)
(0.001047 0.0001769 0)
(0.001017 0.0001531 0)
(0.0009896 0.0001318 0)
(0.0009655 0.0001127 0)
(0.0009445 9.539e-05 0)
(0.0009264 7.969e-05 0)
(0.0009112 6.531e-05 0)
(0.0008988 5.205e-05 0)
(0.0008891 3.97e-05 0)
(0.000882 2.808e-05 0)
(0.0008776 1.703e-05 0)
(0.0008756 6.42e-06 0)
(0.0008762 -3.888e-06 0)
(0.0008792 -1.401e-05 0)
(0.0008847 -2.404e-05 0)
(0.0008927 -3.408e-05 0)
(0.0009031 -4.421e-05 0)
(0.0009162 -5.451e-05 0)
(0.0009318 -6.505e-05 0)
(0.0009502 -7.587e-05 0)
(0.0009713 -8.703e-05 0)
(0.0009952 -9.855e-05 0)
(0.001022 -0.0001105 0)
(0.001052 -0.0001228 0)
(0.001085 -0.0001354 0)
(0.001121 -0.0001485 0)
(0.001161 -0.0001618 0)
(0.001203 -0.0001753 0)
(0.001249 -0.000189 0)
(0.001299 -0.0002026 0)
(0.001352 -0.000216 0)
(0.001407 -0.0002291 0)
(0.001466 -0.0002416 0)
(0.001528 -0.0002531 0)
(0.001593 -0.0002636 0)
(0.00166 -0.0002725 0)
(0.001728 -0.0002797 0)
(0.001799 -0.0002847 0)
(0.00187 -0.0002872 0)
(0.001941 -0.0002869 0)
(0.002012 -0.0002835 0)
(0.002081 -0.0002767 0)
(0.002148 -0.0002664 0)
(0.002212 -0.0002522 0)
(0.002273 -0.0002342 0)
(0.002328 -0.0002125 0)
(0.002377 -0.000187 0)
(0.00242 -0.0001581 0)
(0.002456 -0.0001262 0)
(0.002483 -9.175e-05 0)
(0.002501 -5.543e-05 0)
(0.002511 -1.802e-05 0)
(0.002511 1.964e-05 0)
(0.002501 5.671e-05 0)
(0.002483 9.239e-05 0)
(0.002456 0.000126 0)
(0.002422 0.0001569 0)
(0.00238 0.0001848 0)
(0.002331 0.0002093 0)
(0.002277 0.0002302 0)
(0.002218 0.0002476 0)
(0.002155 0.0002614 0)
(0.00209 0.0002717 0)
(0.002022 0.0002787 0)
(0.001952 0.0002825 0)
(0.001882 0.0002834 0)
(0.001812 0.0002817 0)
(0.001742 0.0002776 0)
(0.001673 0.0002715 0)
(0.001606 0.0002636 0)
(0.001541 0.0002544 0)
(0.001479 0.000244 0)
(0.001419 0.0002328 0)
(0.001361 0.000221 0)
(0.001307 0.0002088 0)
(0.001255 0.0001964 0)
(0.001207 0.0001841 0)
(0.001161 0.0001719 0)
(0.001119 0.0001599 0)
(0.001079 0.0001483 0)
(0.001042 0.0001372 0)
(0.001008 0.0001266 0)
(0.0009767 0.0001164 0)
(0.0009476 0.0001069 0)
(0.0009209 9.791e-05 0)
(0.0008964 8.949e-05 0)
(0.0008739 8.164e-05 0)
(0.0008533 7.434e-05 0)
(0.0008346 6.758e-05 0)
(0.0008175 6.133e-05 0)
(0.0008019 5.557e-05 0)
(0.0007878 5.027e-05 0)
(0.000775 4.541e-05 0)
(0.0007634 4.097e-05 0)
(0.0007529 3.691e-05 0)
(0.0007434 3.321e-05 0)
(0.0007348 2.984e-05 0)
(0.0007271 2.678e-05 0)
(0.0007202 2.401e-05 0)
(0.0007139 2.15e-05 0)
(0.0007083 1.925e-05 0)
(0.0007033 1.722e-05 0)
(0.0006988 1.541e-05 0)
(0.0006948 1.379e-05 0)
(0.0006911 1.237e-05 0)
(0.0006879 1.112e-05 0)
(0.0006849 1.004e-05 0)
(0.0006823 9.13e-06 0)
(0.0006799 8.375e-06 0)
(0.0006778 7.775e-06 0)
(0.0006758 7.326e-06 0)
(0.000674 7.02e-06 0)
(0.0006724 6.846e-06 0)
(0.0006708 6.785e-06 0)
(0.0006694 6.801e-06 0)
(0.000668 6.838e-06 0)
(0.001208 0.0001096 0)
(0.00123 0.0002691 0)
(0.001259 0.000368 0)
(0.001282 0.0004166 0)
(0.001294 0.0004295 0)
(0.001293 0.0004194 0)
(0.001283 0.0003957 0)
(0.001265 0.000365 0)
(0.001241 0.0003314 0)
(0.001214 0.0002976 0)
(0.001186 0.000265 0)
(0.001157 0.0002343 0)
(0.00113 0.000206 0)
(0.001104 0.0001799 0)
(0.00108 0.000156 0)
(0.001058 0.0001341 0)
(0.001039 0.0001141 0)
(0.001023 9.566e-05 0)
(0.001009 7.857e-05 0)
(0.0009971 6.264e-05 0)
(0.0009882 4.768e-05 0)
(0.0009819 3.35e-05 0)
(0.000978 1.993e-05 0)
(0.0009767 6.817e-06 0)
(0.0009778 -5.974e-06 0)
(0.0009814 -1.857e-05 0)
(0.0009876 -3.11e-05 0)
(0.0009963 -4.367e-05 0)
(0.001008 -5.637e-05 0)
(0.001021 -6.93e-05 0)
(0.001038 -8.252e-05 0)
(0.001057 -9.611e-05 0)
(0.00108 -0.0001101 0)
(0.001105 -0.0001246 0)
(0.001133 -0.0001395 0)
(0.001165 -0.000155 0)
(0.001199 -0.0001708 0)
(0.001237 -0.0001872 0)
(0.001278 -0.0002038 0)
(0.001323 -0.0002208 0)
(0.001371 -0.0002378 0)
(0.001423 -0.0002548 0)
(0.001478 -0.0002716 0)
(0.001536 -0.0002879 0)
(0.001598 -0.0003034 0)
(0.001663 -0.0003178 0)
(0.00173 -0.0003308 0)
(0.0018 -0.0003419 0)
(0.001872 -0.0003508 0)
(0.001945 -0.000357 0)
(0.002019 -0.0003601 0)
(0.002094 -0.0003597 0)
(0.002167 -0.0003553 0)
(0.00224 -0.0003468 0)
(0.00231 -0.0003338 0)
(0.002377 -0.0003161 0)
(0.00244 -0.0002936 0)
(0.002498 -0.0002664 0)
(0.00255 -0.0002345 0)
(0.002595 -0.0001984 0)
(0.002632 -0.0001584 0)
(0.002661 -0.0001153 0)
(0.00268 -6.976e-05 0)
(0.00269 -2.283e-05 0)
(0.00269 2.441e-05 0)
(0.00268 7.09e-05 0)
(0.002661 0.0001156 0)
(0.002633 0.0001577 0)
(0.002597 0.0001964 0)
(0.002553 0.0002312 0)
(0.002502 0.0002619 0)
(0.002446 0.0002882 0)
(0.002384 0.00031 0)
(0.002319 0.0003273 0)
(0.00225 0.0003403 0)
(0.002179 0.0003491 0)
(0.002107 0.000354 0)
(0.002033 0.0003553 0)
(0.00196 0.0003533 0)
(0.001887 0.0003484 0)
(0.001816 0.0003409 0)
(0.001746 0.0003312 0)
(0.001678 0.0003198 0)
(0.001612 0.0003069 0)
(0.001549 0.0002929 0)
(0.001489 0.0002782 0)
(0.001432 0.000263 0)
(0.001378 0.0002476 0)
(0.001327 0.0002322 0)
(0.00128 0.0002169 0)
(0.001235 0.000202 0)
(0.001193 0.0001875 0)
(0.001155 0.0001736 0)
(0.001119 0.0001602 0)
(0.001085 0.0001475 0)
(0.001055 0.0001355 0)
(0.001027 0.0001242 0)
(0.001001 0.0001136 0)
(0.0009768 0.0001038 0)
(0.0009551 9.455e-05 0)
(0.0009352 8.602e-05 0)
(0.000917 7.813e-05 0)
(0.0009005 7.085e-05 0)
(0.0008855 6.415e-05 0)
(0.0008718 5.8e-05 0)
(0.0008595 5.237e-05 0)
(0.0008483 4.722e-05 0)
(0.0008381 4.252e-05 0)
(0.000829 3.824e-05 0)
(0.0008207 3.435e-05 0)
(0.0008133 3.082e-05 0)
(0.0008066 2.763e-05 0)
(0.0008006 2.475e-05 0)
(0.0007951 2.216e-05 0)
(0.0007903 1.983e-05 0)
(0.0007859 1.776e-05 0)
(0.000782 1.593e-05 0)
(0.0007785 1.432e-05 0)
(0.0007754 1.291e-05 0)
(0.0007726 1.171e-05 0)
(0.00077 1.071e-05 0)
(0.0007677 9.891e-06 0)
(0.0007656 9.252e-06 0)
(0.0007638 8.783e-06 0)
(0.000762 8.472e-06 0)
(0.0007604 8.298e-06 0)
(0.000759 8.23e-06 0)
(0.0007575 8.223e-06 0)
(0.001206 9.545e-05 0)
(0.001225 0.0002418 0)
(0.001251 0.0003405 0)
(0.001276 0.0003967 0)
(0.001293 0.0004202 0)
(0.001302 0.0004205 0)
(0.001301 0.0004057 0)
(0.001293 0.0003816 0)
(0.001279 0.0003526 0)
(0.001261 0.0003214 0)
(0.00124 0.00029 0)
(0.001219 0.0002594 0)
(0.001197 0.0002302 0)
(0.001176 0.0002027 0)
(0.001156 0.000177 0)
(0.001137 0.0001531 0)
(0.001121 0.0001308 0)
(0.001106 0.00011 0)
(0.001094 9.051e-05 0)
(0.001084 7.216e-05 0)
(0.001076 5.476e-05 0)
(0.001071 3.814e-05 0)
(0.001068 2.213e-05 0)
(0.001067 6.575e-06 0)
(0.001069 -8.671e-06 0)
(0.001073 -2.375e-05 0)
(0.00108 -3.879e-05 0)
(0.001089 -5.391e-05 0)
(0.001101 -6.921e-05 0)
(0.001116 -8.481e-05 0)
(0.001133 -0.0001008 0)
(0.001153 -0.0001172 0)
(0.001176 -0.0001341 0)
(0.001201 -0.0001516 0)
(0.00123 -0.0001697 0)
(0.001262 -0.0001883 0)
(0.001298 -0.0002075 0)
(0.001336 -0.0002271 0)
(0.001379 -0.0002473 0)
(0.001424 -0.0002677 0)
(0.001473 -0.0002882 0)
(0.001526 -0.0003087 0)
(0.001582 -0.0003289 0)
(0.001641 -0.0003485 0)
(0.001704 -0.0003672 0)
(0.00177 -0.0003845 0)
(0.001839 -0.0004001 0)
(0.00191 -0.0004135 0)
(0.001983 -0.0004241 0)
(0.002058 -0.0004316 0)
(0.002133 -0.0004352 0)
(0.002209 -0.0004347 0)
(0.002284 -0.0004294 0)
(0.002358 -0.0004191 0)
(0.00243 -0.0004034 0)
(0.002498 -0.0003821 0)
(0.002563 -0.000355 0)
(0.002622 -0.0003221 0)
(0.002675 -0.0002838 0)
(0.002721 -0.0002402 0)
(0.002759 -0.0001919 0)
(0.002788 -0.0001398 0)
(0.002808 -8.465e-05 0)
(0.002818 -2.783e-05 0)
(0.002818 2.938e-05 0)
(0.002808 8.564e-05 0)
(0.002789 0.0001397 0)
(0.00276 0.0001905 0)
(0.002723 0.0002372 0)
(0.002678 0.0002792 0)
(0.002626 0.0003162 0)
(0.002569 0.0003479 0)
(0.002506 0.0003742 0)
(0.002439 0.0003952 0)
(0.00237 0.0004109 0)
(0.002297 0.0004217 0)
(0.002224 0.0004278 0)
(0.002149 0.0004295 0)
(0.002074 0.0004272 0)
(0.002 0.0004214 0)
(0.001927 0.0004125 0)
(0.001856 0.0004009 0)
(0.001786 0.0003872 0)
(0.00172 0.0003718 0)
(0.001655 0.000355 0)
(0.001594 0.0003374 0)
(0.001536 0.0003191 0)
(0.001481 0.0003006 0)
(0.001429 0.000282 0)
(0.00138 0.0002636 0)
(0.001335 0.0002456 0)
(0.001292 0.0002281 0)
(0.001252 0.0002113 0)
(0.001216 0.0001952 0)
(0.001182 0.0001798 0)
(0.00115 0.0001653 0)
(0.001121 0.0001516 0)
(0.001095 0.0001388 0)
(0.00107 0.0001268 0)
(0.001048 0.0001157 0)
(0.001027 0.0001053 0)
(0.001009 9.571e-05 0)
(0.0009915 8.685e-05 0)
(0.000976 7.87e-05 0)
(0.0009619 7.121e-05 0)
(0.0009491 6.434e-05 0)
(0.0009374 5.806e-05 0)
(0.0009269 5.232e-05 0)
(0.0009174 4.709e-05 0)
(0.0009088 4.233e-05 0)
(0.0009011 3.802e-05 0)
(0.0008941 3.41e-05 0)
(0.0008878 3.057e-05 0)
(0.0008822 2.739e-05 0)
(0.0008771 2.453e-05 0)
(0.0008726 2.197e-05 0)
(0.0008685 1.97e-05 0)
(0.0008648 1.77e-05 0)
(0.0008616 1.595e-05 0)
(0.0008586 1.444e-05 0)
(0.000856 1.316e-05 0)
(0.0008536 1.21e-05 0)
(0.0008515 1.125e-05 0)
(0.0008495 1.06e-05 0)
(0.0008478 1.014e-05 0)
(0.0008462 9.835e-06 0)
(0.0008447 9.676e-06 0)
(0.0008433 9.621e-06 0)
(0.001205 8.417e-05 0)
(0.001221 0.000218 0)
(0.001245 0.0003139 0)
(0.00127 0.0003741 0)
(0.00129 0.0004049 0)
(0.001304 0.0004136 0)
(0.001311 0.0004066 0)
(0.001311 0.000389 0)
(0.001305 0.000365 0)
(0.001295 0.0003372 0)
(0.001282 0.0003079 0)
(0.001266 0.0002782 0)
(0.00125 0.0002491 0)
(0.001234 0.0002211 0)
(0.001219 0.0001943 0)
(0.001204 0.0001689 0)
(0.00119 0.0001449 0)
(0.001179 0.0001222 0)
(0.001168 0.0001007 0)
(0.00116 8.021e-05 0)
(0.001154 6.062e-05 0)
(0.00115 4.177e-05 0)
(0.001148 2.348e-05 0)
(0.001148 5.617e-06 0)
(0.001151 -1.198e-05 0)
(0.001155 -2.945e-05 0)
(0.001162 -4.694e-05 0)
(0.001172 -6.456e-05 0)
(0.001184 -8.243e-05 0)
(0.001199 -0.0001007 0)
(0.001216 -0.0001194 0)
(0.001236 -0.0001386 0)
(0.001259 -0.0001584 0)
(0.001285 -0.0001789 0)
(0.001314 -0.0002001 0)
(0.001346 -0.0002219 0)
(0.001381 -0.0002444 0)
(0.001419 -0.0002674 0)
(0.001461 -0.000291 0)
(0.001507 -0.0003149 0)
(0.001555 -0.0003389 0)
(0.001608 -0.0003629 0)
(0.001663 -0.0003866 0)
(0.001723 -0.0004095 0)
(0.001785 -0.0004314 0)
(0.00185 -0.0004517 0)
(0.001919 -0.0004699 0)
(0.00199 -0.0004855 0)
(0.002062 -0.000498 0)
(0.002137 -0.0005066 0)
(0.002212 -0.0005109 0)
(0.002287 -0.0005102 0)
(0.002362 -0.0005041 0)
(0.002436 -0.000492 0)
(0.002507 -0.0004736 0)
(0.002575 -0.0004486 0)
(0.002639 -0.0004169 0)
(0.002698 -0.0003784 0)
(0.002751 -0.0003335 0)
(0.002797 -0.0002824 0)
(0.002835 -0.0002259 0)
(0.002865 -0.0001646 0)
(0.002885 -9.975e-05 0)
(0.002895 -3.285e-05 0)
(0.002895 3.45e-05 0)
(0.002885 0.0001007 0)
(0.002865 0.0001642 0)
(0.002836 0.0002238 0)
(0.002799 0.0002784 0)
(0.002754 0.0003276 0)
(0.002703 0.0003708 0)
(0.002645 0.0004079 0)
(0.002583 0.0004387 0)
(0.002517 0.0004634 0)
(0.002448 0.0004819 0)
(0.002376 0.0004947 0)
(0.002303 0.000502 0)
(0.002229 0.0005041 0)
(0.002154 0.0005016 0)
(0.002081 0.0004949 0)
(0.002008 0.0004846 0)
(0.001937 0.0004712 0)
(0.001868 0.0004552 0)
(0.001802 0.0004372 0)
(0.001738 0.0004176 0)
(0.001677 0.000397 0)
(0.001619 0.0003756 0)