/*--------------------------------*- C++ -*----------------------------------*\
  =========                 |
  \\      /  F ield         | OpenFOAM: The Open Source CFD Toolbox
   \\    /   O peration     | Website:  https://openfoam.org
    \\  /    A nd           | Version:  7
     \\/     M anipulation  |
\*---------------------------------------------------------------------------*/
FoamFile
{
    version     2.0;
    format      ascii;
    class       volScalarField;
    location    "299.999473411257384";
    object      Y.K;
}
// * * * * * * * * * * * * * * * * * * * * * * * * * * * * * * * * * * * * * //

dimensions      [0 0 0 0 0 0 0];

internalField   nonuniform List<scalar> 
4096
(
3.492e-68
3.119e-66
-1.062e-66
3.932e-66
-3.209e-67
-1.222e-66
5.402e-67
4.333e-67
-2.983e-67
1.966e-66
-2.116e-65
3.156e-64
-4.36e-63
6.227e-62
-8.064e-61
1.017e-59
-1.22e-58
1.44e-57
-1.64e-56
1.854e-55
-2.006e-54
2.147e-53
-2.281e-52
2.34e-51
-2.279e-50
2.119e-49
-1.95e-48
1.806e-47
-1.629e-46
1.439e-45
-1.24e-44
1.041e-43
-8.327e-43
6.459e-42
-4.763e-41
3.363e-40
-2.197e-39
1.3e-38
-6.878e-38
2.984e-37
-8.513e-37
-1.8e-36
5.323e-35
-5.004e-34
3.684e-33
-2.204e-32
1.13e-31
-4.863e-31
1.904e-30
-4.887e-30
7.324e-30
1.403e-28
-2.681e-28
9.358e-27
7.978e-28
2.648e-25
9.822e-25
3.429e-24
2.659e-23
1.331e-22
1.041e-21
4.811e-21
3.925e-20
1.896e-19
2.192e-18
6.515e-18
1.466e-17
2.964e-17
5.656e-17
1.037e-16
1.839e-16
3.17e-16
5.321e-16
8.712e-16
1.393e-15
2.179e-15
3.336e-15
5.005e-15
7.366e-15
1.064e-14
1.511e-14
2.111e-14
2.904e-14
3.936e-14
5.261e-14
6.942e-14
9.049e-14
1.166e-13
1.487e-13
1.877e-13
2.347e-13
2.91e-13
3.579e-13
4.369e-13
5.296e-13
6.377e-13
7.633e-13
9.085e-13
1.076e-12
1.267e-12
1.486e-12
1.736e-12
2.019e-12
2.339e-12
2.701e-12
3.109e-12
3.567e-12
4.082e-12
4.657e-12
5.3e-12
6.017e-12
6.815e-12
7.702e-12
8.687e-12
9.778e-12
1.099e-11
1.232e-11
1.379e-11
1.541e-11
1.719e-11
1.915e-11
2.13e-11
2.364e-11
2.619e-11
2.891e-11
3.175e-11
3.451e-11
3.664e-11
-1.038e-65
5.483e-65
-7.086e-65
8.883e-66
5.132e-65
-4.672e-65
6.508e-67
2.923e-65
-8.734e-66
1.103e-64
-1.242e-63
1.696e-62
-2.454e-61
3.354e-60
-4.351e-59
5.405e-58
-6.484e-57
7.56e-56
-8.61e-55
9.601e-54
-1.049e-52
1.122e-51
-1.172e-50
1.189e-49
-1.165e-48
1.083e-47
-1.001e-46
9.147e-46
-8.229e-45
7.256e-44
-6.241e-43
5.211e-42
-4.202e-41
3.252e-40
-2.399e-39
1.673e-38
-1.089e-37
6.51e-37
-3.471e-36
1.535e-35
-4.881e-35
-3.113e-35
2.199e-33
-2.162e-32
1.634e-31
-9.87e-31
5.095e-30
-2.203e-29
9.095e-29
-2.339e-28
4.259e-28
6.355e-27
4.096e-28
4.151e-25
5.418e-25
1.273e-23
4.862e-23
1.808e-22
1.239e-21
5.869e-21
3.976e-20
1.612e-19
1.019e-18
3.071e-18
7.321e-18
1.574e-17
3.165e-17
6.059e-17
1.114e-16
1.978e-16
3.403e-16
5.686e-16
9.25e-16
1.467e-15
2.273e-15
3.444e-15
5.112e-15
7.44e-15
1.063e-14
1.494e-14
2.066e-14
2.814e-14
3.781e-14
5.013e-14
6.567e-14
8.506e-14
1.09e-13
1.383e-13
1.739e-13
2.168e-13
2.68e-13
3.289e-13
4.009e-13
4.853e-13
5.839e-13
6.986e-13
8.312e-13
9.842e-13
1.16e-12
1.361e-12
1.59e-12
1.85e-12
2.146e-12
2.48e-12
2.857e-12
3.281e-12
3.758e-12
4.292e-12
4.889e-12
5.556e-12
6.3e-12
7.127e-12
8.047e-12
9.066e-12
1.02e-11
1.145e-11
1.283e-11
1.435e-11
1.602e-11
1.787e-11
1.989e-11
2.211e-11
2.454e-11
2.719e-11
3.005e-11
3.31e-11
3.625e-11
3.917e-11
2.324e-64
-1.621e-63
4.107e-63
-5.617e-63
4.042e-63
-6.814e-64
-1.524e-63
1.407e-63
1.191e-64
6.066e-63
-6.706e-62
8.825e-61
-1.264e-59
1.709e-58
-2.191e-57
2.69e-56
-3.192e-55
3.684e-54
-4.157e-53
4.596e-52
-4.982e-51
5.29e-50
-5.486e-49
5.536e-48
-5.392e-47
5.015e-46
-4.633e-45
4.231e-44
-3.802e-43
3.348e-42
-2.876e-41
2.397e-40
-1.93e-39
1.492e-38
-1.1e-37
7.684e-37
-5.022e-36
3.029e-35
-1.646e-34
7.61e-34
-2.841e-33
2.55e-33
7.035e-32
-7.865e-31
6.354e-30
-3.95e-29
2.082e-28
-9.155e-28
4.102e-27
-1.059e-26
2.406e-26
2.471e-25
7.195e-25
1.709e-23
4.855e-23
6.242e-22
2.415e-21
9.348e-21
5.624e-20
2.372e-19
1.256e-18
3.902e-18
9.592e-18
2.132e-17
4.44e-17
8.788e-17
1.664e-16
3.026e-16
5.303e-16
8.973e-16
1.469e-15
2.334e-15
3.602e-15
5.412e-15
7.933e-15
1.136e-14
1.594e-14
2.191e-14
2.96e-14
3.932e-14
5.146e-14
6.645e-14
8.475e-14
1.069e-13
1.335e-13
1.652e-13
2.029e-13
2.472e-13
2.994e-13
3.603e-13
4.313e-13
5.136e-13
6.089e-13
7.188e-13
8.452e-13
9.901e-13
1.156e-12
1.345e-12
1.56e-12
1.804e-12
2.081e-12
2.394e-12
2.746e-12
3.144e-12
3.59e-12
4.09e-12
4.65e-12
5.276e-12
5.975e-12
6.753e-12
7.619e-12
8.58e-12
9.645e-12
1.083e-11
1.213e-11
1.357e-11
1.516e-11
1.691e-11
1.883e-11
2.095e-11
2.327e-11
2.58e-11
2.858e-11
3.16e-11
3.489e-11
3.845e-11
4.229e-11
4.649e-11
-3.802e-63
3.025e-62
-1.075e-61
2.367e-61
-3.435e-61
3.331e-61
-1.987e-61
4.272e-62
2.563e-62
3.193e-61
-3.438e-60
4.263e-59
-5.99e-58
7.952e-57
-1e-55
1.206e-54
-1.406e-53
1.597e-52
-1.776e-51
1.937e-50
-2.076e-49
2.181e-48
-2.242e-47
2.246e-46
-2.174e-45
2.024e-44
-1.871e-43
1.708e-42
-1.535e-41
1.351e-40
-1.159e-39
9.662e-39
-7.78e-38
6.021e-37
-4.453e-36
3.126e-35
-2.061e-34
1.263e-33
-7.061e-33
3.475e-32
-1.426e-31
3.384e-31
8.629e-31
-2.076e-29
1.975e-28
-1.311e-27
7.208e-27
-3.259e-26
1.675e-25
-4.152e-25
1.258e-24
8.873e-24
6.828e-23
6.418e-22
3.468e-21
2.869e-20
1.128e-19
4.07e-19
1.973e-18
6.389e-18
1.663e-17
3.927e-17
8.692e-17
1.821e-16
3.63e-16
6.903e-16
1.256e-15
2.189e-15
3.668e-15
5.921e-15
9.227e-15
1.391e-14
2.035e-14
2.894e-14
4.008e-14
5.421e-14
7.172e-14
9.302e-14
1.185e-13
1.485e-13
1.835e-13
2.238e-13
2.7e-13
3.226e-13
3.822e-13
4.496e-13
5.256e-13
6.112e-13
7.076e-13
8.162e-13
9.385e-13
1.076e-12
1.231e-12
1.406e-12
1.602e-12
1.824e-12
2.073e-12
2.353e-12
2.667e-12
3.021e-12
3.417e-12
3.861e-12
4.357e-12
4.913e-12
5.533e-12
6.224e-12
6.995e-12
7.851e-12
8.803e-12
9.859e-12
1.103e-11
1.232e-11
1.376e-11
1.534e-11
1.708e-11
1.899e-11
2.11e-11
2.342e-11
2.596e-11
2.874e-11
3.178e-11
3.51e-11
3.871e-11
4.265e-11
4.693e-11
5.157e-11
5.663e-11
6.286e-11
5.36e-62
-4.631e-61
2.037e-60
-6.001e-60
1.252e-59
-1.919e-59
2.179e-59
-1.775e-59
8.989e-60
1.491e-59
-1.657e-58
1.9e-57
-2.584e-56
3.326e-55
-4.056e-54
4.747e-53
-5.388e-52
5.973e-51
-6.5e-50
6.958e-49
-7.331e-48
7.593e-47
-7.712e-46
7.655e-45
-7.367e-44
6.869e-43
-6.355e-42
5.808e-41
-5.221e-40
4.598e-39
-3.951e-38
3.297e-37
-2.661e-36
2.067e-35
-1.538e-34
1.09e-33
-7.278e-33
4.56e-32
-2.642e-31
1.389e-30
-6.391e-30
2.341e-29
-5.124e-29
-1.63e-28
4.013e-27
-3.202e-26
1.961e-25
-9.166e-25
6.008e-24
-1.153e-23
6.001e-23
5.106e-22
4.143e-21
3.172e-20
1.797e-19
1.013e-18
3.773e-18
1.138e-17
3.111e-17
7.933e-17
1.903e-16
4.308e-16
9.23e-16
1.874e-15
3.612e-15
6.62e-15
1.156e-14
1.931e-14
3.087e-14
4.742e-14
7.015e-14
1.002e-13
1.386e-13
1.861e-13
2.431e-13
3.099e-13
3.863e-13
4.719e-13
5.663e-13
6.691e-13
7.799e-13
8.985e-13
1.025e-12
1.16e-12
1.304e-12
1.458e-12
1.623e-12
1.802e-12
1.995e-12
2.205e-12
2.435e-12
2.688e-12
2.966e-12
3.274e-12
3.615e-12
3.993e-12
4.413e-12
4.88e-12
5.4e-12
5.978e-12
6.622e-12
7.337e-12
8.133e-12
9.018e-12
9.999e-12
1.109e-11
1.23e-11
1.363e-11
1.511e-11
1.674e-11
1.855e-11
2.054e-11
2.273e-11
2.513e-11
2.778e-11
3.068e-11
3.386e-11
3.734e-11
4.115e-11
4.53e-11
4.982e-11
5.475e-11
6.009e-11
6.589e-11
7.217e-11
7.895e-11
8.634e-11
9.611e-11
-6.918e-61
6.305e-60
-3.217e-59
1.166e-58
-3.137e-58
6.485e-58
-1.05e-57
1.328e-57
-1.293e-57
1.154e-57
-7.316e-57
7.703e-56
-9.898e-55
1.214e-53
-1.411e-52
1.58e-51
-1.723e-50
1.845e-49
-1.947e-48
2.03e-47
-2.091e-46
2.126e-45
-2.127e-44
2.088e-43
-1.998e-42
1.868e-41
-1.732e-40
1.586e-39
-1.429e-38
1.262e-37
-1.088e-36
9.118e-36
-7.397e-35
5.787e-34
-4.347e-33
3.12e-32
-2.118e-31
1.361e-30
-8.187e-30
4.573e-29
-2.336e-28
1.054e-27
-4.298e-27
1.08e-26
6.361e-27
-2.228e-25
3.187e-24
-1.567e-23
1.764e-22
-7.798e-23
3.341e-21
2.903e-20
1.981e-19
1.237e-18
5.129e-18
1.738e-17
5.338e-17
1.524e-16
4.073e-16
1.021e-15
2.405e-15
5.329e-15
1.112e-14
2.191e-14
4.078e-14
7.19e-14
1.204e-13
1.919e-13
2.921e-13
4.26e-13
5.969e-13
8.06e-13
1.052e-12
1.331e-12
1.638e-12
1.964e-12
2.303e-12
2.647e-12
2.989e-12
3.325e-12
3.654e-12
3.973e-12
4.286e-12
4.593e-12
4.898e-12
5.207e-12
5.522e-12
5.851e-12
6.199e-12
6.571e-12
6.973e-12
7.412e-12
7.894e-12
8.426e-12
9.016e-12
9.671e-12
1.04e-11
1.121e-11
1.211e-11
1.311e-11
1.422e-11
1.545e-11
1.682e-11
1.834e-11
2.003e-11
2.189e-11
2.395e-11
2.622e-11
2.873e-11
3.149e-11
3.453e-11
3.787e-11
4.154e-11
4.557e-11
4.997e-11
5.479e-11
6.006e-11
6.581e-11
7.206e-11
7.887e-11
8.626e-11
9.428e-11
1.03e-10
1.123e-10
1.224e-10
1.333e-10
1.451e-10
1.614e-10
8.404e-60
-7.933e-59
4.508e-58
-1.913e-57
6.258e-57
-1.626e-56
3.42e-56
-5.837e-56
7.864e-56
-7.005e-56
-2.378e-55
2.714e-54
-3.217e-53
3.664e-52
-3.962e-51
4.157e-50
-4.284e-49
4.37e-48
-4.428e-47
4.463e-46
-4.47e-45
4.443e-44
-4.367e-43
4.235e-42
-4.035e-41
3.79e-40
-3.531e-39
3.25e-38
-2.945e-37
2.618e-36
-2.274e-35
1.923e-34
-1.576e-33
1.248e-32
-9.522e-32
6.958e-31
-4.796e-30
3.158e-29
-1.96e-28
1.149e-27
-6.32e-27
3.233e-26
-1.521e-25
6.449e-25
-2.361e-24
6.869e-24
4.469e-24
1.874e-24
2.944e-21
5.826e-21
1.438e-19
1.17e-18
5.631e-18
2.202e-17
7.772e-17
2.538e-16
7.714e-16
2.187e-15
5.788e-15
1.431e-14
3.31e-14
7.167e-14
1.455e-13
2.772e-13
4.969e-13
8.403e-13
1.344e-12
2.041e-12
2.951e-12
4.077e-12
5.4e-12
6.88e-12
8.462e-12
1.008e-11
1.166e-11
1.314e-11
1.447e-11
1.564e-11
1.661e-11
1.74e-11
1.802e-11
1.851e-11
1.888e-11
1.918e-11
1.942e-11
1.963e-11
1.985e-11
2.009e-11
2.038e-11
2.073e-11
2.115e-11
2.167e-11
2.229e-11
2.303e-11
2.39e-11
2.491e-11
2.607e-11
2.74e-11
2.891e-11
3.063e-11
3.255e-11
3.472e-11
3.713e-11
3.983e-11
4.282e-11
4.614e-11
4.982e-11
5.388e-11
5.836e-11
6.329e-11
6.871e-11
7.466e-11
8.118e-11
8.831e-11
9.61e-11
1.046e-10
1.139e-10
1.24e-10
1.349e-10
1.468e-10
1.597e-10
1.736e-10
1.886e-10
2.048e-10
2.221e-10
2.408e-10
2.607e-10
2.893e-10
-9.718e-59
9.389e-58
-5.785e-57
2.778e-56
-1.064e-55
3.334e-55
-8.681e-55
1.891e-54
-3.429e-54
5.265e-54
-1.42e-53
8.1e-53
-8.077e-52
8.206e-51
-7.937e-50
7.556e-49
-7.185e-48
6.87e-47
-6.621e-46
6.422e-45
-6.248e-44
6.074e-43
-5.868e-42
5.628e-41
-5.361e-40
5.085e-39
-4.781e-38
4.446e-37
-4.075e-36
3.677e-35
-3.247e-34
2.801e-33
-2.343e-32
1.899e-31
-1.487e-30
1.111e-29
-7.785e-29
5.238e-28
-3.278e-27
1.971e-26
-1.129e-25
6.125e-25
-3.147e-24
1.527e-23
-6.954e-23
2.887e-22
-3.026e-22
7.705e-21
6.104e-20
5.564e-19
4.178e-18
2.101e-17
8.808e-17
3.357e-16
1.183e-15
3.868e-15
1.174e-14
3.31e-14
8.669e-14
2.111e-13
4.781e-13
1.009e-12
1.985e-12
3.649e-12
6.282e-12
1.016e-11
1.549e-11
2.234e-11
3.061e-11
3.997e-11
4.995e-11
5.997e-11
6.939e-11
7.766e-11
8.438e-11
8.927e-11
9.234e-11
9.398e-11
9.368e-11
9.255e-11
9.057e-11
8.796e-11
8.499e-11
8.187e-11
7.879e-11
7.588e-11
7.324e-11
7.092e-11
6.896e-11
6.739e-11
6.623e-11
6.547e-11
6.51e-11
6.524e-11
6.572e-11
6.659e-11
6.791e-11
6.967e-11
7.188e-11
7.454e-11
7.769e-11
8.134e-11
8.553e-11
9.028e-11
9.564e-11
1.016e-10
1.083e-10
1.158e-10
1.24e-10
1.331e-10
1.43e-10
1.54e-10
1.66e-10
1.791e-10
1.935e-10
2.091e-10
2.261e-10
2.445e-10
2.645e-10
2.862e-10
3.095e-10
3.347e-10
3.619e-10
3.91e-10
4.222e-10
4.556e-10
4.91e-10
5.43e-10
1.071e-57
-1.05e-56
6.889e-56
-3.657e-55
1.598e-54
-5.862e-54
1.832e-53
-4.901e-53
1.105e-52
-1.956e-52
-8.488e-54
1.452e-51
-1.19e-50
9.993e-50
-7.77e-49
6.075e-48
-4.931e-47
4.25e-46
-3.922e-45
3.811e-44
-3.793e-43
3.792e-42
-3.705e-41
3.606e-40
-3.431e-39
3.214e-38
-2.967e-37
2.713e-36
-2.461e-35
2.226e-34
-1.972e-33
1.734e-32
-1.461e-31
1.197e-30
-9.48e-30
7.094e-29
-5.216e-28
3.61e-27
-2.435e-26
1.56e-25
-9.513e-25
5.447e-24
-2.993e-23
1.529e-22
-7.154e-22
1.736e-21
2.446e-20
2.852e-19
2.543e-18
1.487e-17
7.317e-17
3.283e-16
1.361e-15
5.217e-15
1.849e-14
6.059e-14
1.834e-13
5.131e-13
1.327e-12
3.172e-12
7.019e-12
1.439e-11
2.737e-11
4.838e-11
7.973e-11
1.23e-10
1.782e-10
2.434e-10
3.152e-10
3.885e-10
4.572e-10
5.167e-10
5.613e-10
5.895e-10
6.012e-10
5.959e-10
5.807e-10
5.56e-10
5.245e-10
4.889e-10
4.52e-10
4.154e-10
3.807e-10
3.486e-10
3.195e-10
2.938e-10
2.712e-10
2.518e-10
2.352e-10
2.214e-10
2.099e-10
2.006e-10
1.933e-10
1.878e-10
1.84e-10
1.816e-10
1.808e-10
1.814e-10
1.831e-10
1.861e-10
1.903e-10
1.958e-10
2.026e-10
2.106e-10
2.2e-10
2.307e-10
2.428e-10
2.565e-10
2.717e-10
2.887e-10
3.074e-10
3.28e-10
3.506e-10
3.754e-10
4.024e-10
4.318e-10
4.638e-10
4.986e-10
5.361e-10
5.767e-10
6.205e-10
6.675e-10
7.181e-10
7.723e-10
8.302e-10
8.92e-10
9.568e-10
1.054e-09
-1.118e-56
1.107e-55
-7.624e-55
4.396e-54
-2.148e-53
9.045e-53
-3.324e-52
1.075e-51
-3.056e-51
7.53e-51
-1.535e-50
2.404e-50
6.868e-50
-6.084e-49
7.318e-48
-8.326e-47
8.373e-46
-7.552e-45
6.141e-44
-4.521e-43
2.99e-42
-1.703e-41
9.117e-41
-2.998e-40
3.386e-41
6.274e-39
5.094e-39
-1.014e-36
1.299e-35
-1.387e-34
1.398e-33
-1.102e-32
9.928e-32
-5.948e-31
3.126e-30
-7.87e-30
-6.507e-29
1.476e-27
-1.678e-26
1.541e-25
-1.277e-24
8.921e-24
-6.195e-23
4.314e-22
-1.079e-21
8.574e-20
1.016e-18
7.088e-18
4.153e-17
2.22e-16
1.096e-15
4.998e-15
2.102e-14
8.139e-14
2.9e-13
9.503e-13
2.862e-12
7.926e-12
2.018e-11
4.724e-11
1.018e-10
2.021e-10
3.703e-10
6.272e-10
9.858e-10
1.445e-09
1.983e-09
2.56e-09
3.13e-09
3.633e-09
4.02e-09
4.274e-09
4.333e-09
4.266e-09
4.098e-09
3.841e-09
3.525e-09
3.18e-09
2.831e-09
2.496e-09
2.186e-09
1.907e-09
1.662e-09
1.451e-09
1.27e-09
1.118e-09
9.902e-10
8.838e-10
7.955e-10
7.227e-10
6.629e-10
6.141e-10
5.747e-10
5.431e-10
5.184e-10
4.995e-10
4.858e-10
4.769e-10
4.71e-10
4.712e-10
4.735e-10
4.792e-10
4.881e-10
5.002e-10
5.154e-10
5.338e-10
5.554e-10
5.802e-10
6.084e-10
6.401e-10
6.754e-10
7.145e-10
7.577e-10
8.051e-10
8.569e-10
9.134e-10
9.748e-10
1.041e-09
1.113e-09
1.191e-09
1.275e-09
1.365e-09
1.461e-09
1.564e-09
1.674e-09
1.791e-09
1.913e-09
2.098e-09
1.092e-55
-1.086e-54
7.772e-54
-4.804e-53
2.585e-52
-1.228e-51
5.21e-51
-1.989e-50
6.848e-50
-2.108e-49
5.711e-49
-1.294e-48
4.866e-48
-3.144e-47
3.501e-46
-3.708e-45
3.453e-44
-2.937e-43
2.306e-42
-1.689e-41
1.148e-40
-7.152e-40
3.903e-39
-1.936e-38
3.616e-38
2.796e-37
-4.503e-36
4.088e-35
-4.222e-34
2.426e-33
-1.198e-32
2.17e-32
4.653e-31
-8.594e-30
1.011e-28
-9.869e-28
8.584e-27
-6.822e-26
5.063e-25
-3.506e-24
2.255e-23
-1.405e-22
8.578e-22
-2.898e-21
1.542e-19
1.99e-18
1.519e-17
9.859e-17
5.85e-16
3.202e-15
1.615e-14
7.493e-14
3.191e-13
1.245e-12
4.448e-12
1.454e-11
4.346e-11
1.188e-10
2.967e-10
6.778e-10
1.417e-09
2.715e-09
4.772e-09
7.714e-09
1.152e-08
1.598e-08
2.073e-08
2.521e-08
2.913e-08
3.171e-08
3.296e-08
3.254e-08
3.123e-08
2.905e-08
2.627e-08
2.32e-08
2.009e-08
1.713e-08
1.444e-08
1.208e-08
1.005e-08
8.355e-09
6.952e-09
5.804e-09
4.872e-09
4.119e-09
3.512e-09
3.024e-09
2.631e-09
2.315e-09
2.061e-09
1.855e-09
1.69e-09
1.558e-09
1.452e-09
1.369e-09
1.304e-09
1.255e-09
1.219e-09
1.196e-09
1.181e-09
1.181e-09
1.186e-09
1.199e-09
1.22e-09
1.249e-09
1.286e-09
1.33e-09
1.381e-09
1.44e-09
1.506e-09
1.581e-09
1.663e-09
1.755e-09
1.855e-09
1.965e-09
2.084e-09
2.213e-09
2.354e-09
2.505e-09
2.667e-09
2.841e-09
3.028e-09
3.227e-09
3.439e-09
3.665e-09
3.898e-09
4.257e-09
-9.762e-55
9.709e-54
-7.166e-53
4.696e-52
-2.749e-51
1.453e-50
-7.017e-50
3.121e-49
-1.284e-48
4.851e-48
-1.619e-47
4.333e-47
1.237e-46
-1.392e-45
1.455e-44
-1.307e-43
1.061e-42
-8.276e-42
6.188e-41
-4.483e-40
3.13e-39
-2.117e-38
1.373e-37
-8.38e-37
4.959e-36
-2.765e-35
1.336e-34
-3.681e-34
-1.637e-33
4.357e-32
-5.412e-31
5.431e-30
-4.865e-29
4.032e-28
-3.142e-27
2.32e-26
-1.629e-25
1.094e-24
-6.953e-24
4.266e-23
-2.483e-22
1.435e-21
-5.502e-21
2.322e-19
3.283e-18
2.754e-17
1.982e-16
1.308e-15
7.962e-15
4.461e-14
2.294e-13
1.08e-12
4.645e-12
1.821e-11
6.504e-11
2.113e-10
6.246e-10
1.678e-09
4.098e-09
9.096e-09
1.837e-08
3.38e-08
5.674e-08
8.714e-08
1.231e-07
1.613e-07
1.97e-07
2.257e-07
2.476e-07
2.482e-07
2.419e-07
2.272e-07
2.057e-07
1.804e-07
1.54e-07
1.286e-07
1.054e-07
8.532e-08
6.838e-08
5.448e-08
4.329e-08
3.442e-08
2.746e-08
2.202e-08
1.78e-08
1.452e-08
1.197e-08
9.977e-09
8.423e-09
7.203e-09
6.241e-09
5.48e-09
4.875e-09
4.394e-09
4.012e-09
3.708e-09
3.468e-09
3.28e-09
3.136e-09
3.029e-09
2.952e-09
2.905e-09
2.878e-09
2.882e-09
2.901e-09
2.938e-09
2.994e-09
3.067e-09
3.157e-09
3.264e-09
3.388e-09
3.53e-09
3.688e-09
3.865e-09
4.06e-09
4.274e-09
4.508e-09
4.761e-09
5.036e-09
5.333e-09
5.652e-09
5.994e-09
6.36e-09
6.75e-09
7.164e-09
7.605e-09
8.057e-09
8.758e-09
7.737e-54
-7.663e-53
5.788e-52
-3.982e-51
2.504e-50
-1.453e-49
7.867e-49
-4.016e-48
1.956e-47
-9.223e-47
4.294e-46
-2.035e-45
1.023e-44
-5.677e-44
3.511e-43
-2.401e-42
1.622e-41
-1.182e-40
8.397e-40
-5.938e-39
4.077e-38
-2.824e-37
1.949e-36
-1.384e-35
1.011e-34
-7.542e-34
5.696e-33
-4.317e-32
3.26e-31
-2.436e-30
1.792e-29
-1.293e-28
9.123e-28
-6.272e-27
4.194e-26
-2.721e-25
1.711e-24
-1.036e-23
6.155e-23
-3.41e-22
1.939e-21
-7.827e-21
2.884e-19
4.473e-18
4.125e-17
3.295e-16
2.421e-15
1.642e-14
1.025e-13
5.866e-13
3.066e-12
1.46e-11
6.318e-11
2.479e-10
8.813e-10
2.834e-09
8.243e-09
2.166e-08
5.141e-08
1.103e-07
2.139e-07
3.759e-07
5.998e-07
8.714e-07
1.161e-06
1.431e-06
1.645e-06
1.797e-06
1.787e-06
1.719e-06
1.586e-06
1.405e-06
1.202e-06
9.98e-07
8.081e-07
6.412e-07
5.007e-07
3.865e-07
2.961e-07
2.26e-07
1.723e-07
1.318e-07
1.013e-07
7.844e-08
6.132e-08
4.847e-08
3.879e-08
3.146e-08
2.587e-08
2.158e-08
1.827e-08
1.57e-08
1.368e-08
1.21e-08
1.085e-08
9.858e-09
9.074e-09
8.455e-09
7.97e-09
7.596e-09
7.314e-09
7.11e-09
6.975e-09
6.889e-09
6.879e-09
6.906e-09
6.974e-09
7.084e-09
7.235e-09
7.424e-09
7.652e-09
7.917e-09
8.22e-09
8.561e-09
8.941e-09
9.36e-09
9.819e-09
1.032e-08
1.086e-08
1.145e-08
1.208e-08
1.275e-08
1.348e-08
1.425e-08
1.506e-08
1.593e-08
1.682e-08
1.82e-08
-5.175e-53
5.09e-52
-3.908e-51
2.794e-50
-1.862e-49
1.164e-48
-6.889e-48
3.882e-47
-2.094e-46
1.084e-45
-5.36e-45
2.498e-44
-1.058e-43
3.67e-43
-6.488e-43
-7.051e-42
8.278e-41
-7.569e-40
5.511e-39
-3.754e-38
2.007e-37
-8.489e-37
8.587e-37
3.343e-35
-4.671e-34
4.731e-33
-4.198e-32
3.452e-31
-2.692e-30
2.015e-29
-1.457e-28
1.02e-27
-6.934e-27
4.577e-26
-2.934e-25
1.825e-24
-1.1e-23
6.485e-23
-3.526e-22
2.081e-21
-8.557e-21
2.91e-19
4.95e-18
5.016e-17
4.444e-16
3.635e-15
2.748e-14
1.913e-13
1.22e-12
7.102e-12
3.759e-11
1.802e-10
7.807e-10
3.049e-09
1.072e-08
3.391e-08
9.635e-08
2.458e-07
5.627e-07
1.157e-06
2.141e-06
3.574e-06
5.394e-06
7.387e-06
9.25e-06
1.074e-05
1.177e-05
1.168e-05
1.116e-05
1.019e-05
8.905e-06
7.489e-06
6.094e-06
4.823e-06
3.73e-06
2.832e-06
2.12e-06
1.572e-06
1.159e-06
8.522e-07
6.277e-07
4.643e-07
3.459e-07
2.6e-07
1.977e-07
1.522e-07
1.188e-07
9.415e-08
7.575e-08
6.192e-08
5.142e-08
4.338e-08
3.718e-08
3.235e-08
2.857e-08
2.56e-08
2.325e-08
2.139e-08
1.992e-08
1.878e-08
1.789e-08
1.722e-08
1.673e-08
1.64e-08
1.62e-08
1.613e-08
1.618e-08
1.632e-08
1.655e-08
1.687e-08
1.728e-08
1.777e-08
1.834e-08
1.9e-08
1.973e-08
2.055e-08
2.146e-08
2.245e-08
2.352e-08
2.468e-08
2.594e-08
2.728e-08
2.871e-08
3.024e-08
3.186e-08
3.358e-08
3.533e-08
3.807e-08
2.777e-52
-2.695e-51
2.089e-50
-1.54e-49
1.078e-48
-7.221e-48
4.661e-47
-2.93e-46
1.816e-45
-1.123e-44
7.001e-44
-4.432e-43
2.864e-42
-1.884e-41
1.243e-40
-8.211e-40
5.437e-39
-3.633e-38
2.417e-37
-1.601e-36
1.055e-35
-6.927e-35
4.541e-34
-2.963e-33
1.929e-32
-1.254e-31
8.115e-31
-5.225e-30
3.34e-29
-2.117e-28
1.327e-27
-8.22e-27
5.017e-26
-3.012e-25
1.775e-24
-1.025e-23
5.804e-23
-3.136e-22
1.903e-21
-7.227e-21
2.357e-19
4.393e-18
4.882e-17
4.787e-16
4.349e-15
3.66e-14
2.839e-13
2.019e-12
1.311e-11
7.723e-11
4.114e-10
1.974e-09
8.499e-09
3.277e-08
1.13e-07
3.479e-07
9.556e-07
2.341e-06
5.11e-06
9.968e-06
1.746e-05
2.753e-05
3.916e-05
5.044e-05
5.935e-05
6.624e-05
6.587e-05
6.304e-05
5.747e-05
5.001e-05
4.175e-05
3.363e-05
2.627e-05
2.001e-05
1.491e-05
1.093e-05
7.913e-06
5.68e-06
4.06e-06
2.9e-06
2.077e-06
1.496e-06
1.087e-06
7.979e-07
5.932e-07
4.473e-07
3.423e-07
2.663e-07
2.105e-07
1.693e-07
1.385e-07
1.151e-07
9.735e-08
8.363e-08
7.297e-08
6.464e-08
5.808e-08
5.29e-08
4.881e-08
4.558e-08
4.305e-08
4.11e-08
3.962e-08
3.855e-08
3.782e-08
3.737e-08
3.723e-08
3.735e-08
3.765e-08
3.816e-08
3.887e-08
3.976e-08
4.084e-08
4.209e-08
4.352e-08
4.512e-08
4.69e-08
4.886e-08
5.099e-08
5.33e-08
5.579e-08
5.846e-08
6.132e-08
6.436e-08
6.758e-08
7.1e-08
7.446e-08
7.991e-08
-9.866e-52
9.676e-51
-7.575e-50
5.658e-49
-4.019e-48
2.711e-47
-1.732e-46
1.043e-45
-5.869e-45
3.03e-44
-1.377e-43
4.979e-43
1.541e-43
-1.693e-41
1.656e-40
-1.509e-39
1.195e-38
-8.566e-38
5.731e-37
-3.602e-36
2.119e-35
-1.133e-34
5.714e-34
-2.056e-33
2.647e-33
4.401e-32
-6.457e-31
6.261e-30
-5.205e-29
3.973e-28
-2.863e-27
1.974e-26
-1.313e-25
8.451e-25
-5.281e-24
3.21e-23
-1.883e-22
1.141e-21
-3.563e-21
1.503e-19
3.089e-18
3.766e-17
4.073e-16
4.096e-15
3.826e-14
3.3e-13
2.615e-12
1.891e-11
1.241e-10
7.356e-10
3.915e-09
1.863e-08
7.898e-08
2.973e-07
9.922e-07
2.931e-06
7.665e-06
1.776e-05
3.642e-05
6.658e-05
0.0001094
0.000162
0.0002168
0.0002622
0.000297
0.0003035
0.0002932
0.0002694
0.000236
0.000198
0.0001599
0.0001249
9.488e-05
7.034e-05
5.112e-05
3.656e-05
2.584e-05
1.813e-05
1.267e-05
8.857e-06
6.214e-06
4.39e-06
3.13e-06
2.258e-06
1.651e-06
1.226e-06
9.247e-07
7.094e-07
5.537e-07
4.399e-07
3.557e-07
2.927e-07
2.45e-07
2.085e-07
1.803e-07
1.583e-07
1.411e-07
1.275e-07
1.168e-07
1.083e-07
1.016e-07
9.64e-08
9.237e-08
8.933e-08
8.714e-08
8.57e-08
8.477e-08
8.468e-08
8.498e-08
8.571e-08
8.689e-08
8.849e-08
9.049e-08
9.287e-08
9.563e-08
9.876e-08
1.023e-07
1.061e-07
1.103e-07
1.149e-07
1.199e-07
1.252e-07
1.309e-07
1.37e-07
1.434e-07
1.502e-07
1.571e-07
1.679e-07
4.253e-51
-3.744e-50
2.826e-49
-2.19e-48
1.716e-47
-1.343e-46
1.04e-45
-7.9e-45
5.873e-44
-4.268e-43
3.035e-42
-2.114e-41
1.447e-40
-9.753e-40
6.482e-39
-4.259e-38
2.772e-37
-1.788e-36
1.145e-35
-7.278e-35
4.597e-34
-2.885e-33
1.799e-32
-1.114e-31
6.854e-31
-4.183e-30
2.532e-29
-1.52e-28
9.04e-28
-5.324e-27
3.102e-26
-1.788e-25
1.018e-24
-5.716e-24
3.168e-23
-1.723e-22
9.487e-22
-4.271e-21
5.347e-20
1.655e-18
2.282e-17
2.721e-16
3.016e-15
3.113e-14
2.976e-13
2.619e-12
2.107e-11
1.54e-10
1.015e-09
6.001e-09
3.162e-08
1.477e-07
6.083e-07
2.202e-06
6.991e-06
1.943e-05
4.751e-05
0.0001023
0.000194
0.0003279
0.0005008
0.0006938
0.0008705
0.001003
0.001076
0.001055
0.0009877
0.000881
0.0007536
0.0006203
0.0004927
0.0003794
0.0002843
0.0002081
0.0001494
0.0001055
7.358e-05
5.093e-05
3.513e-05
2.424e-05
1.679e-05
1.171e-05
8.251e-06
5.886e-06
4.258e-06
3.129e-06
2.338e-06
1.777e-06
1.376e-06
1.085e-06
8.705e-07
7.112e-07
5.913e-07
5.001e-07
4.299e-07
3.754e-07
3.327e-07
2.992e-07
2.726e-07
2.516e-07
2.349e-07
2.218e-07
2.115e-07
2.037e-07
1.979e-07
1.937e-07
1.911e-07
1.896e-07
1.898e-07
1.907e-07
1.926e-07
1.954e-07
1.991e-07
2.036e-07
2.089e-07
2.15e-07
2.219e-07
2.295e-07
2.379e-07
2.47e-07
2.569e-07
2.675e-07
2.789e-07
2.91e-07
3.037e-07
3.173e-07
3.309e-07
3.526e-07
2.192e-50
-2.122e-49
1.678e-48
-1.291e-47
9.608e-47
-6.926e-46
4.848e-45
-3.306e-44
2.204e-43
-1.442e-42
9.296e-42
-5.925e-41
3.746e-40
-2.355e-39
1.476e-38
-9.241e-38
5.786e-37
-3.627e-36
2.279e-35
-1.436e-34
9.085e-34
-5.772e-33
3.69e-32
-2.347e-31
1.483e-30
-9.318e-30
5.814e-29
-3.603e-28
2.217e-27
-1.353e-26
8.191e-26
-4.915e-25
2.921e-24
-1.718e-23
1.001e-22
-5.696e-22
3.474e-21
-1.463e-20
4.614e-19
1.049e-17
1.424e-16
1.734e-15
1.967e-14
2.074e-13
2.02e-12
1.803e-11
1.464e-10
1.073e-09
7.052e-09
4.12e-08
2.125e-07
9.616e-07
3.793e-06
1.298e-05
3.84e-05
9.833e-05
0.0002204
0.0004339
0.000753
0.001161
0.001631
0.002122
0.002501
0.002775
0.002782
0.002691
0.002475
0.002181
0.001859
0.001531
0.001218
0.00094
0.0007064
0.0005183
0.0003722
0.0002626
0.0001828
0.0001261
8.658e-05
5.944e-05
4.095e-05
2.841e-05
1.991e-05
1.413e-05
1.017e-05
7.436e-06
5.531e-06
4.188e-06
3.229e-06
2.535e-06
2.028e-06
1.651e-06
1.368e-06
1.153e-06
9.886e-07
8.607e-07
7.607e-07
6.819e-07
6.196e-07
5.702e-07
5.309e-07
4.997e-07
4.753e-07
4.563e-07
4.419e-07
4.314e-07
4.243e-07
4.199e-07
4.185e-07
4.196e-07
4.226e-07
4.275e-07
4.342e-07
4.428e-07
4.531e-07
4.65e-07
4.785e-07
4.935e-07
5.101e-07
5.283e-07
5.479e-07
5.69e-07
5.916e-07
6.157e-07
6.412e-07
6.682e-07
6.953e-07
7.384e-07
-4.088e-50
3.95e-49
-3.124e-48
2.406e-47
-1.796e-46
1.3e-45
-9.128e-45
6.234e-44
-4.15e-43
2.701e-42
-1.725e-41
1.085e-40
-6.743e-40
4.161e-39
-2.56e-38
1.576e-37
-9.747e-37
6.069e-36
-3.814e-35
2.421e-34
-1.553e-33
1.006e-32
-6.587e-32
4.272e-31
-2.745e-30
1.75e-29
-1.106e-28
6.943e-28
-4.324e-27
2.674e-26
-1.641e-25
1e-24
-6.053e-24
3.638e-23
-2.159e-22
1.335e-21
-4.977e-21
1.654e-19
4.042e-18
5.903e-17
7.806e-16
9.676e-15
1.119e-13
1.2e-12
1.184e-11
1.066e-10
8.684e-10
6.343e-09
4.117e-08
2.354e-07
1.175e-06
5.082e-06
1.889e-05
5.998e-05
0.0001621
0.0003749
0.0007583
0.001352
0.002148
0.00298
0.003824
0.00482
0.005355
0.005446
0.005361
0.005125
0.004697
0.004172
0.003615
0.00303
0.00245
0.001922
0.001469
0.001095
0.0007961
0.0005673
0.0003979
0.000276
0.0001903
0.000131
9.043e-05
6.282e-05
4.406e-05
3.128e-05
2.252e-05
1.648e-05
1.226e-05
9.283e-06
7.159e-06
5.623e-06
4.497e-06
3.662e-06
3.035e-06
2.558e-06
2.192e-06
1.908e-06
1.685e-06
1.51e-06
1.371e-06
1.26e-06
1.172e-06
1.102e-06
1.046e-06
1.003e-06
9.698e-07
9.452e-07
9.278e-07
9.171e-07
9.108e-07
9.12e-07
9.166e-07
9.252e-07
9.377e-07
9.54e-07
9.739e-07
9.971e-07
1.024e-06
1.053e-06
1.086e-06
1.122e-06
1.161e-06
1.203e-06
1.248e-06
1.296e-06
1.347e-06
1.401e-06
1.454e-06
1.54e-06
9.704e-50
-8.91e-49
6.848e-48
-5.261e-47
4.006e-46
-3.014e-45
2.234e-44
-1.629e-43
1.167e-42
-8.212e-42
5.674e-41
-3.854e-40
2.575e-39
-1.695e-38
1.101e-37
-7.059e-37
4.479e-36
-2.815e-35
1.754e-34
-1.085e-33
6.667e-33
-4.072e-32
2.474e-31
-1.492e-30
8.949e-30
-5.338e-29
3.17e-28
-1.874e-27
1.104e-26
-6.478e-26
3.791e-25
-2.212e-24
1.289e-23
-7.473e-23
4.457e-22
-1.995e-21
3.632e-20
1.203e-18
1.934e-17
2.772e-16
3.731e-15
4.708e-14
5.531e-13
6.005e-12
5.973e-11
5.394e-10
4.38e-09
3.165e-08
2.013e-07
1.115e-06
5.326e-06
2.171e-05
7.489e-05
0.0002171
0.0005267
0.001087
0.001961
0.003173
0.004704
0.005858
0.006807
0.009046
0.01027
0.01031
0.01027
0.01005
0.008557
0.006799
0.005866
0.005017
0.004145
0.003333
0.002614
0.001995
0.001482
0.001075
0.0007653
0.0005379
0.000375
0.0002607
0.0001815
0.000127
8.968e-05
6.405e-05
4.638e-05
3.41e-05
2.549e-05
1.939e-05
1.502e-05
1.184e-05
9.507e-06
7.767e-06
6.457e-06
5.457e-06
4.687e-06
4.088e-06
3.618e-06
3.246e-06
2.95e-06
2.715e-06
2.526e-06
2.376e-06
2.257e-06
2.163e-06
2.09e-06
2.036e-06
1.997e-06
1.972e-06
1.955e-06
1.956e-06
1.964e-06
1.979e-06
2.003e-06
2.034e-06
2.073e-06
2.119e-06
2.171e-06
2.23e-06
2.295e-06
2.367e-06
2.444e-06
2.528e-06
2.618e-06
2.713e-06
2.813e-06
2.92e-06
3.026e-06
3.196e-06
1.935e-49
-1.889e-48
1.516e-47
-1.191e-46
9.11e-46
-6.781e-45
4.913e-44
-3.47e-43
2.393e-42
-1.614e-41
1.068e-40
-6.953e-40
4.463e-39
-2.834e-38
1.784e-37
-1.117e-36
6.974e-36
-4.347e-35
2.712e-34
-1.695e-33
1.063e-32
-6.687e-32
4.222e-31
-2.658e-30
1.662e-29
-1.034e-28
6.406e-28
-3.953e-27
2.432e-26
-1.493e-25
9.149e-25
-5.603e-24
3.432e-23
-2.093e-22
1.345e-21
-5.007e-21
1.825e-19
4.897e-18
7.829e-17
1.139e-15
1.557e-14
1.993e-13
2.369e-12
2.593e-11
2.589e-10
2.335e-09
1.88e-08
1.335e-07
8.258e-07
4.393e-06
1.985e-05
7.531e-05
0.0002379
0.0006219
0.001343
0.002475
0.003941
0.00591
0.008422
0.01031
0.01053
0.01025
0.01095
0.01079
0.01101
0.01196
0.01003
0.01052
0.01017
0.008312
0.006385
0.005169
0.004146
0.003237
0.002455
0.001816
0.001318
0.0009426
0.0006682
0.0004716
0.0003329
0.000236
0.0001686
0.0001217
8.907e-05
6.613e-05
4.989e-05
3.827e-05
2.988e-05
2.373e-05
1.918e-05
1.578e-05
1.319e-05
1.121e-05
9.676e-06
8.476e-06
7.531e-06
6.781e-06
6.182e-06
5.703e-06
5.319e-06
5.011e-06
4.766e-06
4.573e-06
4.424e-06
4.311e-06
4.229e-06
4.177e-06
4.139e-06
4.14e-06
4.153e-06
4.182e-06
4.228e-06
4.29e-06
4.367e-06
4.457e-06
4.561e-06
4.678e-06
4.808e-06
4.95e-06
5.105e-06
5.271e-06
5.448e-06
5.637e-06
5.836e-06
6.048e-06
6.257e-06
6.593e-06
-3.567e-49
3.277e-48
-2.52e-47
1.937e-46
-1.475e-45
1.11e-44
-8.232e-44
6.01e-43
-4.314e-42
3.043e-41
-2.109e-40
1.437e-39
-9.631e-39
6.352e-38
-4.128e-37
2.646e-36
-1.675e-35
1.048e-34
-6.489e-34
3.982e-33
-2.423e-32
1.465e-31
-8.794e-31
5.24e-30
-3.11e-29
1.84e-28
-1.086e-27
6.408e-27
-3.779e-26
2.231e-25
-1.32e-24
7.835e-24
-4.659e-23
2.855e-22
-1.323e-21
3.005e-20
1.028e-18
1.784e-17
2.786e-16
4.101e-15
5.679e-14
7.346e-13
8.803e-12
9.682e-11
9.671e-10
8.673e-09
6.892e-08
4.786e-07
2.861e-06
1.45e-05
6.135e-05
0.0002143
0.0006134
0.001436
0.00277
0.004659
0.006529
0.00953
0.009943
0.01083
0.01115
0.01032
0.01001
0.01
0.01
0.01003
0.01019
0.01258
0.01368
0.009948
0.009842
0.007518
0.006061
0.004814
0.003708
0.00279
0.002062
0.001504
0.001087
0.0007819
0.0005621
0.0004054
0.0002943
0.0002158
0.0001602
0.0001206
9.214e-05
7.156e-05
5.65e-05
4.537e-05
3.704e-05
3.074e-05
2.593e-05
2.221e-05
1.931e-05
1.703e-05
1.522e-05
1.378e-05
1.262e-05
1.169e-05
1.094e-05
1.034e-05
9.864e-06
9.486e-06
9.192e-06
8.971e-06
8.811e-06
8.711e-06
8.638e-06
8.641e-06
8.668e-06
8.728e-06
8.822e-06
8.946e-06
9.1e-06
9.281e-06
9.49e-06
9.724e-06
9.982e-06
1.027e-05
1.057e-05
1.09e-05
1.125e-05
1.162e-05
1.202e-05
1.243e-05
1.284e-05
1.35e-05
-7.66e-49
7.222e-48
-5.668e-47
4.422e-46
-3.402e-45
2.574e-44
-1.913e-43
1.395e-42
-9.979e-42
7.002e-41
-4.822e-40
3.262e-39
-2.169e-38
1.421e-37
-9.17e-37
5.843e-36
-3.681e-35
2.295e-34
-1.418e-33
8.7e-33
-5.303e-32
3.216e-31
-1.943e-30
1.17e-29
-7.028e-29
4.212e-28
-2.523e-27
1.512e-26
-9.078e-26
5.469e-25
-3.31e-24
2.017e-23
-1.234e-22
7.888e-22
-3.596e-21
9.025e-20
3.144e-18
5.509e-17
8.703e-16
1.296e-14
1.813e-13
2.364e-12
2.848e-11
3.139e-10
3.128e-09
2.781e-08
2.175e-07
1.471e-06
8.454e-06
4.053e-05
0.0001593
0.0005074
0.001305
0.002735
0.004818
0.007751
0.01038
0.01043
0.01053
0.009997
0.00999
0.009969
0.009969
0.009969
0.009969
0.009969
0.009969
0.009983
0.01001
0.01016
0.01059
0.01055
0.009119
0.006809
0.005211
0.00396
0.002976
0.002214
0.001634
0.0012
0.000881
0.0006484
0.0004802
0.0003588
0.0002712
0.0002076
0.0001613
0.0001272
0.0001019
8.296e-05
6.86e-05
5.762e-05
4.914e-05
4.252e-05
3.731e-05
3.319e-05
2.989e-05
2.725e-05
2.512e-05
2.34e-05
2.202e-05
2.09e-05
2.001e-05
1.931e-05
1.877e-05
1.836e-05
1.807e-05
1.789e-05
1.778e-05
1.779e-05
1.786e-05
1.799e-05
1.819e-05