/*--------------------------------*- C++ -*----------------------------------*\
  =========                 |
  \\      /  F ield         | OpenFOAM: The Open Source CFD Toolbox
   \\    /   O peration     | Website:  https://openfoam.org
    \\  /    A nd           | Version:  7
     \\/     M anipulation  |
\*---------------------------------------------------------------------------*/
FoamFile
{
    version     2.0;
    format      ascii;
    class       volScalarField;
    location    "2579.99947344456314";
    object      p;
}
// * * * * * * * * * * * * * * * * * * * * * * * * * * * * * * * * * * * * * //

dimensions      [0 2 -2 0 0 0 0];

internalField   nonuniform List<scalar> 
4096
(
0.000547
0.0003761
0.0002919
0.0002497
0.0002263
0.0002124
0.0002035
0.0001974
0.000193
0.0001897
0.0001872
0.0001851
0.0001835
0.0001821
0.0001809
0.0001799
0.000179
0.0001782
0.0001775
0.0001768
0.0001762
0.0001757
0.0001751
0.0001746
0.0001741
0.0001736
0.0001731
0.0001727
0.0001722
0.0001717
0.0001713
0.0001708
0.0001703
0.0001698
0.0001693
0.0001688
0.0001683
0.0001677
0.0001671
0.0001664
0.0001657
0.0001649
0.000164
0.000163
0.0001619
0.0001607
0.0001593
0.0001578
0.0001561
0.0001541
0.000152
0.0001496
0.0001469
0.0001439
0.0001407
0.0001371
0.0001333
0.0001291
0.0001247
0.0001201
0.0001152
0.0001101
0.0001048
9.95e-05
9.412e-05
8.874e-05
8.341e-05
7.818e-05
7.31e-05
6.819e-05
6.35e-05
5.905e-05
5.485e-05
5.091e-05
4.725e-05
4.386e-05
4.074e-05
3.788e-05
3.528e-05
3.292e-05
3.078e-05
2.886e-05
2.713e-05
2.557e-05
2.417e-05
2.292e-05
2.179e-05
2.077e-05
1.984e-05
1.9e-05
1.824e-05
1.753e-05
1.687e-05
1.626e-05
1.568e-05
1.513e-05
1.461e-05
1.41e-05
1.361e-05
1.313e-05
1.266e-05
1.219e-05
1.173e-05
1.128e-05
1.082e-05
1.037e-05
9.911e-06
9.456e-06
8.999e-06
8.541e-06
8.081e-06
7.619e-06
7.155e-06
6.689e-06
6.219e-06
5.748e-06
5.273e-06
4.796e-06
4.317e-06
3.835e-06
3.35e-06
2.864e-06
2.377e-06
1.891e-06
1.407e-06
9.328e-07
4.778e-07
1.065e-07
0.0004026
0.0003388
0.000289
0.000257
0.000236
0.0002217
0.0002117
0.0002043
0.0001988
0.0001946
0.0001913
0.0001886
0.0001864
0.0001846
0.0001831
0.0001817
0.0001806
0.0001795
0.0001786
0.0001778
0.000177
0.0001763
0.0001756
0.000175
0.0001744
0.0001738
0.0001732
0.0001727
0.0001721
0.0001715
0.000171
0.0001704
0.0001699
0.0001693
0.0001687
0.0001681
0.0001674
0.0001667
0.000166
0.0001652
0.0001644
0.0001635
0.0001625
0.0001614
0.0001602
0.0001589
0.0001575
0.0001558
0.000154
0.0001521
0.0001499
0.0001474
0.0001448
0.0001418
0.0001387
0.0001352
0.0001315
0.0001275
0.0001232
0.0001187
0.0001141
0.0001092
0.0001042
9.916e-05
9.405e-05
8.893e-05
8.387e-05
7.89e-05
7.405e-05
6.937e-05
6.487e-05
6.059e-05
5.653e-05
5.272e-05
4.915e-05
4.583e-05
4.276e-05
3.993e-05
3.733e-05
3.495e-05
3.279e-05
3.082e-05
2.903e-05
2.74e-05
2.593e-05
2.46e-05
2.338e-05
2.227e-05
2.126e-05
2.033e-05
1.948e-05
1.868e-05
1.794e-05
1.725e-05
1.659e-05
1.597e-05
1.538e-05
1.48e-05
1.425e-05
1.371e-05
1.319e-05
1.268e-05
1.217e-05
1.167e-05
1.118e-05
1.069e-05
1.02e-05
9.716e-06
9.232e-06
8.75e-06
8.268e-06
7.786e-06
7.304e-06
6.822e-06
6.339e-06
5.854e-06
5.369e-06
4.883e-06
4.395e-06
3.907e-06
3.417e-06
2.927e-06
2.438e-06
1.95e-06
1.465e-06
9.882e-07
5.238e-07
1.256e-07
0.0003191
0.0002974
0.000272
0.0002512
0.0002357
0.0002239
0.0002149
0.0002079
0.0002023
0.0001979
0.0001942
0.0001913
0.0001888
0.0001867
0.0001849
0.0001833
0.0001819
0.0001807
0.0001796
0.0001787
0.0001777
0.0001769
0.0001761
0.0001754
0.0001747
0.000174
0.0001733
0.0001726
0.000172
0.0001713
0.0001707
0.0001701
0.0001694
0.0001687
0.000168
0.0001673
0.0001666
0.0001658
0.000165
0.0001641
0.0001632
0.0001622
0.0001611
0.0001599
0.0001586
0.0001572
0.0001557
0.000154
0.0001522
0.0001502
0.000148
0.0001455
0.0001429
0.00014
0.0001369
0.0001335
0.0001299
0.000126
0.0001219
0.0001176
0.0001131
0.0001085
0.0001037
9.886e-05
9.397e-05
8.909e-05
8.425e-05
7.95e-05
7.486e-05
7.037e-05
6.606e-05
6.193e-05
5.801e-05
5.432e-05
5.084e-05
4.76e-05
4.458e-05
4.178e-05
3.919e-05
3.681e-05
3.463e-05
3.262e-05
3.079e-05
2.911e-05
2.758e-05
2.617e-05
2.489e-05
2.37e-05
2.261e-05
2.16e-05
2.067e-05
1.98e-05
1.898e-05
1.821e-05
1.748e-05
1.679e-05
1.613e-05
1.55e-05
1.489e-05
1.43e-05
1.372e-05
1.316e-05
1.261e-05
1.207e-05
1.154e-05
1.101e-05
1.049e-05
9.98e-06
9.47e-06
8.963e-06
8.459e-06
7.958e-06
7.458e-06
6.959e-06
6.462e-06
5.965e-06
5.469e-06
4.972e-06
4.476e-06
3.981e-06
3.485e-06
2.99e-06
2.496e-06
2.003e-06
1.513e-06
1.027e-06
5.481e-07
1.287e-07
0.0002744
0.0002673
0.000254
0.0002408
0.0002299
0.0002211
0.000214
0.0002081
0.0002032
0.0001991
0.0001956
0.0001927
0.0001901
0.000188
0.0001861
0.0001844
0.0001829
0.0001816
0.0001804
0.0001793
0.0001783
0.0001774
0.0001765
0.0001756
0.0001749
0.0001741
0.0001733
0.0001726
0.0001719
0.0001712
0.0001704
0.0001697
0.000169
0.0001682
0.0001675
0.0001667
0.0001658
0.000165
0.0001641
0.0001631
0.0001621
0.000161
0.0001599
0.0001586
0.0001573
0.0001558
0.0001543
0.0001525
0.0001507
0.0001486
0.0001464
0.000144
0.0001414
0.0001385
0.0001354
0.0001321
0.0001286
0.0001248
0.0001209
0.0001167
0.0001124
0.0001079
0.0001033
9.86e-05
9.389e-05
8.919e-05
8.453e-05
7.994e-05
7.547e-05
7.114e-05
6.697e-05
6.297e-05
5.917e-05
5.558e-05
5.219e-05
4.901e-05
4.604e-05
4.328e-05
4.072e-05
3.834e-05
3.615e-05
3.413e-05
3.227e-05
3.056e-05
2.898e-05
2.753e-05
2.618e-05
2.494e-05
2.379e-05
2.272e-05
2.172e-05
2.078e-05
1.99e-05
1.907e-05
1.828e-05
1.753e-05
1.682e-05
1.613e-05
1.547e-05
1.483e-05
1.421e-05
1.36e-05
1.301e-05
1.244e-05
1.187e-05
1.131e-05
1.077e-05
1.023e-05
9.692e-06
9.163e-06
8.639e-06
8.119e-06
7.603e-06
7.09e-06
6.579e-06
6.07e-06
5.563e-06
5.057e-06
4.553e-06
4.05e-06
3.547e-06
3.046e-06
2.545e-06
2.046e-06
1.548e-06
1.052e-06
5.59e-07
1.262e-07
0.0002475
0.0002465
0.0002395
0.0002309
0.0002231
0.0002165
0.000211
0.0002063
0.0002023
0.0001988
0.0001957
0.000193
0.0001906
0.0001885
0.0001867
0.000185
0.0001835
0.0001821
0.0001809
0.0001797
0.0001787
0.0001777
0.0001767
0.0001758
0.000175
0.0001741
0.0001733
0.0001725
0.0001717
0.000171
0.0001702
0.0001694
0.0001686
0.0001678
0.0001669
0.0001661
0.0001652
0.0001643
0.0001633
0.0001623
0.0001612
0.0001601
0.0001589
0.0001576
0.0001562
0.0001547
0.0001531
0.0001513
0.0001494
0.0001474
0.0001451
0.0001427
0.0001401
0.0001373
0.0001343
0.0001311
0.0001276
0.000124
0.0001201
0.000116
0.0001118
0.0001074
0.0001029
9.84e-05
9.382e-05
8.924e-05
8.471e-05
8.026e-05
7.591e-05
7.17e-05
6.764e-05
6.376e-05
6.006e-05
5.655e-05
5.324e-05
5.012e-05
4.72e-05
4.448e-05
4.194e-05
3.958e-05
3.74e-05
3.537e-05
3.35e-05
3.176e-05
3.016e-05
2.867e-05
2.728e-05
2.6e-05
2.48e-05
2.368e-05
2.263e-05
2.164e-05
2.071e-05
1.982e-05
1.899e-05
1.819e-05
1.742e-05
1.669e-05
1.598e-05
1.53e-05
1.464e-05
1.4e-05
1.338e-05
1.277e-05
1.217e-05
1.159e-05
1.101e-05
1.045e-05
9.893e-06
9.345e-06
8.803e-06
8.266e-06
7.735e-06
7.208e-06
6.686e-06
6.166e-06
5.649e-06
5.135e-06
4.623e-06
4.112e-06
3.603e-06
3.095e-06
2.588e-06
2.082e-06
1.576e-06
1.071e-06
5.657e-07
1.233e-07
0.0002301
0.0002316
0.0002283
0.0002226
0.0002169
0.0002118
0.0002075
0.0002037
0.0002005
0.0001975
0.0001949
0.0001926
0.0001904
0.0001885
0.0001868
0.0001852
0.0001837
0.0001824
0.0001811
0.00018
0.0001789
0.0001778
0.0001769
0.0001759
0.000175
0.0001742
0.0001733
0.0001725
0.0001716
0.0001708
0.00017
0.0001691
0.0001683
0.0001674
0.0001665
0.0001656
0.0001647
0.0001637
0.0001627
0.0001616
0.0001605
0.0001593
0.000158
0.0001567
0.0001552
0.0001537
0.0001521
0.0001503
0.0001484
0.0001464
0.0001442
0.0001418
0.0001392
0.0001364
0.0001335
0.0001303
0.0001269
0.0001233
0.0001195
0.0001155
0.0001114
0.0001071
0.0001027
9.823e-05
9.373e-05
8.925e-05
8.481e-05
8.046e-05
7.621e-05
7.209e-05
6.813e-05
6.433e-05
6.071e-05
5.728e-05
5.403e-05
5.097e-05
4.81e-05
4.541e-05
4.29e-05
4.056e-05
3.839e-05
3.636e-05
3.448e-05
3.274e-05
3.111e-05
2.96e-05
2.819e-05
2.687e-05
2.564e-05
2.448e-05
2.339e-05
2.236e-05
2.139e-05
2.046e-05
1.958e-05
1.874e-05
1.794e-05
1.717e-05
1.643e-05
1.571e-05
1.502e-05
1.434e-05
1.369e-05
1.305e-05
1.243e-05
1.182e-05
1.123e-05
1.064e-05
1.007e-05
9.503e-06
8.946e-06
8.395e-06
7.851e-06
7.313e-06
6.779e-06
6.25e-06
5.725e-06
5.203e-06
4.683e-06
4.166e-06
3.651e-06
3.137e-06
2.624e-06
2.111e-06
1.599e-06
1.086e-06
5.711e-07
1.212e-07
0.0002182
0.0002207
0.0002194
0.0002157
0.0002115
0.0002076
0.0002041
0.000201
0.0001983
0.0001959
0.0001936
0.0001916
0.0001898
0.0001881
0.0001865
0.000185
0.0001836
0.0001823
0.0001811
0.00018
0.0001789
0.0001779
0.0001769
0.0001759
0.000175
0.0001741
0.0001732
0.0001724
0.0001715
0.0001706
0.0001697
0.0001689
0.000168
0.0001671
0.0001661
0.0001652
0.0001642
0.0001632
0.0001621
0.000161
0.0001599
0.0001586
0.0001573
0.000156
0.0001545
0.000153
0.0001513
0.0001495
0.0001476
0.0001456
0.0001434
0.000141
0.0001385
0.0001358
0.0001329
0.0001297
0.0001264
0.0001228
0.0001191
0.0001152
0.0001111
0.0001068
0.0001025
9.808e-05
9.364e-05
8.922e-05
8.484e-05
8.055e-05
7.638e-05
7.233e-05
6.844e-05
6.471e-05
6.116e-05
5.778e-05
5.459e-05
5.158e-05
4.875e-05
4.61e-05
4.361e-05
4.13e-05
3.914e-05
3.712e-05
3.525e-05
3.35e-05
3.186e-05
3.034e-05
2.891e-05
2.757e-05
2.631e-05
2.513e-05
2.401e-05
2.295e-05
2.194e-05
2.099e-05
2.007e-05
1.92e-05
1.837e-05
1.756e-05
1.679e-05
1.605e-05
1.533e-05
1.463e-05
1.395e-05
1.329e-05
1.265e-05
1.202e-05
1.141e-05
1.081e-05
1.022e-05
9.636e-06
9.065e-06
8.503e-06
7.948e-06
7.4e-06
6.857e-06
6.32e-06
5.788e-06
5.259e-06
4.734e-06
4.211e-06
3.69e-06
3.171e-06
2.653e-06
2.136e-06
1.618e-06
1.098e-06
5.762e-07
1.203e-07
0.0002096
0.0002123
0.0002122
0.00021
0.0002069
0.0002038
0.0002009
0.0001984
0.0001961
0.000194
0.0001922
0.0001904
0.0001888
0.0001873
0.0001859
0.0001846
0.0001833
0.0001821
0.0001809
0.0001799
0.0001788
0.0001778
0.0001768
0.0001759
0.0001749
0.000174
0.0001731
0.0001722
0.0001714
0.0001705
0.0001696
0.0001687
0.0001677
0.0001668
0.0001658
0.0001649
0.0001638
0.0001628
0.0001617
0.0001606
0.0001594
0.0001581
0.0001568
0.0001554
0.000154
0.0001524
0.0001507
0.000149
0.0001471
0.0001451
0.0001429
0.0001405
0.000138
0.0001353
0.0001325
0.0001294
0.0001261
0.0001226
0.0001189
0.000115
0.0001109
0.0001067
0.0001024
9.796e-05
9.355e-05
8.915e-05
8.481e-05
8.056e-05
7.643e-05
7.244e-05
6.86e-05
6.492e-05
6.142e-05
5.809e-05
5.494e-05
5.197e-05
4.918e-05
4.656e-05
4.41e-05
4.181e-05
3.967e-05
3.767e-05
3.58e-05
3.405e-05
3.242e-05
3.089e-05
2.945e-05
2.81e-05
2.683e-05
2.562e-05
2.448e-05
2.34e-05
2.237e-05
2.139e-05
2.046e-05
1.956e-05
1.87e-05
1.788e-05
1.708e-05
1.631e-05
1.557e-05
1.485e-05
1.416e-05
1.348e-05
1.282e-05
1.218e-05
1.155e-05
1.093e-05
1.033e-05
9.739e-06
9.158e-06
8.586e-06
8.023e-06
7.467e-06
6.918e-06
6.374e-06
5.836e-06
5.302e-06
4.772e-06
4.246e-06
3.721e-06
3.199e-06
2.677e-06
2.155e-06
1.633e-06
1.109e-06
5.817e-07
1.208e-07
0.0002031
0.0002058
0.0002064
0.0002051
0.0002029
0.0002005
0.0001981
0.000196
0.000194
0.0001923
0.0001906
0.0001891
0.0001877
0.0001864
0.0001852
0.000184
0.0001828
0.0001817
0.0001806
0.0001796
0.0001786
0.0001776
0.0001767
0.0001757
0.0001748
0.0001739
0.000173
0.0001721
0.0001712
0.0001703
0.0001694
0.0001685
0.0001676
0.0001666
0.0001656
0.0001646
0.0001636
0.0001625
0.0001614
0.0001603
0.0001591
0.0001578
0.0001565
0.0001551
0.0001536
0.000152
0.0001504
0.0001486
0.0001467
0.0001447
0.0001426
0.0001403
0.0001378
0.0001351
0.0001323
0.0001292
0.0001259
0.0001224
0.0001188
0.0001149
0.0001108
0.0001066
0.0001023
9.786e-05
9.344e-05
8.904e-05
8.471e-05
8.048e-05
7.637e-05
7.241e-05
6.861e-05
6.497e-05
6.15e-05
5.821e-05
5.51e-05
5.216e-05
4.94e-05
4.681e-05
4.438e-05
4.211e-05
3.999e-05
3.801e-05
3.615e-05
3.441e-05
3.279e-05
3.126e-05
2.982e-05
2.846e-05
2.718e-05
2.597e-05
2.482e-05
2.372e-05
2.268e-05
2.168e-05
2.073e-05
1.982e-05
1.894e-05
1.81e-05
1.729e-05
1.65e-05
1.575e-05
1.501e-05
1.43e-05
1.361e-05
1.294e-05
1.228e-05
1.165e-05
1.102e-05
1.041e-05
9.81e-06
9.222e-06
8.644e-06
8.074e-06
7.513e-06
6.959e-06
6.411e-06
5.869e-06
5.332e-06
4.799e-06
4.27e-06
3.743e-06
3.218e-06
2.694e-06
2.17e-06
1.646e-06
1.119e-06
5.878e-07
1.228e-07
0.0001981
0.0002006
0.0002015
0.0002009
0.0001995
0.0001976
0.0001957
0.0001938
0.0001921
0.0001906
0.0001892
0.0001879
0.0001866
0.0001855
0.0001843
0.0001833
0.0001822
0.0001812
0.0001802
0.0001793
0.0001783
0.0001774
0.0001765
0.0001756
0.0001747
0.0001738
0.0001729
0.000172
0.0001711
0.0001702
0.0001693
0.0001684
0.0001674
0.0001665
0.0001655
0.0001645
0.0001634
0.0001624
0.0001612
0.0001601
0.0001589
0.0001576
0.0001563
0.0001549
0.0001534
0.0001518
0.0001502
0.0001484
0.0001466
0.0001446
0.0001424
0.0001402
0.0001377
0.0001351
0.0001322
0.0001292
0.000126
0.0001225
0.0001188
0.0001149
0.0001108
0.0001066
0.0001022
9.777e-05
9.331e-05
8.889e-05
8.455e-05
8.031e-05
7.622e-05
7.227e-05
6.849e-05
6.487e-05
6.143e-05
5.816e-05
5.507e-05
5.216e-05
4.942e-05
4.685e-05
4.445e-05
4.22e-05
4.01e-05
3.814e-05
3.631e-05
3.458e-05
3.297e-05
3.145e-05
3.002e-05
2.866e-05
2.738e-05
2.617e-05
2.501e-05
2.391e-05
2.286e-05
2.185e-05
2.089e-05
1.997e-05
1.908e-05
1.823e-05
1.741e-05
1.661e-05
1.585e-05
1.511e-05
1.439e-05
1.369e-05
1.301e-05
1.235e-05
1.17e-05
1.107e-05
1.045e-05
9.849e-06
9.256e-06
8.674e-06
8.101e-06
7.537e-06
6.98e-06
6.43e-06
5.887e-06
5.348e-06
4.814e-06
4.283e-06
3.755e-06
3.23e-06
2.705e-06
2.181e-06
1.655e-06
1.127e-06
5.947e-07
1.265e-07
0.000194
0.0001963
0.0001975
0.0001974
0.0001964
0.000195
0.0001935
0.0001919
0.0001904
0.0001891
0.0001878
0.0001867
0.0001856
0.0001845
0.0001835
0.0001825
0.0001816
0.0001807
0.0001798
0.0001789
0.000178
0.0001771
0.0001762
0.0001753
0.0001745
0.0001736
0.0001728
0.0001719
0.000171
0.0001701
0.0001692
0.0001683
0.0001674
0.0001664
0.0001654
0.0001644
0.0001634
0.0001623
0.0001612
0.00016
0.0001588
0.0001575
0.0001562
0.0001548
0.0001534
0.0001518
0.0001502
0.0001485
0.0001466
0.0001446
0.0001425
0.0001403
0.0001378
0.0001352
0.0001324
0.0001294
0.0001261
0.0001227
0.000119
0.000115
0.0001109
0.0001066
0.0001022
9.769e-05
9.317e-05
8.87e-05
8.432e-05
8.006e-05
7.596e-05
7.201e-05
6.823e-05
6.462e-05
6.119e-05
5.793e-05
5.485e-05
5.196e-05
4.924e-05
4.669e-05
4.431e-05
4.209e-05
4.002e-05
3.808e-05
3.627e-05
3.457e-05
3.297e-05
3.147e-05
3.005e-05
2.87e-05
2.743e-05
2.622e-05
2.507e-05
2.397e-05
2.292e-05
2.191e-05
2.095e-05
2.002e-05
1.913e-05
1.827e-05
1.745e-05
1.665e-05
1.588e-05
1.513e-05
1.441e-05
1.371e-05
1.302e-05
1.236e-05
1.171e-05
1.108e-05
1.046e-05
9.854e-06
9.26e-06
8.676e-06
8.103e-06
7.538e-06
6.981e-06
6.431e-06
5.887e-06
5.349e-06
4.815e-06
4.285e-06
3.758e-06
3.234e-06
2.71e-06
2.186e-06
1.662e-06
1.134e-06
6.024e-07
1.319e-07
0.0001907
0.0001928
0.0001941
0.0001943
0.0001937
0.0001927
0.0001915
0.0001902
0.0001889
0.0001877
0.0001866
0.0001856
0.0001846
0.0001836
0.0001827
0.0001818
0.000181
0.0001801
0.0001793
0.0001784
0.0001776
0.0001768
0.000176
0.0001751
0.0001743
0.0001735
0.0001726
0.0001718
0.0001709
0.0001701
0.0001692
0.0001683
0.0001673
0.0001664
0.0001654
0.0001644
0.0001634
0.0001623
0.0001612
0.0001601
0.0001589
0.0001576
0.0001563
0.0001549
0.0001535
0.000152
0.0001504
0.0001487
0.0001468
0.0001449
0.0001428
0.0001406
0.0001382
0.0001356
0.0001328
0.0001298
0.0001265
0.000123
0.0001193
0.0001153
0.0001111
0.0001067
0.0001022
9.761e-05
9.301e-05
8.846e-05
8.402e-05
7.972e-05
7.559e-05
7.162e-05
6.783e-05
6.422e-05
6.078e-05
5.752e-05
5.445e-05
5.156e-05
4.885e-05
4.633e-05
4.397e-05
4.178e-05
3.973e-05
3.782e-05
3.604e-05
3.436e-05
3.279e-05
3.131e-05
2.991e-05
2.859e-05
2.733e-05
2.613e-05
2.499e-05
2.39e-05
2.285e-05
2.185e-05
2.089e-05
1.997e-05
1.908e-05
1.823e-05
1.74e-05
1.661e-05
1.584e-05
1.509e-05
1.437e-05
1.367e-05
1.299e-05
1.233e-05
1.168e-05
1.105e-05
1.043e-05
9.825e-06
9.233e-06
8.651e-06
8.079e-06
7.516e-06
6.961e-06
6.413e-06
5.872e-06
5.335e-06
4.804e-06
4.276e-06
3.752e-06
3.23e-06
2.708e-06
2.188e-06
1.665e-06
1.141e-06
6.112e-07
1.391e-07
0.0001879
0.0001899
0.0001912
0.0001916
0.0001913
0.0001906
0.0001897
0.0001886
0.0001875
0.0001865
0.0001855
0.0001845
0.0001836
0.0001828
0.000182
0.0001812
0.0001804
0.0001796
0.0001788
0.000178
0.0001773
0.0001765
0.0001757
0.0001749
0.0001741
0.0001733
0.0001725
0.0001717
0.0001709
0.00017
0.0001692
0.0001683
0.0001674
0.0001665
0.0001655
0.0001645
0.0001635
0.0001625
0.0001614
0.0001603
0.0001591
0.0001579
0.0001566
0.0001552
0.0001538
0.0001523
0.0001507
0.0001491
0.0001473
0.0001454
0.0001433
0.0001411
0.0001387
0.0001361
0.0001333
0.0001303
0.0001271
0.0001235
0.0001198
0.0001157
0.0001114
0.0001069
0.0001023
9.755e-05
9.282e-05
8.817e-05
8.365e-05
7.929e-05
7.511e-05
7.111e-05
6.729e-05
6.365e-05
6.019e-05
5.692e-05
5.384e-05
5.095e-05
4.825e-05
4.574e-05
4.341e-05
4.124e-05
3.923e-05
3.736e-05
3.561e-05
3.397e-05
3.244e-05
3.099e-05
2.962e-05
2.832e-05
2.708e-05
2.59e-05
2.478e-05
2.37e-05
2.267e-05
2.168e-05
2.073e-05
1.982e-05
1.894e-05
1.81e-05
1.728e-05
1.649e-05
1.573e-05
1.499e-05
1.427e-05
1.358e-05
1.29e-05
1.224e-05
1.16e-05
1.098e-05
1.036e-05
9.764e-06
9.176e-06
8.599e-06
8.031e-06
7.472e-06
6.921e-06
6.377e-06
5.84e-06
5.308e-06
4.78e-06
4.257e-06
3.736e-06
3.218e-06
2.701e-06
2.184e-06
1.666e-06
1.146e-06
6.209e-07
1.479e-07
0.0001856
0.0001874
0.0001887
0.0001892
0.0001892
0.0001888
0.0001881
0.0001872
0.0001863
0.0001854
0.0001845
0.0001836
0.0001828
0.000182
0.0001813
0.0001805
0.0001798
0.0001791
0.0001784
0.0001776
0.0001769
0.0001762
0.0001755
0.0001747
0.000174
0.0001732
0.0001725
0.0001717
0.0001709
0.0001701
0.0001692
0.0001684
0.0001675
0.0001666
0.0001657
0.0001647
0.0001638
0.0001627
0.0001617
0.0001606
0.0001594
0.0001582
0.000157
0.0001557
0.0001543
0.0001528
0.0001513
0.0001497
0.0001479
0.000146
0.000144
0.0001418
0.0001395
0.0001369
0.0001341
0.0001311
0.0001278
0.0001243
0.0001204
0.0001163
0.0001119
0.0001072
0.0001024
9.751e-05
9.261e-05
8.781e-05
8.319e-05
7.875e-05
7.451e-05
7.046e-05
6.659e-05
6.29e-05
5.941e-05
5.61e-05
5.3e-05
5.011e-05
4.742e-05
4.492e-05
4.262e-05
4.049e-05
3.852e-05
3.669e-05
3.499e-05
3.339e-05
3.19e-05
3.049e-05
2.916e-05
2.789e-05
2.668e-05
2.553e-05
2.443e-05
2.338e-05
2.237e-05
2.14e-05
2.047e-05
1.958e-05
1.871e-05
1.788e-05
1.708e-05
1.63e-05
1.555e-05
1.482e-05
1.412e-05
1.343e-05
1.277e-05
1.212e-05
1.149e-05
1.087e-05
1.026e-05
9.671e-06
9.09e-06
8.52e-06
7.959e-06
7.406e-06
6.862e-06
6.324e-06
5.792e-06
5.266e-06
4.744e-06
4.226e-06
3.712e-06
3.199e-06
2.688e-06
2.177e-06
1.665e-06
1.15e-06
6.316e-07
1.585e-07
0.0001836
0.0001853
0.0001865
0.0001872
0.0001874
0.0001871
0.0001866
0.0001859
0.0001852
0.0001844
0.0001836
0.0001828
0.0001821
0.0001814
0.0001807
0.00018
0.0001793
0.0001786
0.000178
0.0001773
0.0001766
0.0001759
0.0001753
0.0001746
0.0001739
0.0001731
0.0001724
0.0001717
0.0001709
0.0001701
0.0001693
0.0001685
0.0001677
0.0001668
0.0001659
0.000165
0.0001641
0.0001631
0.0001621
0.000161
0.0001599
0.0001588
0.0001575
0.0001563
0.0001549
0.0001535
0.0001521
0.0001505
0.0001488
0.000147
0.000145
0.0001429
0.0001405
0.000138
0.0001352
0.0001322
0.0001289
0.0001252
0.0001213
0.000117
0.0001125
0.0001077
0.0001026
9.747e-05
9.236e-05
8.739e-05
8.263e-05
7.809e-05
7.377e-05
6.964e-05
6.57e-05
6.195e-05
5.839e-05
5.504e-05
5.191e-05
4.9e-05
4.632e-05
4.385e-05
4.158e-05
3.95e-05
3.758e-05
3.581e-05
3.416e-05
3.262e-05
3.118e-05
2.982e-05
2.853e-05
2.731e-05
2.614e-05
2.503e-05
2.396e-05
2.294e-05
2.196e-05
2.102e-05
2.011e-05
1.924e-05
1.84e-05
1.759e-05
1.68e-05
1.604e-05
1.531e-05
1.46e-05
1.391e-05
1.324e-05
1.259e-05
1.195e-05
1.133e-05
1.072e-05
1.013e-05
9.548e-06
8.977e-06
8.416e-06
7.864e-06
7.32e-06
6.784e-06
6.254e-06
5.73e-06
5.212e-06
4.697e-06
4.186e-06
3.679e-06
3.173e-06
2.669e-06
2.165e-06
1.661e-06
1.154e-06
6.432e-07
1.705e-07
0.0001819
0.0001835
0.0001847
0.0001854
0.0001857
0.0001856
0.0001853
0.0001848
0.0001842
0.0001835
0.0001828
0.0001821
0.0001814
0.0001808
0.0001801
0.0001795
0.0001788
0.0001782
0.0001776
0.000177
0.0001764
0.0001757
0.0001751
0.0001744
0.0001738
0.0001731
0.0001724
0.0001717
0.000171
0.0001702
0.0001695
0.0001687
0.0001679
0.0001671
0.0001663
0.0001654
0.0001645
0.0001635
0.0001626
0.0001616
0.0001605
0.0001594
0.0001583
0.0001571
0.0001558
0.0001544
0.000153
0.0001515
0.0001499
0.0001481
0.0001462
0.0001441
0.0001419
0.0001394
0.0001366
0.0001335
0.0001302
0.0001265
0.0001224
0.000118
0.0001133
0.0001082
0.0001029
9.746e-05
9.207e-05
8.689e-05
8.196e-05
7.729e-05
7.285e-05
6.861e-05
6.457e-05
6.073e-05
5.709e-05
5.368e-05
5.052e-05
4.76e-05
4.492e-05
4.249e-05
4.027e-05
3.825e-05
3.64e-05
3.47e-05
3.313e-05
3.166e-05
3.028e-05
2.898e-05
2.775e-05
2.658e-05
2.547e-05
2.44e-05
2.337e-05
2.239e-05
2.144e-05
2.053e-05
1.966e-05
1.881e-05
1.8e-05
1.722e-05
1.646e-05
1.572e-05
1.501e-05
1.432e-05
1.365e-05
1.3e-05
1.236e-05
1.174e-05
1.114e-05
1.055e-05
9.966e-06
9.397e-06
8.839e-06
8.29e-06
7.749e-06
7.216e-06
6.69e-06
6.17e-06
5.655e-06
5.145e-06
4.64e-06
4.137e-06
3.638e-06
3.141e-06
2.645e-06
2.15e-06
1.654e-06
1.157e-06
6.556e-07
1.841e-07
0.0001804
0.0001819
0.0001831
0.0001839
0.0001843
0.0001843
0.0001841
0.0001837
0.0001832
0.0001827
0.0001821
0.0001815
0.0001808
0.0001802
0.0001796
0.000179
0.0001785
0.0001779
0.0001773
0.0001767
0.0001761
0.0001755
0.0001749
0.0001743
0.0001737
0.0001731
0.0001724
0.0001718
0.0001711
0.0001704
0.0001697
0.000169
0.0001682
0.0001675
0.0001667
0.0001658
0.000165
0.0001641
0.0001632
0.0001622
0.0001612
0.0001602
0.0001591
0.000158
0.0001568
0.0001555
0.0001542
0.0001528
0.0001512
0.0001496
0.0001478
0.0001458
0.0001436
0.0001411
0.0001384
0.0001353
0.0001319
0.0001281
0.0001239
0.0001193
0.0001144
0.000109
0.0001033
9.748e-05
9.174e-05
8.627e-05
8.114e-05
7.63e-05
7.17e-05
6.732e-05
6.314e-05
5.918e-05
5.545e-05
5.197e-05
4.877e-05
4.584e-05
4.32e-05
4.081e-05
3.867e-05
3.673e-05
3.497e-05
3.336e-05
3.188e-05
3.05e-05
2.921e-05
2.798e-05
2.682e-05
2.571e-05
2.465e-05
2.364e-05
2.266e-05
2.173e-05
2.082e-05
1.995e-05
1.912e-05
1.831e-05
1.753e-05
1.678e-05
1.605e-05
1.534e-05
1.466e-05
1.399e-05
1.334e-05
1.271e-05
1.21e-05
1.15e-05
1.091e-05
1.034e-05
9.775e-06
9.222e-06
8.678e-06
8.143e-06
7.615e-06
7.095e-06
6.58e-06
6.072e-06
5.568e-06
5.068e-06
4.573e-06
4.081e-06
3.591e-06
3.103e-06
2.617e-06
2.132e-06
1.646e-06
1.159e-06
6.687e-07
1.988e-07
0.0001791
0.0001805
0.0001817
0.0001825
0.000183
0.0001831
0.0001831
0.0001828
0.0001824
0.0001819
0.0001814
0.0001809
0.0001803
0.0001798
0.0001792
0.0001787
0.0001781
0.0001776
0.000177
0.0001765
0.0001759
0.0001754
0.0001748
0.0001743
0.0001737
0.0001731
0.0001725
0.0001719
0.0001713
0.0001706
0.00017
0.0001693
0.0001686
0.0001679
0.0001671
0.0001664
0.0001656
0.0001647
0.0001639
0.000163
0.0001621
0.0001611
0.0001601
0.0001591
0.000158
0.0001568
0.0001556
0.0001542
0.0001528
0.0001513
0.0001496
0.0001477
0.0001456
0.0001433
0.0001406
0.0001376
0.0001341
0.0001302
0.0001259
0.0001211
0.0001158
0.00011
0.0001039
9.755e-05
9.134e-05
8.551e-05
8.01e-05
7.503e-05
7.023e-05
6.566e-05
6.131e-05
5.72e-05
5.337e-05
4.983e-05
4.66e-05
4.369e-05
4.11e-05
3.879e-05
3.675e-05
3.493e-05
3.329e-05
3.18e-05
3.043e-05
2.915e-05
2.795e-05
2.682e-05
2.574e-05
2.47e-05
2.371e-05
2.276e-05
2.184e-05
2.096e-05
2.011e-05
1.929e-05
1.85e-05
1.773e-05
1.699e-05
1.627e-05
1.558e-05
1.491e-05
1.425e-05
1.362e-05
1.3e-05
1.239e-05
1.18e-05
1.122e-05
1.066e-05
1.011e-05
9.561e-06
9.025e-06
8.498e-06
7.979e-06
7.466e-06
6.959e-06
6.458e-06
5.962e-06
5.47e-06
4.983e-06
4.498e-06
4.017e-06
3.538e-06
3.061e-06
2.585e-06
2.11e-06
1.636e-06
1.16e-06
6.823e-07
2.146e-07
0.000178
0.0001794
0.0001805
0.0001813
0.0001819
0.0001821
0.0001821
0.000182
0.0001817
0.0001813
0.0001809
0.0001804
0.0001799
0.0001794
0.0001789
0.0001784
0.0001778
0.0001773
0.0001768
0.0001763
0.0001758
0.0001753
0.0001748
0.0001742
0.0001737
0.0001732
0.0001726
0.000172
0.0001715
0.0001709
0.0001703
0.0001696
0.000169
0.0001683
0.0001676
0.0001669
0.0001662
0.0001655
0.0001647
0.0001639
0.000163
0.0001622
0.0001613
0.0001603
0.0001593
0.0001582
0.0001571
0.000156
0.0001547
0.0001533
0.0001518
0.0001501
0.0001482
0.000146
0.0001434
0.0001404
0.000137
0.000133
0.0001285
0.0001234
0.0001178
0.0001115
0.0001047
9.771e-05
9.085e-05
8.451e-05
7.872e-05
7.334e-05
6.827e-05
6.346e-05
5.891e-05
5.467e-05
5.074e-05
4.716e-05
4.394e-05
4.108e-05
3.858e-05
3.64e-05
3.45e-05
3.283e-05
3.135e-05
3e-05
2.877e-05
2.762e-05
2.653e-05
2.55e-05
2.452e-05
2.357e-05
2.266e-05
2.178e-05
2.093e-05
2.011e-05
1.931e-05
1.855e-05
1.781e-05
1.709e-05
1.639e-05
1.572e-05
1.506e-05
1.443e-05
1.381e-05
1.32e-05
1.262e-05
1.204e-05
1.148e-05
1.093e-05
1.038e-05
9.851e-06
9.328e-06
8.812e-06
8.303e-06
7.8e-06
7.304e-06
6.812e-06
6.326e-06
5.843e-06
5.365e-06
4.889e-06
4.417e-06
3.947e-06
3.48e-06
3.014e-06
2.55e-06
2.087e-06
1.624e-06
1.161e-06
6.964e-07
2.311e-07
0.0001771
0.0001784
0.0001795
0.0001803
0.0001809
0.0001812
0.0001813
0.0001812
0.000181
0.0001807
0.0001803
0.0001799
0.0001795
0.000179
0.0001786
0.0001781
0.0001776
0.0001771
0.0001767
0.0001762
0.0001757
0.0001752
0.0001747
0.0001743
0.0001738
0.0001733
0.0001727
0.0001722
0.0001717
0.0001711
0.0001706
0.00017
0.0001694
0.0001688
0.0001682
0.0001676
0.0001669
0.0001663
0.0001656
0.0001648
0.0001641
0.0001633
0.0001625
0.0001617
0.0001608
0.0001599
0.0001589
0.0001579
0.0001568
0.0001556
0.0001543
0.0001528
0.0001512
0.0001492
0.0001468
0.000144
0.0001407
0.0001367
0.0001321
0.0001268
0.0001207
0.0001138
0.0001061
9.804e-05
9.019e-05
8.308e-05
7.674e-05
7.094e-05
6.553e-05
6.046e-05
5.575e-05
5.141e-05
4.744e-05
4.387e-05
4.072e-05
3.798e-05
3.563e-05
3.363e-05
3.192e-05
3.045e-05
2.915e-05
2.799e-05
2.691e-05
2.591e-05
2.496e-05
2.405e-05
2.317e-05
2.232e-05
2.15e-05
2.07e-05
1.992e-05
1.917e-05
1.845e-05
1.774e-05
1.706e-05
1.639e-05
1.575e-05
1.512e-05
1.451e-05
1.391e-05
1.333e-05
1.276e-05
1.221e-05
1.166e-05
1.113e-05
1.061e-05
1.009e-05
9.581e-06
9.08e-06
8.585e-06
8.096e-06
7.611e-06
7.132e-06
6.657e-06
6.186e-06
5.718e-06
5.253e-06
4.791e-06
4.331e-06
3.874e-06
3.419e-06
2.965e-06
2.513e-06
2.062e-06
1.611e-06
1.161e-06
7.106e-07
2.482e-07
0.0001763
0.0001775
0.0001786
0.0001794
0.00018
0.0001804
0.0001805
0.0001805
0.0001804
0.0001802
0.0001799
0.0001795
0.0001791
0.0001787
0.0001783
0.0001779
0.0001774
0.000177
0.0001765
0.0001761
0.0001757
0.0001752
0.0001748
0.0001743
0.0001738
0.0001734
0.0001729
0.0001724
0.0001719
0.0001715
0.000171
0.0001704
0.0001699
0.0001694
0.0001688
0.0001683
0.0001677
0.0001671
0.0001665
0.0001658
0.0001652
0.0001645
0.0001638
0.0001631
0.0001624
0.0001616
0.0001608
0.00016
0.0001591
0.0001582
0.0001571
0.000156
0.0001546
0.000153
0.000151
0.0001485
0.0001454
0.0001416
0.0001371
0.0001316
0.0001251
0.0001175
0.0001085
9.872e-05
8.914e-05
8.076e-05
7.36e-05
6.728e-05
6.157e-05
5.632e-05
5.156e-05
4.724e-05
4.335e-05
3.989e-05
3.689e-05
3.433e-05
3.221e-05
3.046e-05
2.901e-05
2.779e-05
2.673e-05
2.577e-05
2.489e-05
2.405e-05
2.325e-05
2.247e-05
2.171e-05
2.097e-05
2.025e-05
1.954e-05
1.885e-05
1.818e-05
1.752e-05
1.688e-05
1.626e-05
1.565e-05
1.506e-05
1.449e-05
1.392e-05
1.337e-05
1.283e-05
1.23e-05
1.178e-05
1.127e-05
1.077e-05
1.027e-05
9.783e-06
9.3e-06
8.822e-06
8.349e-06
7.881e-06
7.416e-06
6.954e-06
6.496e-06
6.041e-06
5.588e-06
5.137e-06
4.689e-06
4.243e-06
3.798e-06
3.355e-06
2.914e-06
2.474e-06
2.035e-06
1.598e-06
1.161e-06
7.248e-07
2.655e-07
0.0001756
0.0001767
0.0001778
0.0001786
0.0001792
0.0001796
0.0001799
0.0001799
0.0001799
0.0001797
0.0001795
0.0001792
0.0001788
0.0001785
0.0001781
0.0001777
0.0001773
0.0001769
0.0001765
0.000176
0.0001756
0.0001752
0.0001748
0.0001744
0.000174
0.0001735
0.0001731
0.0001727
0.0001722
0.0001718
0.0001713
0.0001709
0.0001704
0.00017
0.0001695
0.000169
0.0001685
0.000168
0.0001674
0.0001669
0.0001664
0.0001658
0.0001652
0.0001647
0.0001641
0.0001635
0.0001629
0.0001622
0.0001616
0.0001609
0.0001602
0.0001594
0.0001585
0.0001573
0.0001558
0.0001538
0.0001513
0.000148
0.0001439
0.0001388
0.0001323
0.000124
0.0001132
0.0001001
8.697e-05
7.632e-05
6.813e-05
6.137e-05
5.566e-05
5.06e-05
4.608e-05
4.204e-05
3.84e-05
3.518e-05
3.244e-05
3.017e-05
2.836e-05
2.694e-05
2.581e-05
2.489e-05
2.41e-05
2.339e-05
2.272e-05
2.207e-05
2.143e-05
2.08e-05
2.017e-05
1.955e-05
1.893e-05
1.832e-05
1.772e-05
1.713e-05
1.655e-05
1.599e-05
1.543e-05
1.489e-05
1.436e-05
1.383e-05
1.332e-05
1.281e-05
1.232e-05
1.183e-05
1.135e-05
1.087e-05
1.04e-05
9.933e-06
9.471e-06
9.014e-06
8.56e-06
8.11e-06
7.662e-06
7.217e-06
6.774e-06
6.333e-06
5.894e-06
5.456e-06
5.02e-06
4.586e-06
4.153e-06
3.721e-06
3.291e-06
2.862e-06
2.434e-06
2.008e-06
1.584e-06
1.16e-06
7.389e-07
2.828e-07
0.000175
0.0001761
0.0001771
0.000178
0.0001786
0.000179
0.0001793
0.0001794
0.0001794
0.0001793
0.0001791
0.0001789
0.0001786
0.0001783
0.0001779
0.0001775
0.0001772
0.0001768
0.0001764
0.000176
0.0001756
0.0001752
0.0001749
0.0001745
0.0001741
0.0001737
0.0001733
0.0001729
0.0001725
0.0001721
0.0001717
0.0001713
0.0001709
0.0001705
0.0001701
0.0001697
0.0001693
0.0001689
0.0001684
0.000168
0.0001676
0.0001671
0.0001667
0.0001662
0.0001658
0.0001654
0.000165
0.0001646
0.0001642
0.0001638
0.0001634
0.0001631
0.0001626
0.000162
0.0001612
0.0001599
0.0001582
0.0001558
0.0001528
0.0001491
0.0001444
0.000137
0.0001231
0.000103
8.14e-05
6.734e-05
5.834e-05
5.176e-05
4.714e-05
4.293e-05
3.918e-05
3.58e-05
3.265e-05
2.983e-05
2.744e-05
2.555e-05
2.414e-05
2.312e-05
2.237e-05
2.181e-05
2.133e-05
2.089e-05
2.045e-05
2e-05
1.954e-05
1.906e-05
1.857e-05
1.807e-05
1.757e-05
1.706e-05
1.656e-05
1.606e-05
1.556e-05
1.507e-05
1.459e-05
1.411e-05
1.364e-05
1.317e-05
1.271e-05
1.225e-05
1.18e-05
1.135e-05
1.091e-05
1.047e-05
1.003e-05
9.593e-06
9.16e-06
8.729e-06
8.299e-06
7.871e-06
7.445e-06
7.019e-06
6.594e-06
6.171e-06
5.748e-06
5.325e-06
4.904e-06
4.483e-06
4.063e-06
3.645e-06
3.227e-06
2.81e-06
2.395e-06
1.981e-06
1.569e-06
1.16e-06
7.525e-07
2.997e-07
0.0001745
0.0001756
0.0001766
0.0001774
0.000178
0.0001785
0.0001788
0.000179
0.000179
0.000179
0.0001788
0.0001786
0.0001784
0.0001781
0.0001778
0.0001774
0.0001771
0.0001767
0.0001764