/*--------------------------------*- C++ -*----------------------------------*\
  =========                 |
  \\      /  F ield         | OpenFOAM: The Open Source CFD Toolbox
   \\    /   O peration     | Website:  https://openfoam.org
    \\  /    A nd           | Version:  7
     \\/     M anipulation  |
\*---------------------------------------------------------------------------*/
FoamFile
{
    version     2.0;
    format      ascii;
    class       surfaceScalarField;
    location    "2579.99947344456314";
    object      phi;
}
// * * * * * * * * * * * * * * * * * * * * * * * * * * * * * * * * * * * * * //

dimensions      [0 3 -1 0 0 0 0];

internalField   nonuniform List<scalar> 
8032
(
6.857e-10
2.518e-10
4.804e-10
2.053e-10
3.48e-10
1.324e-10
2.643e-10
8.372e-11
2.101e-10
5.417e-11
1.737e-10
3.639e-11
1.482e-10
2.553e-11
1.295e-10
1.869e-11
1.153e-10
1.418e-11
1.043e-10
1.108e-11
9.541e-11
8.854e-12
8.822e-11
7.198e-12
8.229e-11
5.929e-12
7.736e-11
4.931e-12
7.323e-11
4.129e-12
6.975e-11
3.473e-12
6.682e-11
2.928e-12
6.436e-11
2.468e-12
6.228e-11
2.075e-12
6.055e-11
1.735e-12
5.911e-11
1.437e-12
5.794e-11
1.173e-12
5.7e-11
9.353e-13
5.628e-11
7.195e-13
5.576e-11
5.207e-13
5.543e-11
3.351e-13
5.527e-11
1.595e-13
5.528e-11
-8.924e-15
5.545e-11
-1.725e-13
5.578e-11
-3.334e-13
5.628e-11
-4.935e-13
5.693e-11
-6.545e-13
5.775e-11
-8.177e-13
5.873e-11
-9.844e-13
5.989e-11
-1.156e-12
6.122e-11
-1.332e-12
6.273e-11
-1.515e-12
6.444e-11
-1.704e-12
6.634e-11
-1.899e-12
6.844e-11
-2.101e-12
7.075e-11
-2.308e-12
7.327e-11
-2.519e-12
7.6e-11
-2.734e-12
7.895e-11
-2.949e-12
8.211e-11
-3.162e-12
8.548e-11
-3.37e-12
8.905e-11
-3.569e-12
9.28e-11
-3.754e-12
9.672e-11
-3.919e-12
1.008e-10
-4.06e-12
1.05e-10
-4.17e-12
1.092e-10
-4.241e-12
1.135e-10
-4.268e-12
1.177e-10
-4.244e-12
1.219e-10
-4.162e-12
1.259e-10
-4.019e-12
1.297e-10
-3.81e-12
1.332e-10
-3.534e-12
1.364e-10
-3.191e-12
1.392e-10
-2.785e-12
1.415e-10
-2.322e-12
1.433e-10
-1.811e-12
1.446e-10
-1.262e-12
1.453e-10
-6.883e-13
1.454e-10
-1.047e-13
1.449e-10
4.75e-13
1.439e-10
1.037e-12
1.423e-10
1.57e-12
1.402e-10
2.063e-12
1.377e-10
2.509e-12
1.348e-10
2.902e-12
1.316e-10
3.239e-12
1.281e-10
3.517e-12
1.243e-10
3.738e-12
1.204e-10
3.903e-12
1.164e-10
4.013e-12
1.124e-10
4.074e-12
1.083e-10
4.088e-12
1.042e-10
4.061e-12
1.002e-10
3.998e-12
9.63e-11
3.904e-12
9.252e-11
3.784e-12
8.888e-11
3.642e-12
8.539e-11
3.485e-12
8.208e-11
3.315e-12
7.894e-11
3.137e-12
7.599e-11
2.954e-12
7.322e-11
2.769e-12
7.063e-11
2.586e-12
6.822e-11
2.406e-12
6.599e-11
2.23e-12
6.393e-11
2.06e-12
6.204e-11
1.898e-12
6.029e-11
1.744e-12
5.87e-11
1.598e-12
5.723e-11
1.46e-12
5.59e-11
1.331e-12
5.469e-11
1.212e-12
5.359e-11
1.1e-12
5.259e-11
9.971e-13
5.169e-11
9.02e-13
5.088e-11
8.145e-13
5.014e-11
7.342e-13
4.948e-11
6.607e-13
4.889e-11
5.937e-13
4.836e-11
5.326e-13
4.788e-11
4.77e-13
4.745e-11
4.266e-13
4.707e-11
3.809e-13
4.673e-11
3.397e-13
4.643e-11
3.025e-13
4.616e-11
2.691e-13
4.592e-11
2.392e-13
4.571e-11
2.125e-13
4.552e-11
1.888e-13
4.535e-11
1.681e-13
4.52e-11
1.501e-13
4.507e-11
1.348e-13
4.495e-11
1.222e-13
4.483e-11
1.125e-13
4.473e-11
1.059e-13
4.462e-11
1.029e-13
4.452e-11
1.044e-13
4.441e-11
1.122e-13
4.428e-11
1.295e-13
4.412e-11
1.616e-13
4.39e-11
2.147e-13
2.79e-13
9.523e-10
2.37e-10
8.501e-10
3.075e-10
7.275e-10
2.55e-10
6.183e-10
1.93e-10
5.293e-10
1.431e-10
4.591e-10
1.066e-10
4.04e-10
8.067e-11
3.604e-10
6.23e-11
3.255e-10
4.909e-11
2.972e-10
3.938e-11
2.74e-10
3.207e-11
2.547e-10
2.643e-11
2.387e-10
2.2e-11
2.251e-10
1.844e-11
2.137e-10
1.554e-11
2.041e-10
1.314e-11
1.959e-10
1.113e-11
1.889e-10
9.412e-12
1.831e-10
7.938e-12
1.781e-10
6.655e-12
1.74e-10
5.526e-12
1.707e-10
4.521e-12
1.68e-10
3.616e-12
1.659e-10
2.79e-12
1.644e-10
2.028e-12
1.635e-10
1.316e-12
1.63e-10
6.412e-13
1.63e-10
-5.749e-15
1.634e-10
-6.34e-13
1.644e-10
-1.251e-12
1.657e-10
-1.865e-12
1.676e-10
-2.48e-12
1.698e-10
-3.103e-12
1.726e-10
-3.737e-12
1.758e-10
-4.388e-12
1.795e-10
-5.056e-12
1.838e-10
-5.745e-12
1.885e-10
-6.457e-12
1.938e-10
-7.189e-12
1.997e-10
-7.943e-12
2.061e-10
-8.714e-12
2.13e-10
-9.499e-12
2.206e-10
-1.029e-11
2.287e-10
-1.108e-11
2.374e-10
-1.187e-11
2.467e-10
-1.262e-11
2.565e-10
-1.335e-11
2.667e-10
-1.401e-11
2.774e-10
-1.46e-11
2.885e-10
-1.51e-11
2.998e-10
-1.548e-11
3.112e-10
-1.572e-11
3.228e-10
-1.579e-11
3.342e-10
-1.568e-11
3.454e-10
-1.535e-11
3.562e-10
-1.48e-11
3.664e-10
-1.402e-11
3.758e-10
-1.299e-11
3.844e-10
-1.172e-11
3.918e-10
-1.022e-11
3.98e-10
-8.525e-12
4.028e-10
-6.653e-12
4.062e-10
-4.648e-12
4.081e-10
-2.555e-12
4.084e-10
-4.248e-13
4.072e-10
1.694e-12
4.045e-10
3.752e-12
4.003e-10
5.707e-12
3.949e-10
7.523e-12
3.882e-10
9.171e-12
3.805e-10
1.063e-11
3.719e-10
1.189e-11
3.624e-10
1.293e-11
3.524e-10
1.377e-11
3.419e-10
1.44e-11
3.311e-10
1.484e-11
3.201e-10
1.509e-11
3.09e-10
1.517e-11
2.979e-10
1.51e-11
2.87e-10
1.489e-11
2.764e-10
1.457e-11
2.66e-10
1.415e-11
2.56e-10
1.364e-11
2.464e-10
1.308e-11
2.373e-10
1.246e-11
2.286e-10
1.181e-11
2.204e-10
1.115e-11
2.127e-10
1.047e-11
2.055e-10
9.795e-12
1.988e-10
9.128e-12
1.925e-10
8.477e-12
1.867e-10
7.847e-12
1.814e-10
7.242e-12
1.765e-10
6.664e-12
1.719e-10
6.117e-12
1.678e-10
5.601e-12
1.64e-10
5.117e-12
1.606e-10
4.664e-12
1.574e-10
4.243e-12
1.546e-10
3.852e-12
1.52e-10
3.491e-12
1.496e-10
3.158e-12
1.475e-10
2.853e-12
1.456e-10
2.572e-12
1.439e-10
2.315e-12
1.423e-10
2.081e-12
1.409e-10
1.868e-12
1.397e-10
1.674e-12
1.386e-10
1.498e-12
1.376e-10
1.339e-12
1.367e-10
1.195e-12
1.359e-10
1.066e-12
1.352e-10
9.5e-13
1.345e-10
8.463e-13
1.34e-10
7.543e-13
1.335e-10
6.733e-13
1.33e-10
6.029e-13
1.326e-10
5.428e-13
1.322e-10
4.93e-13
1.319e-10
4.538e-13
1.316e-10
4.258e-13
1.313e-10
4.102e-13
1.31e-10
4.089e-13
1.307e-10
4.247e-13
1.303e-10
4.618e-13
1.3e-10
5.251e-13
1.296e-10
6.136e-13
6.971e-13
9.779e-10
1.966e-10
9.637e-10
3.217e-10
9.013e-10
3.175e-10
8.211e-10
2.731e-10
7.408e-10
2.234e-10
6.677e-10
1.797e-10
6.042e-10
1.442e-10
5.501e-10
1.164e-10
5.045e-10
9.477e-11
4.659e-10
7.792e-11
4.333e-10
6.464e-11
4.057e-10
5.405e-11
3.822e-10
4.549e-11
3.622e-10
3.847e-11
3.451e-10
3.265e-11
3.305e-10
2.777e-11
3.18e-10
2.362e-11
3.073e-10
2.006e-11
2.983e-10
1.698e-11
2.907e-10
1.427e-11
2.843e-10
1.188e-11
2.791e-10
9.742e-12
2.749e-10
7.807e-12
2.717e-10
6.036e-12
2.693e-10
4.397e-12
2.677e-10
2.862e-12
2.67e-10
1.405e-12
2.67e-10
7.174e-15
2.677e-10
-1.351e-12
2.691e-10
-2.686e-12
2.713e-10
-4.012e-12
2.741e-10
-5.341e-12
2.777e-10
-6.685e-12
2.82e-10
-8.052e-12
2.871e-10
-9.45e-12
2.929e-10
-1.089e-11
2.995e-10
-1.236e-11
3.07e-10
-1.389e-11
3.152e-10
-1.545e-11
3.243e-10
-1.706e-11
3.343e-10
-1.87e-11
3.452e-10
-2.036e-11
3.569e-10
-2.204e-11
3.696e-10
-2.371e-11
3.831e-10
-2.536e-11
3.974e-10
-2.695e-11
4.125e-10
-2.847e-11
4.284e-10
-2.986e-11
4.448e-10
-3.109e-11
4.619e-10
-3.212e-11
4.793e-10
-3.289e-11
4.969e-10
-3.337e-11
5.146e-10
-3.349e-11
5.322e-10
-3.322e-11
5.493e-10
-3.251e-11
5.658e-10
-3.133e-11
5.815e-10
-2.964e-11
5.959e-10
-2.745e-11
6.09e-10
-2.477e-11
6.204e-10
-2.161e-11
6.299e-10
-1.802e-11
6.373e-10
-1.408e-11
6.425e-10
-9.851e-12
6.454e-10
-5.443e-12
6.459e-10
-9.545e-13
6.441e-10
3.511e-12
6.4e-10
7.853e-12
6.337e-10
1.198e-11
6.254e-10
1.583e-11
6.153e-10
1.932e-11
6.035e-10
2.242e-11
5.903e-10
2.51e-11
5.759e-10
2.734e-11
5.605e-10
2.914e-11
5.444e-10
3.051e-11
5.278e-10
3.146e-11
5.108e-10
3.203e-11
4.938e-10
3.224e-11
4.768e-10
3.212e-11
4.599e-10
3.171e-11
4.435e-10
3.106e-11
4.274e-10
3.019e-11
4.119e-10
2.915e-11
3.97e-10
2.797e-11
3.828e-10
2.669e-11
3.693e-10
2.533e-11
3.565e-10
2.393e-11
3.445e-10
2.25e-11
3.332e-10
2.107e-11
3.227e-10
1.966e-11
3.128e-10
1.828e-11
3.038e-10
1.694e-11
2.953e-10
1.565e-11
2.876e-10
1.442e-11
2.804e-10
1.326e-11
2.739e-10
1.215e-11
2.679e-10
1.111e-11
2.624e-10
1.014e-11
2.574e-10
9.239e-12
2.529e-10
8.399e-12
2.487e-10
7.622e-12
2.45e-10
6.904e-12
2.416e-10
6.244e-12
2.385e-10
5.637e-12
2.358e-10
5.082e-12
2.333e-10
4.574e-12
2.31e-10
4.111e-12
2.29e-10
3.69e-12
2.272e-10
3.308e-12
2.256e-10
2.961e-12
2.241e-10
2.648e-12
2.228e-10
2.365e-12
2.217e-10
2.111e-12
2.206e-10
1.884e-12
2.197e-10
1.682e-12
2.189e-10
1.504e-12
2.181e-10
1.349e-12
2.175e-10
1.215e-12
2.169e-10
1.104e-12
2.163e-10
1.014e-12
2.158e-10
9.472e-13
2.153e-10
9.046e-13
2.148e-10
8.881e-13
2.143e-10
9.003e-13
2.138e-10
9.436e-13
2.133e-10
1.018e-12
2.128e-10
1.114e-12
1.191e-12
9.752e-10
1.589e-10
9.93e-10
3.039e-10
9.727e-10
3.378e-10
9.267e-10
3.191e-10
8.687e-10
2.814e-10
8.08e-10
2.404e-10
7.497e-10
2.025e-10
6.962e-10
1.698e-10
6.485e-10
1.425e-10
6.065e-10
1.2e-10
5.697e-10
1.014e-10
5.377e-10
8.605e-11
5.099e-10
7.328e-11
4.858e-10
6.258e-11
4.649e-10
5.353e-11
4.469e-10
4.582e-11
4.313e-10
3.919e-11
4.179e-10
3.344e-11
4.065e-10
2.84e-11
3.968e-10
2.396e-11
3.887e-10
1.999e-11
3.82e-10
1.643e-11
3.766e-10
1.319e-11
3.725e-10
1.021e-11
3.694e-10
7.44e-12
3.674e-10
4.839e-12
3.665e-10
2.367e-12
3.665e-10
-1.08e-14
3.675e-10
-2.324e-12
3.694e-10
-4.599e-12
3.722e-10
-6.858e-12
3.76e-10
-9.123e-12
3.807e-10
-1.141e-11
3.864e-10
-1.374e-11
3.931e-10
-1.611e-11
4.008e-10
-1.855e-11
4.094e-10
-2.106e-11
4.192e-10
-2.363e-11
4.3e-10
-2.628e-11
4.42e-10
-2.899e-11
4.55e-10
-3.175e-11
4.692e-10
-3.455e-11
4.845e-10
-3.737e-11
5.01e-10
-4.018e-11
5.186e-10
-4.293e-11
5.372e-10
-4.56e-11
5.569e-10
-4.811e-11
5.774e-10
-5.043e-11
5.988e-10
-5.247e-11
6.209e-10
-5.416e-11
6.434e-10
-5.543e-11
6.662e-10
-5.62e-11
6.891e-10
-5.638e-11
7.118e-10
-5.589e-11
7.339e-10
-5.466e-11
7.553e-10
-5.265e-11
7.754e-10
-4.981e-11
7.941e-10
-4.612e-11
8.109e-10
-4.16e-11
8.256e-10
-3.63e-11
8.379e-10
-3.029e-11
8.475e-10
-2.367e-11
8.542e-10
-1.659e-11
8.58e-10
-9.201e-12
8.587e-10
-1.678e-12
8.564e-10
5.808e-12
8.512e-10
1.309e-11
8.431e-10
2.002e-11
8.325e-10
2.648e-11
8.194e-10
3.235e-11
8.043e-10
3.758e-11
7.873e-10
4.21e-11
7.687e-10
4.589e-11
7.489e-10
4.895e-11
7.281e-10
5.129e-11
7.066e-10
5.294e-11
6.847e-10
5.394e-11
6.626e-10
5.433e-11
6.406e-10
5.418e-11
6.188e-10
5.354e-11
5.973e-10
5.247e-11
5.765e-10
5.105e-11
5.563e-10
4.934e-11
5.369e-10
4.739e-11
5.183e-10
4.525e-11
5.006e-10
4.299e-11
4.839e-10
4.065e-11
4.681e-10
3.827e-11
4.533e-10
3.587e-11
4.395e-10
3.35e-11
4.266e-10
3.118e-11
4.146e-10
2.893e-11
4.035e-10
2.676e-11
3.933e-10
2.468e-11
3.838e-10
2.27e-11
3.751e-10
2.083e-11
3.672e-10
1.908e-11
3.599e-10
1.743e-11
3.532e-10
1.589e-11
3.472e-10
1.446e-11
3.417e-10
1.314e-11
3.366e-10
1.191e-11
3.321e-10
1.079e-11
3.28e-10
9.749e-12
3.243e-10
8.799e-12
3.209e-10
7.929e-12
3.179e-10
7.135e-12
3.152e-10
6.412e-12
3.127e-10
5.755e-12
3.105e-10
5.158e-12
3.086e-10
4.618e-12
3.068e-10
4.131e-12
3.052e-10
3.693e-12
3.038e-10
3.3e-12
3.025e-10
2.95e-12
3.014e-10
2.64e-12
3.004e-10
2.369e-12
2.995e-10
2.135e-12
2.986e-10
1.937e-12
2.979e-10
1.775e-12
2.972e-10
1.65e-12
2.965e-10
1.562e-12
2.959e-10
1.513e-12
2.953e-10
1.504e-12
2.947e-10
1.534e-12
2.941e-10
1.599e-12
2.935e-10
1.683e-12
1.748e-12
9.668e-10
1.296e-10
9.944e-10
2.763e-10
9.977e-10
3.344e-10
9.778e-10
3.391e-10
9.421e-10
3.171e-10
8.98e-10
2.845e-10
8.509e-10
2.495e-10
8.044e-10
2.163e-10
7.604e-10
1.865e-10
7.198e-10
1.605e-10
6.83e-10
1.382e-10
6.501e-10
1.19e-10
6.208e-10
1.026e-10
5.949e-10
8.847e-11
5.721e-10
7.631e-11
5.522e-10
6.577e-11
5.348e-10
5.658e-11
5.197e-10
4.851e-11
5.068e-10
4.137e-11
4.957e-10
3.501e-11
4.864e-10
2.93e-11
4.787e-10
2.412e-11
4.725e-10
1.939e-11
4.677e-10
1.502e-11
4.642e-10
1.094e-11
4.619e-10
7.092e-12
4.609e-10
3.423e-12
4.61e-10
-1.134e-13
4.622e-10
-3.56e-12
4.646e-10
-6.954e-12
4.68e-10
-1.033e-11
4.726e-10
-1.371e-11
4.783e-10
-1.713e-11
4.852e-10
-2.06e-11
4.932e-10
-2.415e-11
5.025e-10
-2.778e-11
5.129e-10
-3.151e-11
5.246e-10
-3.534e-11
5.376e-10
-3.927e-11
5.519e-10
-4.329e-11
5.675e-10
-4.739e-11
5.845e-10
-5.154e-11
6.029e-10
-5.57e-11
6.225e-10
-5.984e-11
6.435e-10
-6.391e-11
6.657e-10
-6.783e-11
6.891e-10
-7.153e-11
7.136e-10
-7.493e-11
7.391e-10
-7.792e-11
7.653e-10
-8.04e-11
7.921e-10
-8.225e-11
8.193e-10
-8.335e-11
8.465e-10
-8.358e-11
8.734e-10
-8.283e-11
8.998e-10
-8.1e-11
9.251e-10
-7.801e-11
9.491e-10
-7.379e-11
9.713e-10
-6.833e-11
9.913e-10
-6.164e-11
1.009e-09
-5.379e-11
1.023e-09
-4.489e-11
1.035e-09
-3.51e-11
1.043e-09
-2.463e-11
1.047e-09
-1.37e-11
1.048e-09
-2.57e-12
1.046e-09
8.506e-12
1.039e-09
1.928e-11
1.03e-09
2.954e-11
1.017e-09
3.91e-11
1.002e-09
4.781e-11
9.838e-10
5.556e-11
9.637e-10
6.227e-11
9.416e-10
6.791e-11
9.181e-10
7.248e-11
8.934e-10
7.598e-11
8.679e-10
7.846e-11
8.419e-10
7.999e-11
8.156e-10
8.062e-11
7.893e-10
8.044e-11
7.633e-10
7.954e-11
7.378e-10
7.801e-11
7.129e-10
7.595e-11
6.888e-10
7.345e-11
6.656e-10
7.059e-11
6.433e-10
6.747e-11
6.222e-10
6.415e-11
6.021e-10
6.07e-11
5.832e-10
5.718e-11
5.655e-10
5.365e-11
5.488e-10
5.015e-11
5.333e-10
4.671e-11
5.188e-10
4.337e-11
5.054e-10
4.015e-11
4.93e-10
3.707e-11
4.816e-10
3.413e-11
4.711e-10
3.135e-11
4.614e-10
2.873e-11
4.526e-10
2.627e-11
4.445e-10
2.398e-11
4.371e-10
2.184e-11
4.304e-10
1.986e-11
4.243e-10
1.803e-11
4.187e-10
1.634e-11
4.137e-10
1.478e-11
4.092e-10
1.335e-11
4.05e-10
1.205e-11
4.013e-10
1.085e-11
3.98e-10
9.762e-12
3.95e-10
8.77e-12
3.923e-10
7.87e-12
3.898e-10
7.054e-12
3.876e-10
6.316e-12
3.857e-10
5.652e-12
3.839e-10
5.056e-12
3.823e-10
4.524e-12
3.809e-10
4.052e-12
3.797e-10
3.637e-12
3.785e-10
3.277e-12
3.775e-10
2.97e-12
3.765e-10
2.714e-12
3.757e-10
2.511e-12
3.749e-10
2.358e-12
3.741e-10
2.258e-12
3.734e-10
2.208e-12
3.728e-10
2.207e-12
3.721e-10
2.245e-12
3.715e-10
2.307e-12
2.355e-12
9.592e-10
1.08e-10
9.875e-10
2.48e-10
1.003e-09
3.193e-10
9.998e-10
3.418e-10
9.82e-10
3.35e-10
9.537e-10
3.128e-10
9.193e-10
2.839e-10
8.823e-10
2.533e-10
8.45e-10
2.238e-10
8.09e-10
1.966e-10
7.751e-10
1.72e-10
7.438e-10
1.503e-10
7.153e-10
1.311e-10
6.896e-10
1.142e-10
6.665e-10
9.933e-11
6.461e-10
8.622e-11
6.281e-10
7.462e-11
6.123e-10
6.43e-11
5.986e-10
5.507e-11
5.868e-10
4.676e-11
5.769e-10
3.924e-11
5.686e-10
3.237e-11
5.62e-10
2.605e-11
5.568e-10
2.018e-11
5.531e-10
1.467e-11
5.507e-10
9.455e-12
5.497e-10
4.465e-12
5.499e-10
-3.587e-13
5.515e-10
-5.07e-12
5.542e-10
-9.717e-12
5.582e-10
-1.434e-11
5.635e-10
-1.898e-11
5.7e-10
-2.367e-11
5.779e-10
-2.843e-11
5.87e-10
-3.33e-11
5.975e-10
-3.828e-11
6.094e-10
-4.34e-11
6.227e-10
-4.864e-11
6.375e-10
-5.402e-11
6.537e-10
-5.952e-11
6.714e-10
-6.511e-11
6.907e-10
-7.078e-11
7.114e-10
-7.646e-11
7.337e-10
-8.21e-11
7.574e-10
-8.764e-11
7.826e-10
-9.298e-11
8.09e-10
-9.801e-11
8.368e-10
-1.026e-10
8.655e-10
-1.067e-10
8.952e-10
-1.101e-10
9.255e-10
-1.126e-10
9.562e-10
-1.141e-10
9.87e-10
-1.144e-10
1.018e-09
-1.133e-10
1.047e-09
-1.108e-10
1.076e-09
-1.067e-10
1.103e-09
-1.01e-10
1.128e-09
-9.352e-11
1.151e-09
-8.439e-11
1.171e-09
-7.366e-11
1.188e-09
-6.149e-11
1.201e-09
-4.811e-11
1.21e-09
-3.378e-11
1.215e-09
-1.882e-11
1.216e-09
-3.596e-12
1.213e-09
1.156e-11
1.206e-09
2.63e-11
1.195e-09
4.033e-11
1.181e-09
5.34e-11
1.163e-09
6.531e-11
1.143e-09
7.591e-11
1.12e-09
8.51e-11
1.095e-09
9.283e-11
1.069e-09
9.909e-11
1.041e-09
1.039e-10
1.012e-09
1.073e-10
9.824e-10
1.095e-10
9.526e-10
1.104e-10
9.229e-10
1.102e-10
8.935e-10
1.09e-10
8.646e-10
1.069e-10
8.364e-10
1.041e-10
8.091e-10
1.008e-10
7.827e-10
9.69e-11
7.576e-10
9.266e-11
7.335e-10
8.815e-11
7.108e-10
8.346e-11
6.893e-10
7.868e-11
6.691e-10
7.387e-11
6.501e-10
6.909e-11
6.324e-10
6.44e-11
6.16e-10
5.984e-11
6.007e-10
5.544e-11
5.865e-10
5.121e-11
5.735e-10
4.719e-11
5.614e-10
4.338e-11
5.504e-10
3.979e-11
5.402e-10
3.641e-11
5.31e-10
3.326e-11
5.225e-10
3.032e-11
5.148e-10
2.759e-11
5.077e-10
2.507e-11
5.013e-10
2.274e-11
4.955e-10
2.059e-11
4.902e-10
1.862e-11
4.855e-10
1.681e-11
4.812e-10
1.516e-11
4.773e-10
1.365e-11
4.738e-10
1.227e-11
4.706e-10
1.102e-11
4.678e-10
9.889e-12
4.652e-10
8.864e-12
4.63e-10
7.939e-12
4.609e-10
7.108e-12
4.591e-10
6.365e-12
4.574e-10
5.703e-12
4.559e-10
5.12e-12
4.546e-10
4.611e-12
4.534e-10
4.173e-12
4.523e-10
3.804e-12
4.513e-10
3.503e-12
4.504e-10
3.268e-12
4.496e-10
3.098e-12
4.488e-10
2.991e-12
4.481e-10
2.941e-12
4.474e-10
2.94e-12
4.467e-10
2.97e-12
2.999e-12
9.536e-10
9.189e-11
9.794e-10
2.222e-10
9.993e-10
2.994e-10
1.007e-09
3.341e-10
1.002e-09
3.399e-10
9.868e-10
3.281e-10
9.642e-10
3.065e-10
9.371e-10
2.804e-10
9.078e-10
2.531e-10
8.779e-10
2.264e-10
8.487e-10
2.013e-10
8.207e-10
1.782e-10
7.946e-10
1.572e-10
7.705e-10
1.383e-10
7.485e-10
1.213e-10
7.288e-10
1.06e-10
7.111e-10
9.23e-11
6.954e-10
7.993e-11
6.818e-10
6.874e-11
6.699e-10
5.858e-11
6.599e-10
4.928e-11
6.515e-10
4.073e-11
6.448e-10
3.28e-11
6.396e-10
2.539e-11
6.358e-10
1.841e-11
6.335e-10
1.177e-11
6.326e-10
5.387e-12
6.33e-10
-8.025e-13
6.348e-10
-6.863e-12
6.38e-10
-1.285e-11
6.424e-10
-1.882e-11
6.483e-10
-2.482e-11
6.555e-10
-3.088e-11
6.641e-10
-3.704e-11
6.741e-10
-4.334e-11
6.856e-10
-4.978e-11
6.986e-10
-5.639e-11
7.132e-10
-6.318e-11
7.293e-10
-7.012e-11
7.47e-10
-7.723e-11
7.663e-10
-8.445e-11
7.873e-10
-9.176e-11
8.099e-10
-9.909e-11
8.342e-10
-1.064e-10
8.601e-10
-1.135e-10
8.875e-10
-1.204e-10
9.164e-10
-1.269e-10
9.466e-10
-1.329e-10
9.78e-10
-1.381e-10
1.01e-09
-1.425e-10
1.044e-09
-1.457e-10
1.077e-09
-1.476e-10
1.111e-09
-1.481e-10
1.144e-09
-1.468e-10
1.177e-09
-1.436e-10
1.209e-09
-1.383e-10
1.238e-09
-1.309e-10
1.266e-09
-1.213e-10
1.291e-09
-1.095e-10
1.313e-09
-9.557e-11
1.331e-09
-7.981e-11
1.346e-09
-6.246e-11
1.356e-09
-4.387e-11
1.362e-09
-2.447e-11
1.363e-09
-4.717e-12
1.359e-09
1.493e-11
1.352e-09
3.404e-11
1.34e-09
5.222e-11
1.324e-09
6.914e-11
1.305e-09
8.455e-11
1.282e-09
9.826e-11
1.257e-09
1.101e-10
1.23e-09
1.201e-10
1.201e-09
1.283e-10
1.17e-09
1.345e-10
1.139e-09
1.389e-10
1.106e-09
1.417e-10
1.074e-09
1.429e-10
1.041e-09
1.426e-10
1.009e-09
1.411e-10
9.776e-10
1.385e-10
9.468e-10
1.35e-10
9.169e-10
1.306e-10
8.882e-10
1.257e-10
8.606e-10
1.202e-10
8.344e-10
1.144e-10
8.095e-10
1.084e-10
7.86e-10
1.022e-10
7.639e-10
9.599e-11
7.431e-10
8.983e-11
7.238e-10
8.378e-11
7.057e-10
7.789e-11
6.89e-10
7.22e-11
6.734e-10
6.674e-11
6.591e-10
6.153e-11
6.459e-10
5.66e-11
6.337e-10
5.195e-11
6.226e-10
4.757e-11
6.123e-10
4.348e-11
6.03e-10
3.967e-11
5.945e-10
3.613e-11
5.867e-10
3.284e-11
5.796e-10
2.981e-11
5.732e-10
2.702e-11
5.673e-10
2.445e-11
5.621e-10
2.209e-11
5.573e-10
1.994e-11
5.53e-10
1.796e-11
5.491e-10
1.617e-11
5.456e-10
1.453e-11
5.424e-10
1.305e-11
5.396e-10
1.171e-11
5.37e-10
1.049e-11
5.347e-10
9.401e-12
5.327e-10
8.423e-12
5.308e-10
7.55e-12
5.291e-10
6.778e-12
5.277e-10
6.101e-12
5.263e-10
5.514e-12
5.251e-10
5.014e-12
5.24e-10
4.599e-12
5.23e-10
4.265e-12
5.221e-10
4.01e-12
5.213e-10
3.831e-12
5.205e-10
3.72e-12
5.198e-10
3.669e-12
5.191e-10
3.66e-12
3.67e-12
9.497e-10
7.964e-11
9.723e-10
1.996e-10
9.936e-10
2.781e-10
1.007e-09
3.206e-10
1.011e-09
3.361e-10
1.006e-09
3.334e-10
9.929e-10
3.192e-10
9.75e-10
2.984e-10
9.536e-10
2.745e-10
9.304e-10
2.496e-10
9.066e-10
2.251e-10
8.83e-10
2.018e-10
8.603e-10
1.799e-10
8.388e-10
1.597e-10
8.189e-10
1.412e-10
8.007e-10
1.243e-10
7.842e-10
1.088e-10
7.694e-10
9.47e-11
7.564e-10
8.178e-11
7.45e-10
6.991e-11
7.353e-10
5.897e-11
7.273e-10
4.881e-11
7.207e-10
3.933e-11
7.157e-10
3.042e-11
7.121e-10
2.196e-11
7.1e-10
1.389e-11
7.093e-10
6.093e-12
7.1e-10
-1.491e-12
7.121e-10
-8.939e-12
7.156e-10
-1.632e-11
7.204e-10
-2.368e-11
7.267e-10
-3.109e-11
7.344e-10
-3.859e-11
7.436e-10
-4.622e-11
7.542e-10
-5.401e-11
7.664e-10
-6.199e-11
7.802e-10
-7.018e-11
7.956e-10
-7.858e-11
8.127e-10
-8.718e-11
8.314e-10
-9.598e-11
8.519e-10
-1.049e-10
8.741e-10
-1.14e-10
8.981e-10
-1.231e-10
9.238e-10
-1.321e-10
9.512e-10
-1.409e-10
9.803e-10
-1.495e-10
1.011e-09
-1.575e-10
1.043e-09
-1.65e-10
1.076e-09
-1.715e-10
1.111e-09
-1.769e-10
1.146e-09
-1.81e-10
1.182e-09
-1.835e-10
1.218e-09
-1.841e-10
1.254e-09
-1.826e-10
1.289e-09
-1.787e-10
1.323e-09
-1.722e-10
1.355e-09
-1.631e-10
1.385e-09
-1.512e-10
1.412e-09
-1.365e-10
1.436e-09
-1.192e-10
1.456e-09
-9.962e-11
1.471e-09
-7.798e-11
1.482e-09
-5.478e-11
1.488e-09
-3.055e-11
1.489e-09
-5.888e-12
1.485e-09
1.863e-11
1.477e-09
4.246e-11
1.464e-09
6.509e-11
1.447e-09
8.614e-11
1.426e-09
1.053e-10
1.402e-09
1.223e-10
1.376e-09
1.371e-10
1.346e-09
1.494e-10
1.315e-09
1.595e-10
1.282e-09
1.672e-10
1.248e-09
1.727e-10
1.214e-09
1.761e-10
1.179e-09
1.776e-10
1.145e-09
1.773e-10
1.11e-09
1.754e-10
1.077e-09
1.722e-10
1.044e-09
1.678e-10
1.012e-09
1.624e-10
9.817e-10
1.562e-10
9.524e-10
1.495e-10
9.246e-10
1.423e-10
8.981e-10
1.348e-10
8.731e-10
1.272e-10
8.496e-10
1.195e-10
8.276e-10
1.119e-10
8.07e-10
1.044e-10
7.879e-10
9.706e-11
7.7e-10
9.001e-11
7.535e-10
8.325e-11
7.383e-10
7.679e-11
7.242e-10
7.067e-11
7.112e-10
6.49e-11
6.994e-10
5.947e-11
6.884e-10
5.439e-11
6.785e-10
4.965e-11
6.694e-10
4.524e-11
6.61e-10
4.116e-11
6.535e-10
3.738e-11
6.466e-10
3.39e-11
6.403e-10
3.07e-11
6.347e-10
2.776e-11
6.296e-10
2.506e-11
6.249e-10
2.26e-11
6.207e-10
2.036e-11
6.169e-10
1.831e-11
6.135e-10
1.646e-11
6.105e-10
1.477e-11
6.077e-10
1.325e-11
6.052e-10
1.188e-11
6.03e-10
1.065e-11
6.01e-10
9.545e-12
5.992e-10
8.568e-12
5.976e-10
7.708e-12
5.962e-10
6.958e-12
5.949e-10
6.313e-12
5.937e-10
5.77e-12
5.927e-10
5.324e-12
5.917e-10
4.972e-12
5.908e-10
4.708e-12
5.9e-10
4.527e-12
5.893e-10
4.417e-12
5.886e-10
4.366e-12
4.353e-12
9.471e-10
7.002e-11
9.667e-10
1.8e-10
9.876e-10
2.572e-10
1.004e-09
3.041e-10
1.013e-09
3.267e-10
1.015e-09
3.314e-10
1.011e-09
3.239e-10
1.001e-09
3.085e-10
9.865e-10
2.886e-10
9.698e-10
2.663e-10
9.516e-10
2.433e-10
9.328e-10
2.206e-10
9.141e-10
1.986e-10
8.96e-10
1.779e-10
8.787e-10
1.584e-10
8.627e-10
1.403e-10
8.479e-10
1.236e-10
8.346e-10
1.081e-10
8.227e-10
9.368e-11
8.122e-10
8.034e-11
8.033e-10
6.791e-11
7.958e-10
5.629e-11
7.898e-10
4.537e-11
7.852e-10
3.502e-11
7.82e-10
2.516e-11
7.802e-10
1.569e-11
7.798e-10
6.508e-12
7.807e-10
-2.457e-12
7.831e-10
-1.129e-11
7.868e-10
-2.006e-11
7.92e-10
-2.883e-11
7.985e-10
-3.767e-11
8.066e-10
-4.662e-11
8.161e-10
-5.575e-11
8.272e-10
-6.507e-11
8.398e-10
-7.462e-11
8.541e-10
-8.443e-11
8.7e-10
-9.449e-11
8.876e-10
-1.048e-10
9.07e-10
-1.153e-10
9.281e-10
-1.261e-10
9.511e-10
-1.369e-10
9.758e-10
-1.478e-10
1.002e-09
-1.587e-10
1.031e-09
-1.693e-10
1.061e-09
-1.796e-10
1.093e-09
-1.893e-10
1.126e-09
-1.983e-10
1.161e-09
-2.062e-10
1.197e-09
-2.129e-10
1.234e-09
-2.179e-10
1.271e-09
-2.21e-10
1.309e-09
-2.219e-10
1.347e-09
-2.202e-10
1.384e-09
-2.156e-10
1.419e-09
-2.08e-10
1.453e-09
-1.971e-10
1.485e-09
-1.829e-10
1.514e-09
-1.652e-10
1.539e-09
-1.444e-10
1.56e-09
-1.207e-10
1.577e-09
-9.449e-11
1.588e-09
-6.636e-11
1.595e-09
-3.697e-11
1.596e-09
-7.053e-12
1.592e-09
2.266e-11
1.583e-09
5.15e-11
1.569e-09
7.886e-11
1.551e-09
1.042e-10
1.529e-09
1.273e-10
1.503e-09
1.478e-10
1.475e-09
1.655e-10
1.444e-09
1.803e-10
1.411e-09
1.923e-10
1.377e-09
2.016e-10
1.341e-09
2.081e-10
1.305e-09
2.122e-10
1.269e-09
2.139e-10
1.233e-09
2.135e-10
1.197e-09
2.112e-10
1.162e-09
2.072e-10
1.128e-09
2.019e-10
1.095e-09
1.954e-10
1.063e-09
1.88e-10
1.033e-09
1.799e-10
1.004e-09
1.712e-10
9.764e-10
1.622e-10
9.505e-10
1.531e-10
9.262e-10
1.438e-10
9.034e-10
1.347e-10
8.82e-10
1.257e-10
8.622e-10
1.169e-10
8.437e-10
1.085e-10
8.266e-10
1.003e-10
8.108e-10
9.261e-11
7.962e-10
8.526e-11
7.828e-10
7.832e-11
7.705e-10
7.181e-11
7.591e-10
6.57e-11
7.488e-10
6.001e-11
7.393e-10
5.471e-11
7.307e-10
4.98e-11
7.228e-10
4.525e-11
7.156e-10
4.106e-11
7.091e-10
3.72e-11
7.032e-10
3.366e-11
6.979e-10
3.042e-11
6.93e-10
2.745e-11
6.887e-10
2.473e-11
6.847e-10
2.226e-11
6.811e-10
2.002e-11
6.779e-10
1.798e-11
6.751e-10
1.614e-11
6.725e-10
1.447e-11
6.701e-10
1.298e-11
6.68e-10
1.164e-11
6.662e-10
1.044e-11
6.645e-10
9.39e-12
6.63e-10
8.467e-12
6.616e-10
7.667e-12
6.604e-10
6.987e-12
6.593e-10
6.419e-12
6.583e-10
5.96e-12
6.574e-10
5.604e-12
6.566e-10
5.344e-12
6.558e-10
5.171e-12
6.551e-10
5.073e-12
5.037e-12
9.453e-10
6.222e-11
9.623e-10
1.63e-10
9.821e-10
2.374e-10
9.998e-10
2.864e-10
1.013e-09
3.137e-10
1.02e-09
3.243e-10
1.021e-09
3.225e-10
1.018e-09
3.122e-10
1.01e-09
2.963e-10
9.991e-10
2.77e-10
9.863e-10
2.561e-10
9.724e-10
2.345e-10
9.578e-10
2.132e-10
9.433e-10
1.924e-10
9.291e-10
1.726e-10
9.156e-10
1.538e-10
9.03e-10
1.362e-10
8.915e-10
1.196e-10
8.811e-10
1.041e-10
8.719e-10
8.951e-11
8.64e-10
7.582e-11
8.574e-10
6.292e-11
8.52e-10
5.069e-11
8.48e-10
3.904e-11
8.453e-10
2.787e-11
8.439e-10
1.708e-11
8.439e-10
6.579e-12
8.451e-10
-3.714e-12
8.477e-10
-1.389e-11
8.517e-10
-2.401e-11
8.57e-10
-3.417e-11
8.638e-10
-4.442e-11
8.719e-10
-5.482e-11
8.816e-10
-6.542e-11
8.928e-10
-7.627e-11
9.056e-10
-8.74e-11
9.2e-10
-9.883e-11
9.361e-10
-1.106e-10
9.539e-10
-1.226e-10
9.734e-10
-1.349e-10
9.948e-10
-1.474e-10
1.018e-09
-1.601e-10
1.043e-09
-1.729e-10
1.07e-09
-1.856e-10
1.099e-09
-1.981e-10
1.129e-09
-2.102e-10
1.162e-09
-2.217e-10
1.196e-09
-2.323e-10
1.231e-09
-2.417e-10
1.268e-09
-2.497e-10
1.306e-09
-2.558e-10
1.345e-09
-2.596e-10
1.384e-09
-2.609e-10
1.422e-09
-2.591e-10
1.461e-09
-2.54e-10
1.498e-09
-2.453e-10
1.534e-09
-2.327e-10
1.567e-09
-2.161e-10
1.597e-09
-1.954e-10
1.624e-09
-1.709e-10
1.646e-09
-1.429e-10
1.663e-09
-1.119e-10
1.675e-09
-7.85e-11
1.682e-09
-4.363e-11
1.683e-09
-8.152e-12
1.679e-09
2.705e-11
1.669e-09
6.115e-11
1.654e-09
9.343e-11
1.635e-09
1.233e-10
1.612e-09
1.504e-10
1.586e-09
1.744e-10
1.556e-09
1.951e-10
1.524e-09
2.124e-10
1.49e-09
2.264e-10
1.454e-09
2.371e-10
1.418e-09
2.447e-10
1.381e-09
2.493e-10
1.343e-09
2.512e-10
1.306e-09
2.506e-10
1.269e-09
2.478e-10
1.234e-09
2.431e-10
1.199e-09
2.368e-10
1.165e-09
2.291e-10
1.133e-09
2.203e-10
1.102e-09
2.108e-10
1.072e-09
2.006e-10
1.044e-09
1.901e-10
1.018e-09
1.793e-10
9.935e-10
1.685e-10
9.703e-10
1.578e-10
9.487e-10
1.473e-10
9.286e-10
1.37e-10
9.099e-10
1.271e-10
8.926e-10
1.177e-10
8.766e-10
1.086e-10
8.619e-10
1e-10
8.483e-10
9.191e-11
8.358e-10
8.429e-11
8.243e-10
7.716e-11
8.139e-10
7.05e-11
8.043e-10
6.43e-11
7.955e-10
5.855e-11
7.875e-10
5.324e-11
7.803e-10
4.833e-11
7.736e-10
4.381e-11
7.677e-10
3.966e-11
7.622e-10
3.585e-11
7.573e-10
3.237e-11
7.528e-10
2.919e-11
7.488e-10
2.629e-11
7.452e-10
2.365e-11
7.419e-10
2.125e-11
7.39e-10
1.908e-11
7.363e-10
1.712e-11
7.339e-10
1.536e-11
7.318e-10
1.377e-11
7.299e-10
1.236e-11
7.282e-10
1.111e-11
7.266e-10
1e-11
7.253e-10
9.043e-12
7.24e-10
8.219e-12
7.229e-10
7.524e-12
7.219e-10
6.952e-12
7.21e-10
6.498e-12
7.202e-10
6.155e-12
7.195e-10
5.915e-12
7.188e-10
5.769e-12
5.708e-12
9.44e-10
5.574e-11
9.589e-10
1.482e-10
9.773e-10
2.19e-10
9.953e-10
2.683e-10
1.01e-09
2.987e-10
1.021e-09
3.137e-10
1.027e-09
3.166e-10
1.028e-09
3.107e-10
1.026e-09
2.986e-10
1.021e-09
2.825e-10
1.013e-09
2.639e-10
1.003e-09
2.439e-10
9.93e-10
2.236e-10
9.821e-10
2.033e-10
9.712e-10
1.836e-10
9.605e-10
1.645e-10
9.503e-10
1.464e-10
9.408e-10
1.291e-10
9.321e-10
1.127e-10
9.244e-10
9.721e-11
9.177e-10
8.249e-11
9.122e-10
6.85e-11
9.077e-10
5.514e-11
9.044e-10
4.234e-11
9.023e-10
2.999e-11
9.014e-10
1.8e-11
9.017e-10
6.279e-12
9.032e-10
-5.256e-12
9.06e-10
-1.669e-11
9.101e-10
-2.811e-11
9.155e-10
-3.959e-11
9.223e-10
-5.119e-11
9.305e-10
-6.299e-11
9.401e-10
-7.503e-11
9.512e-10
-8.737e-11
9.638e-10
-1e-10
9.781e-10
-1.131e-10
9.939e-10
-1.264e-10
1.012e-09
-1.402e-10
1.031e-09
-1.542e-10
1.052e-09
-1.686e-10
1.075e-09
-1.831e-10
1.1e-09
-1.978e-10
1.127e-09
-2.124e-10
1.155e-09
-2.267e-10
1.186e-09
-2.407e-10
1.218e-09
-2.54e-10
1.252e-09
-2.663e-10
1.288e-09
-2.774e-10
1.325e-09
-2.867e-10
1.363e-09
-2.94e-10
1.402e-09
-2.988e-10
1.442e-09
-3.005e-10
1.482e-09
-2.989e-10
1.521e-09
-2.934e-10
1.559e-09
-2.836e-10
1.596e-09
-2.694e-10
1.63e-09
-2.504e-10
1.662e-09
-2.267e-10
1.689e-09
-1.985e-10
1.712e-09
-1.66e-10
1.73e-09
-1.299e-10
1.743e-09
-9.108e-11
1.75e-09
-5.044e-11
1.751e-09
-9.109e-12
1.746e-09
3.184e-11
1.736e-09
7.14e-11
1.72e-09
1.087e-10
1.7e-09
1.432e-10
1.676e-09
1.744e-10
1.649e-09
2.019e-10
1.618e-09
2.256e-10
1.585e-09
2.454e-10
1.551e-09
2.613e-10
1.514e-09
2.734e-10
1.477e-09
2.819e-10
1.439e-09
2.87e-10
1.402e-09
2.89e-10
1.364e-09
2.881e-10
1.327e-09
2.848e-10
1.291e-09
2.792e-10
1.256e-09
2.718e-10
1.222e-09
2.629e-10
1.19e-09
2.527e-10
1.159e-09
2.417e-10
1.13e-09
2.299e-10
1.102e-09
2.178e-10
1.076e-09
2.054e-10
1.051e-09
1.93e-10
1.028e-09
1.808e-10
1.007e-09
1.687e-10
9.871e-10
1.57e-10
9.686e-10
1.456e-10
9.515e-10
1.348e-10
9.357e-10
1.244e-10
9.211e-10
1.146e-10
9.077e-10
1.053e-10
8.953e-10
9.664e-11
8.84e-10
8.848e-11
8.736e-10
8.087e-11
8.641e-10
7.378e-11
8.555e-10
6.721e-11
8.476e-10
6.113e-11
8.404e-10
5.552e-11
8.338e-10
5.035e-11
8.279e-10
4.56e-11
8.225e-10
4.125e-11
8.176e-10
3.726e-11
8.132e-10
3.361e-11
8.092e-10
3.028e-11
8.056e-10
2.726e-11
8.024e-10
2.45e-11
7.994e-10
2.201e-11
7.968e-10
1.976e-11
7.944e-10
1.772e-11
7.923e-10
1.59e-11
7.904e-10
1.426e-11
7.887e-10
1.281e-11
7.872e-10
1.153e-11
7.858e-10
1.041e-11
7.846e-10
9.436e-12
7.835e-10
8.611e-12
7.825e-10
7.925e-12
7.817e-10
7.371e-12
7.809e-10
6.942e-12
7.801e-10
6.634e-12
7.795e-10
6.44e-12
6.354e-12
9.43e-10
5.022e-11
9.562e-10
1.35e-10
9.733e-10
2.019e-10
9.911e-10
2.506e-10
1.007e-09
2.826e-10
1.02e-09
3.006e-10
1.03e-09
3.073e-10
1.035e-09
3.052e-10
1.037e-09
2.966e-10
1.036e-09
2.834e-10
1.033e-09
2.672e-10
1.028e-09
2.491e-10
1.021e-09
2.301e-10
1.014e-09
2.107e-10
1.006e-09
1.913e-10
9.981e-10
1.724e-10
9.904e-10
1.541e-10
9.831e-10
1.364e-10
9.763e-10
1.195e-10
9.703e-10
1.033e-10
9.65e-10
8.778e-11
9.606e-10
7.292e-11
9.571e-10
5.863e-11
9.546e-10
4.484e-11
9.531e-10
3.146e-11
9.527e-10
1.841e-11
9.534e-10
5.604e-12
9.552e-10
-7.056e-12
9.581e-10
-1.965e-11
9.623e-10
-3.226e-11
9.676e-10
-4.497e-11
9.743e-10
-5.785e-11
9.823e-10
-7.096e-11
9.916e-10
-8.437e-11
1.002e-09
-9.812e-11
1.015e-09
-1.123e-10
1.028e-09
-1.268e-10
1.044e-09
-1.418e-10
1.061e-09
-1.572e-10
1.079e-09
-1.729e-10
1.1e-09
-1.89e-10
1.122e-09
-2.054e-10
1.146e-09
-2.219e-10
1.172e-09
-2.384e-10
1.2e-09
-2.547e-10
1.23e-09
-2.705e-10
1.262e-09
-2.857e-10
1.295e-09
-2.998e-10
1.33e-09
-3.125e-10
1.367e-09
-3.234e-10
1.405e-09
-3.32e-10
1.444e-09
-3.378e-10
1.484e-09
-3.403e-10
1.524e-09
-3.389e-10
1.564e-09
-3.331e-10
1.602e-09