/*--------------------------------*- C++ -*----------------------------------*\
  =========                 |
  \\      /  F ield         | OpenFOAM: The Open Source CFD Toolbox
   \\    /   O peration     | Website:  https://openfoam.org
    \\  /    A nd           | Version:  7
     \\/     M anipulation  |
\*---------------------------------------------------------------------------*/
FoamFile
{
    version     2.0;
    format      ascii;
    class       volVectorField;
    location    "2579.99947344456314";
    object      U;
}
// * * * * * * * * * * * * * * * * * * * * * * * * * * * * * * * * * * * * * //

dimensions      [0 1 -1 0 0 0 0];

internalField   nonuniform List<vector> 
4096
(
(0.001039 0.0001611 0)
(0.0007463 0.0001314 0)
(0.0005302 8.473e-05 0)
(0.0003919 5.358e-05 0)
(0.0003036 3.467e-05 0)
(0.0002457 2.329e-05 0)
(0.0002061 1.634e-05 0)
(0.0001778 1.196e-05 0)
(0.0001567 9.076e-06 0)
(0.0001406 7.091e-06 0)
(0.0001278 5.667e-06 0)
(0.0001175 4.607e-06 0)
(0.0001091 3.795e-06 0)
(0.0001022 3.156e-06 0)
(9.637e-05 2.643e-06 0)
(9.151e-05 2.223e-06 0)
(8.741e-05 1.874e-06 0)
(8.396e-05 1.58e-06 0)
(8.105e-05 1.328e-06 0)
(7.861e-05 1.11e-06 0)
(7.658e-05 9.196e-07 0)
(7.491e-05 7.505e-07 0)
(7.356e-05 5.986e-07 0)
(7.25e-05 4.605e-07 0)
(7.171e-05 3.332e-07 0)
(7.116e-05 2.145e-07 0)
(7.084e-05 1.021e-07 0)
(7.075e-05 -5.712e-09 0)
(7.086e-05 -1.104e-07 0)
(7.119e-05 -2.134e-07 0)
(7.172e-05 -3.159e-07 0)
(7.245e-05 -4.189e-07 0)
(7.339e-05 -5.233e-07 0)
(7.455e-05 -6.3e-07 0)
(7.592e-05 -7.396e-07 0)
(7.751e-05 -8.527e-07 0)
(7.933e-05 -9.695e-07 0)
(8.139e-05 -1.091e-06 0)
(8.37e-05 -1.216e-06 0)
(8.626e-05 -1.345e-06 0)
(8.908e-05 -1.477e-06 0)
(9.217e-05 -1.612e-06 0)
(9.553e-05 -1.75e-06 0)
(9.917e-05 -1.887e-06 0)
(0.0001031 -2.024e-06 0)
(0.0001073 -2.157e-06 0)
(0.0001117 -2.284e-06 0)
(0.0001164 -2.402e-06 0)
(0.0001213 -2.508e-06 0)
(0.0001264 -2.599e-06 0)
(0.0001317 -2.669e-06 0)
(0.0001371 -2.714e-06 0)
(0.0001425 -2.732e-06 0)
(0.0001479 -2.716e-06 0)
(0.0001533 -2.664e-06 0)
(0.0001586 -2.572e-06 0)
(0.0001636 -2.438e-06 0)
(0.0001683 -2.262e-06 0)
(0.0001726 -2.042e-06 0)
(0.0001764 -1.783e-06 0)
(0.0001797 -1.486e-06 0)
(0.0001823 -1.159e-06 0)
(0.0001843 -8.074e-07 0)
(0.0001855 -4.405e-07 0)
(0.000186 -6.7e-08 0)
(0.0001858 3.04e-07 0)
(0.0001848 6.638e-07 0)
(0.0001832 1.005e-06 0)
(0.0001808 1.321e-06 0)
(0.0001779 1.606e-06 0)
(0.0001744 1.857e-06 0)
(0.0001705 2.073e-06 0)
(0.0001662 2.251e-06 0)
(0.0001616 2.392e-06 0)
(0.0001567 2.498e-06 0)
(0.0001516 2.568e-06 0)
(0.0001464 2.607e-06 0)
(0.0001412 2.616e-06 0)
(0.000136 2.599e-06 0)
(0.0001308 2.559e-06 0)
(0.0001258 2.499e-06 0)
(0.0001208 2.422e-06 0)
(0.0001161 2.331e-06 0)
(0.0001115 2.23e-06 0)
(0.0001072 2.121e-06 0)
(0.000103 2.007e-06 0)
(9.915e-05 1.89e-06 0)
(9.549e-05 1.772e-06 0)
(9.206e-05 1.655e-06 0)
(8.887e-05 1.54e-06 0)
(8.59e-05 1.427e-06 0)
(8.315e-05 1.319e-06 0)
(8.062e-05 1.215e-06 0)
(7.829e-05 1.116e-06 0)
(7.615e-05 1.022e-06 0)
(7.42e-05 9.345e-07 0)
(7.241e-05 8.522e-07 0)
(7.078e-05 7.754e-07 0)
(6.93e-05 7.041e-07 0)
(6.796e-05 6.381e-07 0)
(6.674e-05 5.773e-07 0)
(6.565e-05 5.213e-07 0)
(6.465e-05 4.699e-07 0)
(6.376e-05 4.229e-07 0)
(6.296e-05 3.8e-07 0)
(6.224e-05 3.408e-07 0)
(6.159e-05 3.053e-07 0)
(6.101e-05 2.73e-07 0)
(6.05e-05 2.438e-07 0)
(6.004e-05 2.174e-07 0)
(5.962e-05 1.936e-07 0)
(5.926e-05 1.722e-07 0)
(5.893e-05 1.531e-07 0)
(5.864e-05 1.36e-07 0)
(5.839e-05 1.208e-07 0)
(5.816e-05 1.076e-07 0)
(5.796e-05 9.603e-08 0)
(5.777e-05 8.625e-08 0)
(5.761e-05 7.822e-08 0)
(5.746e-05 7.201e-08 0)
(5.732e-05 6.778e-08 0)
(5.719e-05 6.587e-08 0)
(5.705e-05 6.684e-08 0)
(5.691e-05 7.181e-08 0)
(5.676e-05 8.286e-08 0)
(5.657e-05 1.034e-07 0)
(5.633e-05 1.374e-07 0)
(5.602e-05 1.786e-07 0)
(0.001209 0.0003128 0)
(0.001154 0.0003282 0)
(0.00101 0.000248 0)
(0.0008613 0.0001771 0)
(0.0007344 0.0001263 0)
(0.0006326 9.15e-05 0)
(0.0005524 6.797e-05 0)
(0.0004892 5.183e-05 0)
(0.0004389 4.05e-05 0)
(0.0003985 3.229e-05 0)
(0.0003655 2.619e-05 0)
(0.0003384 2.152e-05 0)
(0.0003158 1.787e-05 0)
(0.0002968 1.496e-05 0)
(0.0002809 1.259e-05 0)
(0.0002674 1.063e-05 0)
(0.000256 8.994e-06 0)
(0.0002463 7.603e-06 0)
(0.0002381 6.408e-06 0)
(0.0002312 5.37e-06 0)
(0.0002254 4.456e-06 0)
(0.0002206 3.644e-06 0)
(0.0002168 2.913e-06 0)
(0.0002137 2.246e-06 0)
(0.0002114 1.631e-06 0)
(0.0002099 1.057e-06 0)
(0.0002089 5.124e-07 0)
(0.0002086 -9.391e-09 0)
(0.0002089 -5.162e-07 0)
(0.0002098 -1.014e-06 0)
(0.0002113 -1.509e-06 0)
(0.0002133 -2.006e-06 0)
(0.0002159 -2.509e-06 0)
(0.0002192 -3.022e-06 0)
(0.000223 -3.548e-06 0)
(0.0002274 -4.089e-06 0)
(0.0002325 -4.647e-06 0)
(0.0002383 -5.223e-06 0)
(0.0002447 -5.817e-06 0)
(0.0002518 -6.428e-06 0)
(0.0002597 -7.054e-06 0)
(0.0002682 -7.692e-06 0)
(0.0002775 -8.336e-06 0)
(0.0002876 -8.981e-06 0)
(0.0002984 -9.617e-06 0)
(0.0003098 -1.024e-05 0)
(0.000322 -1.082e-05 0)
(0.0003348 -1.137e-05 0)
(0.0003483 -1.186e-05 0)
(0.0003622 -1.226e-05 0)
(0.0003765 -1.258e-05 0)
(0.000391 -1.278e-05 0)
(0.0004058 -1.284e-05 0)
(0.0004205 -1.275e-05 0)
(0.0004349 -1.249e-05 0)
(0.000449 -1.205e-05 0)
(0.0004624 -1.141e-05 0)
(0.000475 -1.057e-05 0)
(0.0004865 -9.542e-06 0)
(0.0004967 -8.326e-06 0)
(0.0005055 -6.942e-06 0)
(0.0005125 -5.417e-06 0)
(0.0005178 -3.782e-06 0)
(0.0005212 -2.076e-06 0)
(0.0005226 -3.389e-07 0)
(0.000522 1.388e-06 0)
(0.0005195 3.065e-06 0)
(0.0005151 4.658e-06 0)
(0.000509 6.136e-06 0)
(0.0005012 7.476e-06 0)
(0.000492 8.661e-06 0)
(0.0004815 9.68e-06 0)
(0.0004699 1.053e-05 0)
(0.0004575 1.121e-05 0)
(0.0004444 1.172e-05 0)
(0.0004307 1.207e-05 0)
(0.0004167 1.227e-05 0)
(0.0004026 1.233e-05 0)
(0.0003884 1.226e-05 0)
(0.0003744 1.209e-05 0)
(0.0003606 1.182e-05 0)
(0.0003471 1.148e-05 0)
(0.0003341 1.106e-05 0)
(0.0003215 1.06e-05 0)
(0.0003096 1.01e-05 0)
(0.0002981 9.569e-06 0)
(0.0002874 9.025e-06 0)
(0.0002772 8.474e-06 0)
(0.0002676 7.924e-06 0)
(0.0002587 7.382e-06 0)
(0.0002504 6.853e-06 0)
(0.0002427 6.341e-06 0)
(0.0002356 5.85e-06 0)
(0.000229 5.381e-06 0)
(0.000223 4.937e-06 0)
(0.0002174 4.519e-06 0)
(0.0002124 4.127e-06 0)
(0.0002077 3.76e-06 0)
(0.0002035 3.42e-06 0)
(0.0001997 3.104e-06 0)
(0.0001962 2.812e-06 0)
(0.000193 2.543e-06 0)
(0.0001902 2.296e-06 0)
(0.0001876 2.069e-06 0)
(0.0001853 1.862e-06 0)
(0.0001832 1.673e-06 0)
(0.0001813 1.501e-06 0)
(0.0001796 1.344e-06 0)
(0.0001781 1.203e-06 0)
(0.0001767 1.074e-06 0)
(0.0001755 9.587e-07 0)
(0.0001744 8.545e-07 0)
(0.0001735 7.611e-07 0)
(0.0001726 6.776e-07 0)
(0.0001719 6.036e-07 0)
(0.0001712 5.385e-07 0)
(0.0001706 4.819e-07 0)
(0.00017 4.336e-07 0)
(0.0001695 3.937e-07 0)
(0.0001691 3.624e-07 0)
(0.0001686 3.403e-07 0)
(0.0001682 3.284e-07 0)
(0.0001678 3.285e-07 0)
(0.0001674 3.436e-07 0)
(0.000167 3.784e-07 0)
(0.0001666 4.395e-07 0)
(0.0001661 5.301e-07 0)
(0.0001656 6.247e-07 0)
(0.001226 0.0002775 0)
(0.001243 0.0004026 0)
(0.001194 0.0003664 0)
(0.001102 0.0002983 0)
(0.0009996 0.0002346 0)
(0.0009014 0.0001832 0)
(0.000814 0.0001439 0)
(0.0007388 0.0001143 0)
(0.0006749 9.207e-05 0)
(0.000621 7.507e-05 0)
(0.0005755 6.189e-05 0)
(0.000537 5.151e-05 0)
(0.0005043 4.319e-05 0)
(0.0004764 3.642e-05 0)
(0.0004527 3.084e-05 0)
(0.0004324 2.618e-05 0)
(0.000415 2.224e-05 0)
(0.0004002 1.886e-05 0)
(0.0003876 1.595e-05 0)
(0.0003769 1.339e-05 0)
(0.000368 1.114e-05 0)
(0.0003606 9.129e-06 0)
(0.0003546 7.31e-06 0)
(0.0003498 5.649e-06 0)
(0.0003462 4.112e-06 0)
(0.0003437 2.674e-06 0)
(0.0003422 1.31e-06 0)
(0.0003417 9.121e-10 0)
(0.0003422 -1.271e-06 0)
(0.0003436 -2.52e-06 0)
(0.0003459 -3.761e-06 0)
(0.0003491 -5.006e-06 0)
(0.0003532 -6.264e-06 0)
(0.0003582 -7.545e-06 0)
(0.0003642 -8.856e-06 0)
(0.0003712 -1.02e-05 0)
(0.0003792 -1.159e-05 0)
(0.0003882 -1.302e-05 0)
(0.0003982 -1.449e-05 0)
(0.0004093 -1.6e-05 0)
(0.0004215 -1.754e-05 0)
(0.0004349 -1.911e-05 0)
(0.0004494 -2.069e-05 0)
(0.000465 -2.227e-05 0)
(0.0004817 -2.382e-05 0)
(0.0004995 -2.533e-05 0)
(0.0005183 -2.676e-05 0)
(0.0005381 -2.808e-05 0)
(0.0005588 -2.924e-05 0)
(0.0005803 -3.022e-05 0)
(0.0006023 -3.096e-05 0)
(0.0006248 -3.142e-05 0)
(0.0006474 -3.154e-05 0)
(0.0006699 -3.13e-05 0)
(0.0006921 -3.063e-05 0)
(0.0007137 -2.952e-05 0)
(0.0007343 -2.794e-05 0)
(0.0007535 -2.588e-05 0)
(0.0007712 -2.335e-05 0)
(0.0007868 -2.037e-05 0)
(0.0008002 -1.699e-05 0)
(0.000811 -1.327e-05 0)
(0.0008191 -9.28e-06 0)
(0.0008242 -5.119e-06 0)
(0.0008264 -8.828e-07 0)
(0.0008256 3.331e-06 0)
(0.0008218 7.427e-06 0)
(0.0008152 1.132e-05 0)
(0.0008058 1.494e-05 0)
(0.000794 1.823e-05 0)
(0.00078 2.115e-05 0)
(0.000764 2.367e-05 0)
(0.0007463 2.577e-05 0)
(0.0007273 2.746e-05 0)
(0.0007071 2.874e-05 0)
(0.0006862 2.963e-05 0)
(0.0006647 3.016e-05 0)
(0.000643 3.034e-05 0)
(0.0006211 3.022e-05 0)
(0.0005995 2.983e-05 0)
(0.0005782 2.92e-05 0)
(0.0005573 2.838e-05 0)
(0.0005372 2.739e-05 0)
(0.0005177 2.627e-05 0)
(0.0004991 2.506e-05 0)
(0.0004813 2.377e-05 0)
(0.0004645 2.245e-05 0)
(0.0004486 2.11e-05 0)
(0.0004337 1.976e-05 0)
(0.0004197 1.843e-05 0)
(0.0004067 1.713e-05 0)
(0.0003946 1.587e-05 0)
(0.0003834 1.465e-05 0)
(0.0003731 1.35e-05 0)
(0.0003635 1.24e-05 0)
(0.0003548 1.136e-05 0)
(0.0003467 1.039e-05 0)
(0.0003394 9.477e-06 0)
(0.0003327 8.629e-06 0)
(0.0003266 7.841e-06 0)
(0.000321 7.112e-06 0)
(0.000316 6.44e-06 0)
(0.0003114 5.821e-06 0)
(0.0003073 5.254e-06 0)
(0.0003036 4.734e-06 0)
(0.0003002 4.26e-06 0)
(0.0002972 3.827e-06 0)
(0.0002944 3.433e-06 0)
(0.000292 3.076e-06 0)
(0.0002898 2.752e-06 0)
(0.0002878 2.46e-06 0)
(0.0002861 2.196e-06 0)
(0.0002845 1.959e-06 0)
(0.0002831 1.748e-06 0)
(0.0002818 1.559e-06 0)
(0.0002807 1.393e-06 0)
(0.0002797 1.249e-06 0)
(0.0002788 1.125e-06 0)
(0.000278 1.022e-06 0)
(0.0002772 9.394e-07 0)
(0.0002765 8.787e-07 0)
(0.0002759 8.415e-07 0)
(0.0002752 8.301e-07 0)
(0.0002746 8.48e-07 0)
(0.000274 8.995e-07 0)
(0.0002734 9.876e-07 0)
(0.0002728 1.105e-06 0)
(0.0002721 1.208e-06 0)
(0.001224 0.0002275 0)
(0.00126 0.0004003 0)
(0.001258 0.0004194 0)
(0.001216 0.000379 0)
(0.001149 0.0003231 0)
(0.001073 0.0002688 0)
(0.0009969 0.0002218 0)
(0.0009254 0.0001831 0)
(0.0008606 0.0001519 0)
(0.0008032 0.0001266 0)
(0.0007528 0.0001063 0)
(0.0007088 8.966e-05 0)
(0.0006705 7.601e-05 0)
(0.0006373 6.467e-05 0)
(0.0006085 5.516e-05 0)
(0.0005835 4.71e-05 0)
(0.000562 4.02e-05 0)
(0.0005435 3.424e-05 0)
(0.0005276 2.904e-05 0)
(0.0005141 2.447e-05 0)
(0.0005027 2.04e-05 0)
(0.0004933 1.675e-05 0)
(0.0004855 1.344e-05 0)
(0.0004794 1.04e-05 0)
(0.0004748 7.576e-06 0)
(0.0004716 4.929e-06 0)
(0.0004697 2.414e-06 0)
(0.0004691 -2.319e-09 0)
(0.0004697 -2.352e-06 0)
(0.0004716 -4.662e-06 0)
(0.0004746 -6.957e-06 0)
(0.0004789 -9.257e-06 0)
(0.0004843 -1.158e-05 0)
(0.000491 -1.394e-05 0)
(0.0004989 -1.636e-05 0)
(0.0005081 -1.884e-05 0)
(0.0005185 -2.139e-05 0)
(0.0005303 -2.401e-05 0)
(0.0005435 -2.671e-05 0)
(0.0005581 -2.947e-05 0)
(0.0005741 -3.229e-05 0)
(0.0005915 -3.515e-05 0)
(0.0006104 -3.802e-05 0)
(0.0006307 -4.089e-05 0)
(0.0006525 -4.371e-05 0)
(0.0006757 -4.643e-05 0)
(0.0007002 -4.901e-05 0)
(0.000726 -5.138e-05 0)
(0.0007528 -5.348e-05 0)
(0.0007806 -5.522e-05 0)
(0.0008091 -5.653e-05 0)
(0.0008382 -5.732e-05 0)
(0.0008674 -5.752e-05 0)
(0.0008966 -5.703e-05 0)
(0.0009253 -5.579e-05 0)
(0.0009531 -5.374e-05 0)
(0.0009796 -5.085e-05 0)
(0.001004 -4.709e-05 0)
(0.001027 -4.248e-05 0)
(0.001047 -3.706e-05 0)
(0.001065 -3.092e-05 0)
(0.001079 -2.416e-05 0)
(0.001089 -1.692e-05 0)
(0.001096 -9.372e-06 0)
(0.001099 -1.685e-06 0)
(0.001098 5.964e-06 0)
(0.001093 1.34e-05 0)
(0.001084 2.048e-05 0)
(0.001072 2.707e-05 0)
(0.001057 3.307e-05 0)
(0.001039 3.84e-05 0)
(0.001019 4.3e-05 0)
(0.0009958 4.687e-05 0)
(0.0009713 4.998e-05 0)
(0.0009453 5.235e-05 0)
(0.0009182 5.402e-05 0)
(0.0008905 5.502e-05 0)
(0.0008623 5.54e-05 0)
(0.0008341 5.523e-05 0)
(0.000806 5.456e-05 0)
(0.0007783 5.346e-05 0)
(0.0007512 5.2e-05 0)
(0.000725 5.023e-05 0)
(0.0006996 4.823e-05 0)
(0.0006753 4.604e-05 0)
(0.0006521 4.373e-05 0)
(0.0006301 4.133e-05 0)
(0.0006093 3.889e-05 0)
(0.0005898 3.645e-05 0)
(0.0005714 3.403e-05 0)
(0.0005543 3.166e-05 0)
(0.0005384 2.936e-05 0)
(0.0005236 2.714e-05 0)
(0.0005099 2.503e-05 0)
(0.0004973 2.301e-05 0)
(0.0004857 2.111e-05 0)
(0.0004751 1.932e-05 0)
(0.0004653 1.765e-05 0)
(0.0004564 1.608e-05 0)
(0.0004483 1.463e-05 0)
(0.0004408 1.329e-05 0)
(0.0004341 1.204e-05 0)
(0.000428 1.09e-05 0)
(0.0004225 9.847e-06 0)
(0.0004175 8.884e-06 0)
(0.0004129 8.002e-06 0)
(0.0004088 7.198e-06 0)
(0.0004052 6.466e-06 0)
(0.0004019 5.8e-06 0)
(0.0003989 5.196e-06 0)
(0.0003962 4.65e-06 0)
(0.0003938 4.157e-06 0)
(0.0003917 3.714e-06 0)
(0.0003898 3.318e-06 0)
(0.000388 2.964e-06 0)
(0.0003865 2.652e-06 0)
(0.0003851 2.379e-06 0)
(0.0003839 2.144e-06 0)
(0.0003828 1.946e-06 0)
(0.0003817 1.785e-06 0)
(0.0003808 1.662e-06 0)
(0.0003799 1.579e-06 0)
(0.0003791 1.537e-06 0)
(0.0003783 1.539e-06 0)
(0.0003776 1.586e-06 0)
(0.0003768 1.675e-06 0)
(0.0003761 1.79e-06 0)
(0.0003754 1.881e-06 0)
(0.001219 0.0001846 0)
(0.001255 0.0003713 0)
(0.001275 0.0004302 0)
(0.001264 0.0004212 0)
(0.001229 0.0003831 0)
(0.001178 0.0003359 0)
(0.001119 0.0002893 0)
(0.001059 0.0002471 0)
(0.001001 0.0002106 0)
(0.0009473 0.0001795 0)
(0.0008978 0.0001533 0)
(0.0008532 0.0001312 0)
(0.0008134 0.0001125 0)
(0.0007781 9.667e-05 0)
(0.0007469 8.31e-05 0)
(0.0007196 7.142e-05 0)
(0.0006957 6.129e-05 0)
(0.0006749 5.245e-05 0)
(0.0006569 4.466e-05 0)
(0.0006416 3.774e-05 0)
(0.0006285 3.155e-05 0)
(0.0006177 2.595e-05 0)
(0.0006088 2.085e-05 0)
(0.0006017 1.614e-05 0)
(0.0005964 1.176e-05 0)
(0.0005927 7.636e-06 0)
(0.0005906 3.706e-06 0)
(0.00059 -7.949e-08 0)
(0.0005908 -3.766e-06 0)
(0.0005931 -7.393e-06 0)
(0.0005969 -1.1e-05 0)
(0.000602 -1.461e-05 0)
(0.0006086 -1.826e-05 0)
(0.0006167 -2.198e-05 0)
(0.0006262 -2.577e-05 0)
(0.0006372 -2.965e-05 0)
(0.0006498 -3.364e-05 0)
(0.000664 -3.774e-05 0)
(0.0006798 -4.195e-05 0)
(0.0006973 -4.626e-05 0)
(0.0007164 -5.065e-05 0)
(0.0007373 -5.51e-05 0)
(0.0007599 -5.957e-05 0)
(0.0007842 -6.401e-05 0)
(0.0008103 -6.838e-05 0)
(0.0008379 -7.259e-05 0)
(0.0008671 -7.657e-05 0)
(0.0008978 -8.023e-05 0)
(0.0009298 -8.345e-05 0)
(0.0009628 -8.612e-05 0)
(0.0009968 -8.812e-05 0)
(0.001031 -8.931e-05 0)
(0.001066 -8.957e-05 0)
(0.001101 -8.878e-05 0)
(0.001135 -8.683e-05 0)
(0.001168 -8.362e-05 0)
(0.0012 -7.91e-05 0)
(0.001229 -7.325e-05 0)
(0.001256 -6.608e-05 0)
(0.00128 -5.766e-05 0)
(0.001301 -4.811e-05 0)
(0.001317 -3.761e-05 0)
(0.00133 -2.638e-05 0)
(0.001338 -1.466e-05 0)
(0.001341 -2.719e-06 0)
(0.00134 9.161e-06 0)
(0.001334 2.072e-05 0)
(0.001324 3.172e-05 0)
(0.00131 4.197e-05 0)
(0.001292 5.13e-05 0)
(0.001271 5.961e-05 0)
(0.001246 6.68e-05 0)
(0.001219 7.283e-05 0)
(0.00119 7.771e-05 0)
(0.001159 8.145e-05 0)
(0.001127 8.41e-05 0)
(0.001094 8.571e-05 0)
(0.001061 8.636e-05 0)
(0.001027 8.615e-05 0)
(0.0009937 8.517e-05 0)
(0.0009607 8.351e-05 0)
(0.0009284 8.128e-05 0)
(0.0008971 7.858e-05 0)
(0.0008668 7.551e-05 0)
(0.0008377 7.214e-05 0)
(0.0008099 6.857e-05 0)
(0.0007836 6.486e-05 0)
(0.0007586 6.109e-05 0)
(0.0007352 5.73e-05 0)
(0.0007131 5.354e-05 0)
(0.0006925 4.985e-05 0)
(0.0006733 4.627e-05 0)
(0.0006555 4.282e-05 0)
(0.000639 3.952e-05 0)
(0.0006238 3.637e-05 0)
(0.0006097 3.34e-05 0)
(0.0005968 3.059e-05 0)
(0.000585 2.797e-05 0)
(0.0005742 2.552e-05 0)
(0.0005643 2.323e-05 0)
(0.0005552 2.112e-05 0)
(0.000547 1.916e-05 0)
(0.0005396 1.736e-05 0)
(0.0005328 1.57e-05 0)
(0.0005266 1.418e-05 0)
(0.0005211 1.278e-05 0)
(0.0005161 1.151e-05 0)
(0.0005116 1.035e-05 0)
(0.0005075 9.296e-06 0)
(0.0005038 8.338e-06 0)
(0.0005005 7.47e-06 0)
(0.0004976 6.686e-06 0)
(0.0004949 5.981e-06 0)
(0.0004925 5.348e-06 0)
(0.0004904 4.783e-06 0)
(0.0004885 4.283e-06 0)
(0.0004868 3.844e-06 0)
(0.0004852 3.464e-06 0)
(0.0004838 3.14e-06 0)
(0.0004826 2.873e-06 0)
(0.0004814 2.663e-06 0)
(0.0004804 2.509e-06 0)
(0.0004794 2.413e-06 0)
(0.0004785 2.376e-06 0)
(0.0004776 2.394e-06 0)
(0.0004767 2.461e-06 0)
(0.0004759 2.554e-06 0)
(0.0004751 2.626e-06 0)
(0.001214 0.000152 0)
(0.001246 0.0003355 0)
(0.001274 0.0004184 0)
(0.001282 0.0004357 0)
(0.001268 0.0004173 0)
(0.001239 0.0003822 0)
(0.001199 0.0003414 0)
(0.001153 0.0003006 0)
(0.001105 0.0002626 0)
(0.001059 0.0002286 0)
(0.001014 0.0001985 0)
(0.0009721 0.0001723 0)
(0.0009338 0.0001495 0)
(0.0008991 0.0001297 0)
(0.0008679 0.0001124 0)
(0.0008401 9.728e-05 0)
(0.0008155 8.397e-05 0)
(0.0007938 7.22e-05 0)
(0.0007749 6.172e-05 0)
(0.0007587 5.234e-05 0)
(0.0007448 4.386e-05 0)
(0.0007331 3.616e-05 0)
(0.0007236 2.908e-05 0)
(0.000716 2.252e-05 0)
(0.0007104 1.639e-05 0)
(0.0007065 1.059e-05 0)
(0.0007043 5.049e-06 0)
(0.0007038 -3.022e-07 0)
(0.0007049 -5.523e-06 0)
(0.0007076 -1.067e-05 0)
(0.000712 -1.579e-05 0)
(0.0007179 -2.092e-05 0)
(0.0007255 -2.611e-05 0)
(0.0007347 -3.138e-05 0)
(0.0007455 -3.677e-05 0)
(0.0007581 -4.228e-05 0)
(0.0007725 -4.794e-05 0)
(0.0007886 -5.375e-05 0)
(0.0008065 -5.971e-05 0)
(0.0008264 -6.58e-05 0)
(0.0008481 -7.2e-05 0)
(0.0008717 -7.828e-05 0)
(0.0008973 -8.458e-05 0)
(0.0009249 -9.085e-05 0)
(0.0009543 -9.699e-05 0)
(0.0009856 -0.0001029 0)
(0.001019 -0.0001085 0)
(0.001053 -0.0001136 0)
(0.001089 -0.0001182 0)
(0.001127 -0.0001219 0)
(0.001165 -0.0001247 0)
(0.001204 -0.0001263 0)
(0.001244 -0.0001267 0)
(0.001283 -0.0001255 0)
(0.001322 -0.0001228 0)
(0.001359 -0.0001182 0)
(0.001395 -0.0001119 0)
(0.001428 -0.0001036 0)
(0.001459 -9.345e-05 0)
(0.001486 -8.157e-05 0)
(0.00151 -6.808e-05 0)
(0.001529 -5.325e-05 0)
(0.001543 -3.738e-05 0)
(0.001552 -2.081e-05 0)
(0.001556 -3.946e-06 0)
(0.001555 1.284e-05 0)
(0.001548 2.917e-05 0)
(0.001537 4.472e-05 0)
(0.001521 5.92e-05 0)
(0.0015 7.24e-05 0)
(0.001476 8.414e-05 0)
(0.001448 9.431e-05 0)
(0.001418 0.0001029 0)
(0.001385 0.0001098 0)
(0.00135 0.0001151 0)
(0.001314 0.0001189 0)
(0.001276 0.0001212 0)
(0.001238 0.0001222 0)
(0.0012 0.000122 0)
(0.001162 0.0001206 0)
(0.001125 0.0001184 0)
(0.001089 0.0001153 0)
(0.001053 0.0001115 0)
(0.001019 0.0001072 0)
(0.0009858 0.0001025 0)
(0.0009543 9.747e-05 0)
(0.0009244 9.226e-05 0)
(0.000896 8.695e-05 0)
(0.0008694 8.161e-05 0)
(0.0008443 7.632e-05 0)
(0.0008208 7.112e-05 0)
(0.000799 6.606e-05 0)
(0.0007787 6.118e-05 0)
(0.0007598 5.65e-05 0)
(0.0007424 5.205e-05 0)
(0.0007264 4.783e-05 0)
(0.0007116 4.385e-05 0)
(0.000698 4.012e-05 0)
(0.0006856 3.663e-05 0)
(0.0006742 3.338e-05 0)
(0.0006638 3.037e-05 0)
(0.0006544 2.758e-05 0)
(0.0006458 2.501e-05 0)
(0.000638 2.264e-05 0)
(0.0006309 2.046e-05 0)
(0.0006245 1.847e-05 0)
(0.0006187 1.664e-05 0)
(0.0006134 1.498e-05 0)
(0.0006087 1.347e-05 0)
(0.0006044 1.209e-05 0)
(0.0006006 1.084e-05 0)
(0.0005971 9.715e-06 0)
(0.0005941 8.698e-06 0)
(0.0005913 7.785e-06 0)
(0.0005888 6.969e-06 0)
(0.0005866 6.244e-06 0)
(0.0005845 5.605e-06 0)
(0.0005827 5.048e-06 0)
(0.0005811 4.571e-06 0)
(0.0005797 4.172e-06 0)
(0.0005783 3.848e-06 0)
(0.0005771 3.601e-06 0)
(0.000576 3.428e-06 0)
(0.0005749 3.327e-06 0)
(0.000574 3.295e-06 0)
(0.0005731 3.319e-06 0)
(0.0005722 3.377e-06 0)
(0.0005714 3.427e-06 0)
(0.00121 0.0001279 0)
(0.001237 0.0003009 0)
(0.001266 0.000396 0)
(0.001284 0.0004325 0)
(0.001286 0.0004319 0)
(0.001273 0.0004101 0)
(0.001249 0.0003778 0)
(0.001217 0.0003416 0)
(0.001181 0.0003052 0)
(0.001143 0.0002707 0)
(0.001105 0.000239 0)
(0.001068 0.0002102 0)
(0.001034 0.0001845 0)
(0.001002 0.0001616 0)
(0.0009722 0.0001412 0)
(0.0009455 0.000123 0)
(0.0009215 0.0001068 0)
(0.0009002 9.231e-05 0)
(0.0008814 7.924e-05 0)
(0.0008651 6.742e-05 0)
(0.0008511 5.665e-05 0)
(0.0008393 4.678e-05 0)
(0.0008297 3.766e-05 0)
(0.000822 2.916e-05 0)
(0.0008163 2.117e-05 0)
(0.0008124 1.358e-05 0)
(0.0008103 6.305e-06 0)
(0.00081 -7.432e-07 0)
(0.0008114 -7.637e-06 0)
(0.0008146 -1.444e-05 0)
(0.0008195 -2.122e-05 0)
(0.0008261 -2.803e-05 0)
(0.0008344 -3.491e-05 0)
(0.0008445 -4.191e-05 0)
(0.0008565 -4.905e-05 0)
(0.0008702 -5.636e-05 0)
(0.0008859 -6.386e-05 0)
(0.0009035 -7.156e-05 0)
(0.0009232 -7.945e-05 0)
(0.0009448 -8.752e-05 0)
(0.0009685 -9.572e-05 0)
(0.0009943 -0.000104 0)
(0.001022 -0.0001124 0)
(0.001052 -0.0001206 0)
(0.001084 -0.0001287 0)
(0.001118 -0.0001366 0)
(0.001154 -0.0001439 0)
(0.001192 -0.0001507 0)
(0.001232 -0.0001567 0)
(0.001273 -0.0001616 0)
(0.001315 -0.0001653 0)
(0.001357 -0.0001675 0)
(0.0014 -0.000168 0)
(0.001443 -0.0001665 0)
(0.001486 -0.0001628 0)
(0.001527 -0.0001568 0)
(0.001566 -0.0001484 0)
(0.001603 -0.0001375 0)
(0.001637 -0.0001241 0)
(0.001667 -0.0001083 0)
(0.001693 -9.044e-05 0)
(0.001714 -7.076e-05 0)
(0.001729 -4.969e-05 0)
(0.001739 -2.771e-05 0)
(0.001744 -5.32e-06 0)
(0.001742 1.695e-05 0)
(0.001735 3.862e-05 0)
(0.001722 5.923e-05 0)
(0.001705 7.843e-05 0)
(0.001682 9.591e-05 0)
(0.001656 0.0001115 0)
(0.001625 0.000125 0)
(0.001592 0.0001363 0)
(0.001556 0.0001455 0)
(0.001517 0.0001526 0)
(0.001478 0.0001576 0)
(0.001437 0.0001607 0)
(0.001395 0.0001621 0)
(0.001354 0.0001618 0)
(0.001312 0.0001601 0)
(0.001272 0.0001571 0)
(0.001232 0.000153 0)
(0.001193 0.0001481 0)
(0.001155 0.0001424 0)
(0.001119 0.0001362 0)
(0.001085 0.0001296 0)
(0.001052 0.0001228 0)
(0.001021 0.0001158 0)
(0.0009919 0.0001087 0)
(0.0009645 0.0001017 0)
(0.0009388 9.484e-05 0)
(0.0009149 8.815e-05 0)
(0.0008926 8.169e-05 0)
(0.0008719 7.549e-05 0)
(0.0008528 6.958e-05 0)
(0.0008352 6.399e-05 0)
(0.000819 5.871e-05 0)
(0.000804 5.375e-05 0)
(0.0007903 4.912e-05 0)
(0.0007778 4.479e-05 0)
(0.0007664 4.078e-05 0)
(0.0007559 3.706e-05 0)
(0.0007464 3.363e-05 0)
(0.0007378 3.047e-05 0)
(0.0007299 2.756e-05 0)
(0.0007228 2.49e-05 0)
(0.0007164 2.246e-05 0)
(0.0007106 2.023e-05 0)
(0.0007053 1.82e-05 0)
(0.0007006 1.636e-05 0)
(0.0006963 1.468e-05 0)
(0.0006925 1.316e-05 0)
(0.000689 1.18e-05 0)
(0.0006859 1.057e-05 0)
(0.0006831 9.464e-06 0)
(0.0006806 8.482e-06 0)
(0.0006784 7.615e-06 0)
(0.0006764 6.855e-06 0)
(0.0006745 6.2e-06 0)
(0.0006729 5.644e-06 0)
(0.0006714 5.185e-06 0)
(0.0006701 4.821e-06 0)
(0.0006689 4.549e-06 0)
(0.0006677 4.366e-06 0)
(0.0006667 4.263e-06 0)
(0.0006657 4.23e-06 0)
(0.0006648 4.243e-06 0)
(0.000664 4.268e-06 0)
(0.001208 0.0001098 0)
(0.00123 0.0002699 0)
(0.001258 0.0003696 0)
(0.00128 0.000419 0)
(0.001292 0.0004327 0)
(0.001291 0.0004233 0)
(0.001279 0.0004004 0)
(0.001259 0.0003705 0)
(0.001234 0.0003377 0)
(0.001206 0.0003047 0)
(0.001176 0.0002729 0)
(0.001145 0.0002432 0)
(0.001116 0.0002158 0)
(0.001087 0.0001907 0)
(0.001061 0.000168 0)
(0.001037 0.0001474 0)
(0.001014 0.0001287 0)
(0.0009943 0.0001118 0)
(0.0009765 9.634e-05 0)
(0.0009609 8.223e-05 0)
(0.0009474 6.928e-05 0)
(0.0009361 5.731e-05 0)
(0.0009267 4.617e-05 0)
(0.0009193 3.572e-05 0)
(0.0009138 2.584e-05 0)
(0.0009102 1.642e-05 0)
(0.0009084 7.347e-06 0)
(0.0009084 -1.468e-06 0)
(0.0009101 -1.011e-05 0)
(0.0009137 -1.867e-05 0)
(0.000919 -2.72e-05 0)
(0.0009261 -3.578e-05 0)
(0.0009351 -4.446e-05 0)
(0.0009459 -5.329e-05 0)
(0.0009586 -6.23e-05 0)
(0.0009732 -7.153e-05 0)
(0.0009899 -8.1e-05 0)
(0.001009 -9.072e-05 0)
(0.001029 -0.0001007 0)
(0.001052 -0.0001108 0)
(0.001077 -0.0001212 0)
(0.001105 -0.0001317 0)
(0.001134 -0.0001422 0)
(0.001166 -0.0001526 0)
(0.0012 -0.0001628 0)
(0.001236 -0.0001727 0)
(0.001274 -0.000182 0)
(0.001315 -0.0001906 0)
(0.001356 -0.0001981 0)
(0.0014 -0.0002044 0)
(0.001445 -0.0002091 0)
(0.00149 -0.0002119 0)
(0.001536 -0.0002126 0)
(0.001582 -0.0002108 0)
(0.001627 -0.0002062 0)
(0.001672 -0.0001987 0)
(0.001714 -0.0001881 0)
(0.001754 -0.0001743 0)
(0.00179 -0.0001574 0)
(0.001823 -0.0001375 0)
(0.00185 -0.0001148 0)
(0.001873 -8.988e-05 0)
(0.00189 -6.313e-05 0)
(0.001901 -3.522e-05 0)
(0.001905 -6.787e-06 0)
(0.001904 2.148e-05 0)
(0.001896 4.896e-05 0)
(0.001882 7.508e-05 0)
(0.001863 9.938e-05 0)
(0.001839 0.0001215 0)
(0.00181 0.0001412 0)
(0.001778 0.0001582 0)
(0.001742 0.0001725 0)
(0.001703 0.0001842 0)
(0.001662 0.0001931 0)
(0.00162 0.0001995 0)
(0.001576 0.0002034 0)
(0.001532 0.0002051 0)
(0.001487 0.0002048 0)
(0.001443 0.0002026 0)
(0.0014 0.0001988 0)
(0.001357 0.0001937 0)
(0.001316 0.0001875 0)
(0.001276 0.0001804 0)
(0.001238 0.0001726 0)
(0.001201 0.0001643 0)
(0.001167 0.0001556 0)
(0.001134 0.0001468 0)
(0.001103 0.0001379 0)
(0.001073 0.0001291 0)
(0.001046 0.0001204 0)
(0.001021 0.000112 0)
(0.0009971 0.0001038 0)
(0.0009751 9.599e-05 0)
(0.0009548 8.853e-05 0)
(0.000936 8.146e-05 0)
(0.0009187 7.478e-05 0)
(0.0009028 6.851e-05 0)
(0.0008882 6.264e-05 0)
(0.0008748 5.716e-05 0)
(0.0008626 5.208e-05 0)
(0.0008515 4.736e-05 0)
(0.0008413 4.3e-05 0)
(0.000832 3.899e-05 0)
(0.0008236 3.529e-05 0)
(0.000816 3.19e-05 0)
(0.0008091 2.88e-05 0)
(0.0008029 2.596e-05 0)
(0.0007972 2.338e-05 0)
(0.0007921 2.102e-05 0)
(0.0007875 1.888e-05 0)
(0.0007834 1.695e-05 0)
(0.0007796 1.52e-05 0)
(0.0007763 1.362e-05 0)
(0.0007733 1.22e-05 0)
(0.0007706 1.094e-05 0)
(0.0007682 9.822e-06 0)
(0.000766 8.837e-06 0)
(0.000764 7.982e-06 0)
(0.0007623 7.249e-06 0)
(0.0007607 6.636e-06 0)
(0.0007593 6.137e-06 0)
(0.000758 5.749e-06 0)
(0.0007568 5.465e-06 0)
(0.0007557 5.278e-06 0)
(0.0007547 5.175e-06 0)
(0.0007538 5.137e-06 0)
(0.0007529 5.134e-06 0)
(0.001206 9.578e-05 0)
(0.001225 0.000243 0)
(0.001251 0.0003426 0)
(0.001275 0.0003998 0)
(0.001291 0.0004242 0)
(0.001298 0.0004255 0)
(0.001297 0.0004116 0)
(0.001287 0.0003884 0)
(0.001272 0.0003604 0)
(0.001252 0.0003302 0)
(0.00123 0.0002998 0)
(0.001206 0.0002703 0)
(0.001182 0.0002423 0)
(0.001158 0.0002161 0)
(0.001136 0.0001918 0)
(0.001115 0.0001694 0)
(0.001095 0.0001487 0)
(0.001077 0.0001298 0)
(0.001061 0.0001123 0)
(0.001046 9.616e-05 0)
(0.001034 8.12e-05 0)
(0.001023 6.727e-05 0)
(0.001015 5.421e-05 0)
(0.001008 4.188e-05 0)
(0.001003 3.016e-05 0)
(0.0009998 1.893e-05 0)
(0.0009984 8.065e-06 0)
(0.0009987 -2.527e-06 0)
(0.001001 -1.295e-05 0)
(0.001005 -2.328e-05 0)
(0.00101 -3.361e-05 0)
(0.001018 -4.401e-05 0)
(0.001027 -5.454e-05 0)
(0.001039 -6.525e-05 0)
(0.001052 -7.621e-05 0)
(0.001067 -8.743e-05 0)
(0.001084 -9.895e-05 0)
(0.001103 -0.0001108 0)
(0.001125 -0.0001229 0)
(0.001149 -0.0001352 0)
(0.001174 -0.0001478 0)
(0.001203 -0.0001606 0)
(0.001233 -0.0001734 0)
(0.001266 -0.0001861 0)
(0.001301 -0.0001986 0)
(0.001339 -0.0002106 0)
(0.001378 -0.000222 0)
(0.00142 -0.0002325 0)
(0.001464 -0.0002418 0)
(0.001509 -0.0002495 0)
(0.001556 -0.0002553 0)
(0.001603 -0.0002589 0)
(0.001651 -0.0002598 0)
(0.0017 -0.0002578 0)
(0.001747 -0.0002524 0)
(0.001794 -0.0002433 0)
(0.001839 -0.0002305 0)
(0.001881 -0.0002138 0)
(0.001919 -0.0001931 0)
(0.001954 -0.0001688 0)
(0.001984 -0.000141 0)
(0.002008 -0.0001104 0)
(0.002026 -7.753e-05 0)
(0.002037 -4.321e-05 0)
(0.002042 -8.282e-06 0)
(0.00204 2.643e-05 0)
(0.002032 6.013e-05 0)
(0.002017 9.213e-05 0)
(0.001997 0.0001219 0)
(0.001971 0.0001489 0)
(0.001941 0.0001729 0)
(0.001906 0.0001936 0)
(0.001868 0.0002111 0)
(0.001827 0.0002252 0)
(0.001784 0.000236 0)
(0.00174 0.0002437 0)
(0.001694 0.0002485 0)
(0.001648 0.0002505 0)
(0.001601 0.0002501 0)
(0.001555 0.0002474 0)
(0.00151 0.0002428 0)
(0.001466 0.0002366 0)
(0.001423 0.000229 0)
(0.001381 0.0002203 0)
(0.001341 0.0002108 0)
(0.001303 0.0002006 0)
(0.001267 0.0001901 0)
(0.001233 0.0001793 0)
(0.001201 0.0001685 0)
(0.001171 0.0001578 0)
(0.001143 0.0001472 0)
(0.001116 0.000137 0)
(0.001092 0.000127 0)
(0.001069 0.0001175 0)
(0.001048 0.0001084 0)
(0.001029 9.98e-05 0)
(0.001011 9.166e-05 0)
(0.0009941 8.402e-05 0)
(0.0009789 7.686e-05 0)
(0.0009651 7.018e-05 0)
(0.0009524 6.397e-05 0)
(0.0009408 5.821e-05 0)
(0.0009302 5.289e-05 0)
(0.0009206 4.798e-05 0)
(0.0009119 4.346e-05 0)
(0.0009039 3.931e-05 0)
(0.0008967 3.551e-05 0)
(0.0008902 3.203e-05 0)
(0.0008843 2.886e-05 0)
(0.000879 2.597e-05 0)
(0.0008741 2.334e-05 0)
(0.0008698 2.096e-05 0)
(0.0008659 1.881e-05 0)
(0.0008624 1.686e-05 0)
(0.0008593 1.512e-05 0)
(0.0008564 1.356e-05 0)
(0.0008539 1.217e-05 0)
(0.0008516 1.094e-05 0)
(0.0008496 9.872e-06 0)
(0.0008477 8.948e-06 0)
(0.0008461 8.164e-06 0)
(0.0008446 7.516e-06 0)
(0.0008433 6.997e-06 0)
(0.0008421 6.6e-06 0)
(0.000841 6.317e-06 0)
(0.00084 6.137e-06 0)
(0.000839 6.041e-06 0)
(0.0008381 6.009e-06 0)
(0.001205 8.463e-05 0)
(0.001221 0.0002196 0)
(0.001244 0.0003166 0)
(0.001268 0.0003779 0)
(0.001288 0.0004099 0)
(0.001301 0.0004197 0)
(0.001306 0.0004137 0)
(0.001305 0.0003973 0)
(0.001297 0.0003743 0)
(0.001286 0.0003478 0)
(0.001271 0.0003196 0)
(0.001254 0.0002913 0)
(0.001235 0.0002636 0)
(0.001217 0.000237 0)
(0.001198 0.0002119 0)
(0.001181 0.0001883 0)
(0.001164 0.0001662 0)
(0.001148 0.0001457 0)
(0.001134 0.0001266 0)
(0.001122 0.0001087 0)
(0.001111 9.199e-05 0)
(0.001102 7.63e-05 0)
(0.001094 6.147e-05 0)
(0.001088 4.74e-05 0)
(0.001084 3.394e-05 0)
(0.001081 2.097e-05 0)
(0.00108 8.376e-06 0)
(0.001081 -3.949e-06 0)
(0.001083 -1.611e-05 0)
(0.001088 -2.82e-05 0)
(0.001094 -4.032e-05 0)
(0.001101 -5.253e-05 0)
(0.001111 -6.492e-05 0)
(0.001122 -7.755e-05 0)
(0.001136 -9.046e-05 0)
(0.001151 -0.0001037 0)
(0.001168 -0.0001173 0)
(0.001188 -0.0001312 0)
(0.00121 -0.0001455 0)
(0.001233 -0.0001602 0)
(0.00126 -0.000175 0)
(0.001288 -0.0001901 0)
(0.001319 -0.0002053 0)
(0.001352 -0.0002203 0)
(0.001388 -0.0002352 0)
(0.001426 -0.0002495 0)
(0.001466 -0.0002631 0)
(0.001509 -0.0002756 0)
(0.001553 -0.0002867 0)
(0.0016 -0.000296 0)
(0.001647 -0.0003031 0)
(0.001696 -0.0003076 0)
(0.001746 -0.000309 0)
(0.001796 -0.0003068 0)
(0.001845 -0.0003006 0)
(0.001894 -0.0002901 0)
(0.00194 -0.0002751 0)
(0.001984 -0.0002553 0)
(0.002025 -0.0002308 0)
(0.002061 -0.0002018 0)
(0.002092 -0.0001687 0)
(0.002118 -0.0001321 0)
(0.002137 -9.271e-05 0)
(0.002149 -5.159e-05 0)
(0.002154 -9.731e-06 0)
(0.002151 3.182e-05 0)
(0.002142 7.209e-05 0)
(0.002127 0.0001103 0)
(0.002105 0.0001456 0)
(0.002078 0.0001777 0)
(0.002047 0.0002062 0)
(0.002011 0.0002308 0)
(0.001971 0.0002514 0)
(0.001929 0.000268 0)
(0.001884 0.0002808 0)
(0.001838 0.0002898 0)
(0.001791 0.0002954 0)
(0.001743 0.0002977 0)
(0.001696 0.000297 0)
(0.001648 0.0002937 0)
(0.001602 0.0002882 0)