/*--------------------------------*- C++ -*----------------------------------*\
  =========                 |
  \\      /  F ield         | OpenFOAM: The Open Source CFD Toolbox
   \\    /   O peration     | Website:  https://openfoam.org
    \\  /    A nd           | Version:  7
     \\/     M anipulation  |
\*---------------------------------------------------------------------------*/
FoamFile
{
    version     2.0;
    format      ascii;
    class       volScalarField;
    location    "2579.99947344456314";
    object      Y.K;
}
// * * * * * * * * * * * * * * * * * * * * * * * * * * * * * * * * * * * * * //

dimensions      [0 0 0 0 0 0 0];

internalField   nonuniform List<scalar> 
4096
(
4.88e-75
4.37e-73
-1.545e-73
2.196e-73
-7.708e-74
-1.872e-73
8.5e-74
6.427e-74
-4.418e-74
2.349e-73
-2.513e-72
3.764e-71
-5.423e-70
8.047e-69
-1.079e-67
1.388e-66
-1.665e-65
1.914e-64
-2.071e-63
2.159e-62
-2.117e-61
2.013e-60
-1.859e-59
1.655e-58
-1.409e-57
1.175e-56
-9.49e-56
7.586e-55
-5.681e-54
4.331e-53
-3.339e-52
2.593e-51
-1.992e-50
1.529e-49
-1.154e-48
8.607e-48
-6.209e-47
4.283e-46
-2.841e-45
1.804e-44
-1.063e-43
5.713e-43
-2.669e-42
9.655e-42
-1.345e-41
-2.204e-40
2.976e-39
-2.533e-38
1.785e-37
-1.095e-36
6.235e-36
-3.234e-35
1.541e-34
-6.817e-34
2.844e-33
-1.1e-32
4.237e-32
-1.443e-31
5.252e-31
-1.273e-30
5.427e-30
5.13e-31
4.054e-29
3.74e-28
5.389e-29
4.668e-27
1.448e-26
3.538e-26
4.999e-26
4.354e-25
1.321e-24
2.787e-24
2.136e-23
5.689e-23
1.453e-22
1.088e-21
3.496e-21
4.352e-20
1.02e-18
2.963e-18
6.066e-18
1.076e-17
1.768e-17
2.773e-17
4.213e-17
6.246e-17
9.079e-17
1.298e-16
1.827e-16
2.54e-16
3.488e-16
4.736e-16
6.366e-16
8.476e-16
1.119e-15
1.464e-15
1.901e-15
2.451e-15
3.138e-15
3.993e-15
5.049e-15
6.349e-15
7.941e-15
9.882e-15
1.224e-14
1.509e-14
1.852e-14
2.264e-14
2.757e-14
3.345e-14
4.043e-14
4.871e-14
5.85e-14
7.004e-14
8.36e-14
9.949e-14
1.181e-13
1.398e-13
1.65e-13
1.944e-13
2.283e-13
2.675e-13
3.124e-13
3.637e-13
4.212e-13
4.837e-13
5.467e-13
5.97e-13
-1.452e-72
7.685e-72
-1.004e-71
1.59e-72
7.666e-72
-7.141e-72
1.87e-73
4.458e-72
-1.323e-72
1.306e-71
-1.501e-70
2.073e-69
-3.147e-68
4.514e-67
-6.104e-66
7.782e-65
-9.372e-64
1.068e-62
-1.157e-61
1.193e-60
-1.178e-59
1.116e-58
-1.018e-57
8.973e-57
-7.663e-56
6.353e-55
-5.116e-54
4.027e-53
-3.007e-52
2.288e-51
-1.761e-50
1.362e-49
-1.052e-48
8.059e-48
-6.082e-47
4.493e-46
-3.227e-45
2.238e-44
-1.486e-43
9.362e-43
-5.518e-42
2.978e-41
-1.409e-40
5.296e-40
-9.584e-40
-9.453e-39
1.36e-37
-1.182e-36
8.536e-36
-5.263e-35
2.959e-34
-1.534e-33
7.292e-33
-3.213e-32
1.357e-31
-5.228e-31
1.997e-30
-6.679e-30
2.52e-29
-5.718e-29
2.768e-28
1.125e-28
2.502e-27
1.925e-26
1.164e-26
2.43e-25
7.864e-25
1.867e-24
3.087e-24
2.208e-23
6.663e-23
1.454e-22
9.674e-22
2.587e-21
6.205e-21
4.029e-20
1.016e-19
2.424e-19
1.738e-18
4.342e-18
8.189e-18
1.382e-17
2.2e-17
3.373e-17
5.034e-17
7.356e-17
1.056e-16
1.493e-16
2.083e-16
2.87e-16
3.911e-16
5.274e-16
7.046e-16
9.328e-16
1.225e-15
1.596e-15
2.064e-15
2.651e-15
3.384e-15
4.292e-15
5.414e-15
6.791e-15
8.476e-15
1.053e-14
1.301e-14
1.602e-14
1.963e-14
2.397e-14
2.915e-14
3.533e-14
4.267e-14
5.136e-14
6.163e-14
7.372e-14
8.793e-14
1.046e-13
1.24e-13
1.468e-13
1.732e-13
2.038e-13
2.393e-13
2.804e-13
3.275e-13
3.816e-13
4.429e-13
5.115e-13
5.855e-13
6.571e-13
3.247e-71
-2.268e-70
5.8e-70
-8.086e-70
5.982e-70
-1.059e-70
-2.335e-70
2.198e-70
1.611e-71
7.081e-70
-8.348e-69
1.12e-67
-1.705e-66
2.449e-65
-3.311e-64
4.213e-63
-5.056e-62
5.739e-61
-6.179e-60
6.337e-59
-6.214e-58
5.847e-57
-5.298e-56
4.636e-55
-3.93e-54
3.233e-53
-2.584e-52
2.015e-51
-1.5e-50
1.137e-49
-8.721e-49
6.725e-48
-5.181e-47
3.959e-46
-2.982e-45
2.2e-44
-1.578e-43
1.094e-42
-7.274e-42
4.594e-41
-2.722e-40
1.485e-39
-7.196e-39
2.867e-38
-6.964e-38
-2.816e-37
5.316e-36
-4.931e-35
3.665e-34
-2.279e-33
1.29e-32
-6.731e-32
3.204e-31
-1.41e-30
6e-30
-2.291e-29
8.835e-29
-2.88e-28
1.142e-27
-2.274e-27
1.394e-26
1.17e-26
1.57e-25
9.751e-25
1.179e-24
1.304e-23
4.219e-23
9.473e-23
1.894e-22
1.11e-21
3.237e-21
7.27e-21
4.041e-20
1.057e-19
2.348e-19
1.154e-18
2.764e-18
5.088e-18
8.64e-18
1.398e-17
2.179e-17
3.296e-17
4.865e-17
7.037e-17
1.001e-16
1.402e-16
1.938e-16
2.648e-16
3.581e-16
4.795e-16
6.365e-16
8.378e-16
1.095e-15
1.42e-15
1.829e-15
2.343e-15
2.982e-15
3.776e-15
4.755e-15
5.959e-15
7.432e-15
9.228e-15
1.141e-14
1.405e-14
1.723e-14
2.105e-14
2.563e-14
3.11e-14
3.761e-14
4.534e-14
5.449e-14
6.529e-14
7.801e-14
9.294e-14
1.104e-13
1.309e-13
1.547e-13
1.825e-13
2.147e-13
2.52e-13
2.951e-13
3.448e-13
4.02e-13
4.675e-13
5.424e-13
6.275e-13
7.239e-13
8.348e-13
-5.289e-70
4.213e-69
-1.511e-68
3.392e-68
-5.053e-68
5.037e-68
-3.08e-68
7.108e-69
3.671e-69
3.622e-68
-4.481e-67
5.756e-66
-8.769e-65
1.26e-63
-1.699e-62
2.153e-61
-2.569e-60
2.894e-59
-3.092e-58
3.144e-57
-3.055e-56
2.848e-55
-2.555e-54
2.214e-53
-1.857e-52
1.512e-51
-1.196e-50
9.222e-50
-6.823e-49
5.143e-48
-3.924e-47
3.013e-46
-2.312e-45
1.762e-44
-1.325e-43
9.765e-43
-7.007e-42
4.865e-41
-3.244e-40
2.061e-39
-1.234e-38
6.849e-38
-3.433e-37
1.464e-36
-4.521e-36
-1.043e-36
1.55e-34
-1.709e-33
1.349e-32
-8.567e-32
4.92e-31
-2.612e-30
1.25e-29
-5.5e-29
2.385e-28
-8.972e-28
3.533e-27
-1.095e-26
4.76e-26
-6.974e-26
6.698e-25
1.076e-24
9.539e-24
4.711e-23
9.17e-23
6.769e-22
2.121e-21
4.789e-21
1.02e-20
5.028e-20
1.372e-19
3.077e-19
1.261e-18
3.046e-18
5.709e-18
9.768e-18
1.583e-17
2.466e-17
3.722e-17
5.476e-17
7.889e-17
1.116e-16
1.553e-16
2.13e-16
2.885e-16
3.862e-16
5.118e-16
6.719e-16
8.748e-16
1.13e-15
1.451e-15
1.851e-15
2.347e-15
2.961e-15
3.718e-15
4.647e-15
5.784e-15
7.17e-15
8.856e-15
1.09e-14
1.337e-14
1.634e-14
1.991e-14
2.418e-14
2.929e-14
3.537e-14
4.26e-14
5.117e-14
6.13e-14
7.324e-14
8.729e-14
1.038e-13
1.231e-13
1.457e-13
1.72e-13
2.025e-13
2.38e-13
2.792e-13
3.267e-13
3.815e-13
4.446e-13
5.171e-13
6.001e-13
6.95e-13
8.033e-13
9.266e-13
1.068e-12
1.252e-12
7.394e-69
-6.392e-68
2.84e-67
-8.533e-67
1.828e-66
-2.875e-66
3.319e-66
-2.703e-66
1.386e-66
2.458e-66
-2.315e-65
2.835e-64
-4.303e-63
6.156e-62
-8.249e-61
1.037e-59
-1.225e-58
1.365e-57
-1.44e-56
1.446e-55
-1.387e-54
1.276e-53
-1.13e-52
9.66e-52
-7.992e-51
6.414e-50
-5.003e-49
3.8e-48
-2.786e-47
2.082e-46
-1.576e-45
1.202e-44
-9.175e-44
6.968e-43
-5.228e-42
3.851e-41
-2.767e-40
1.927e-39
-1.292e-38
8.285e-38
-5.031e-37
2.859e-36
-1.491e-35
6.886e-35
-2.605e-34
5.351e-34
1.79e-33
-4.456e-32
4.015e-31
-2.681e-30
1.581e-29
-8.69e-29
4.199e-28
-1.849e-27
8.354e-27
-3.049e-26
1.255e-25
-3.451e-25
1.79e-24
-7.508e-25
2.98e-23
7.724e-23
5.415e-22
2.095e-21
5.759e-21
3.14e-20
9.336e-20
2.079e-19
4.608e-19
1.701e-18
4.187e-18
8.084e-18
1.422e-17
2.361e-17
3.755e-17
5.763e-17
8.584e-17
1.246e-16
1.768e-16
2.458e-16
3.356e-16
4.51e-16
5.977e-16
7.821e-16
1.012e-15
1.298e-15
1.65e-15
2.081e-15
2.61e-15
3.253e-15
4.035e-15
4.983e-15
6.131e-15
7.516e-15
9.185e-15
1.119e-14
1.36e-14
1.649e-14
1.995e-14
2.407e-14
2.899e-14
3.483e-14
4.177e-14
4.999e-14
5.97e-14
7.117e-14
8.467e-14
1.005e-13
1.191e-13
1.409e-13
1.663e-13
1.96e-13
2.305e-13
2.705e-13
3.17e-13
3.707e-13
4.326e-13
5.04e-13
5.861e-13
6.803e-13
7.882e-13
9.115e-13
1.052e-12
1.212e-12
1.394e-12
1.6e-12
1.836e-12
2.166e-12
-9.404e-68
8.568e-67
-4.418e-66
1.636e-65
-4.529e-65
9.618e-65
-1.579e-64
1.98e-64
-1.838e-64
1.989e-64
-1.134e-63
1.346e-62
-2.019e-61
2.86e-60
-3.785e-59
4.688e-58
-5.451e-57
5.974e-56
-6.198e-55
6.116e-54
-5.765e-53
5.212e-52
-4.534e-51
3.807e-50
-3.093e-49
2.437e-48
-1.866e-47
1.39e-46
-1.005e-45
7.41e-45
-5.541e-44
4.182e-43
-3.168e-42
2.393e-41
-1.79e-40
1.318e-39
-9.487e-39
6.639e-38
-4.488e-37
2.912e-36
-1.8e-35
1.051e-34
-5.722e-34
2.845e-33
-1.244e-32
4.328e-32
-7.758e-32
-4.332e-31
8.302e-30
-6.59e-29
4.029e-28
-2.391e-27
1.173e-26
-5.124e-26
2.547e-25
-8.65e-25
3.936e-24
-7.676e-24
5.921e-23
6.71e-23
1.172e-21
4.622e-21
2.701e-20
9.411e-20
2.722e-19
1.094e-18
3.019e-18
6.554e-18
1.278e-17
2.34e-17
4.07e-17
6.768e-17
1.081e-16
1.665e-16
2.481e-16
3.589e-16
5.056e-16
6.953e-16
9.358e-16
1.236e-15
1.604e-15
2.052e-15
2.591e-15
3.236e-15
4.004e-15
4.915e-15
5.992e-15
7.265e-15
8.768e-15
1.054e-14
1.263e-14
1.51e-14
1.802e-14
2.146e-14
2.552e-14
3.031e-14
3.596e-14
4.263e-14
5.048e-14
5.972e-14
7.059e-14
8.336e-14
9.835e-14
1.159e-13
1.365e-13
1.605e-13
1.886e-13
2.213e-13
2.593e-13
3.035e-13
3.548e-13
4.141e-13
4.827e-13
5.619e-13
6.531e-13
7.58e-13
8.784e-13
1.016e-12
1.174e-12
1.354e-12
1.559e-12
1.793e-12
2.057e-12
2.357e-12
2.696e-12
3.078e-12
3.512e-12
4.148e-12
1.115e-66
-1.051e-65
6.042e-65
-2.628e-64
8.886e-64
-2.382e-63
5.091e-63
-8.589e-63
1.104e-62
-4.589e-63
-4.774e-62
6.117e-61
-9.051e-60
1.259e-58
-1.633e-57
1.979e-56
-2.249e-55
2.408e-54
-2.44e-53
2.353e-52
-2.168e-51
1.916e-50
-1.631e-49
1.34e-48
-1.064e-47
8.198e-47
-6.132e-46
4.458e-45
-3.161e-44
2.284e-43
-1.675e-42
1.244e-41
-9.298e-41
6.956e-40
-5.175e-39
3.803e-38
-2.743e-37
1.931e-36
-1.318e-35
8.673e-35
-5.472e-34
3.288e-33
-1.867e-32
9.89e-32
-4.81e-31
2.078e-30
-7.673e-30
1.72e-29
2.932e-29
-6.925e-28
6.895e-27
-4.99e-26
2.607e-25
-1.074e-24
6.821e-24
-1.914e-23
1.118e-22
-1.983e-23
1.614e-21
7.64e-21
5.359e-20
2.241e-19
1.028e-18
3.224e-18
7.965e-18
1.759e-17
3.597e-17
6.905e-17
1.253e-16
2.162e-16
3.558e-16
5.61e-16
8.503e-16
1.243e-15
1.758e-15
2.414e-15
3.226e-15
4.209e-15
5.377e-15
6.743e-15
8.32e-15
1.013e-14
1.218e-14
1.451e-14
1.716e-14
2.016e-14
2.356e-14
2.744e-14
3.187e-14
3.695e-14
4.278e-14
4.95e-14
5.726e-14
6.623e-14
7.664e-14
8.871e-14
1.027e-13
1.19e-13
1.38e-13
1.6e-13
1.856e-13
2.154e-13
2.5e-13
2.902e-13
3.367e-13
3.907e-13
4.532e-13
5.254e-13
6.088e-13
7.051e-13
8.159e-13
9.434e-13
1.09e-12
1.258e-12
1.45e-12
1.67e-12
1.921e-12
2.207e-12
2.532e-12
2.902e-12
3.321e-12
3.795e-12
4.33e-12
4.934e-12
5.613e-12
6.376e-12
7.23e-12
8.526e-12
-1.239e-65
1.193e-64
-7.449e-64
3.69e-63
-1.473e-62
4.8e-62
-1.278e-61
2.757e-61
-4.738e-61
7.029e-61
-2.546e-60
2.687e-59
-3.856e-58
5.221e-57
-6.574e-56
7.726e-55
-8.511e-54
8.833e-53
-8.685e-52
8.133e-51
-7.287e-50
6.271e-49
-5.199e-48
4.163e-47
-3.224e-46
2.419e-45
-1.761e-44
1.243e-43
-8.583e-43
6.025e-42
-4.294e-41
3.103e-40
-2.266e-39
1.665e-38
-1.224e-37
8.937e-37
-6.442e-36
4.555e-35
-3.14e-34
2.099e-33
-1.354e-32
8.382e-32
-4.951e-31
2.767e-30
-1.451e-29
7.069e-29
-3.144e-28
1.238e-27
-4.025e-27
7.763e-27
2.023e-26
-3.268e-25
3.856e-24
-1.046e-23
1.619e-22
-1.476e-22
3.222e-21
8.776e-21
8.328e-20
3.93e-19
1.94e-18
6.637e-18
1.804e-17
4.372e-17
9.766e-17
2.032e-16
3.961e-16
7.274e-16
1.263e-15
2.082e-15
3.268e-15
4.908e-15
7.074e-15
9.822e-15
1.318e-14
1.717e-14
2.175e-14
2.691e-14
3.261e-14
3.881e-14
4.549e-14
5.265e-14
6.032e-14
6.855e-14
7.743e-14
8.707e-14
9.76e-14
1.092e-13
1.221e-13
1.365e-13
1.527e-13
1.711e-13
1.919e-13
2.157e-13
2.428e-13
2.74e-13
3.098e-13
3.509e-13
3.982e-13
4.528e-13
5.155e-13
5.879e-13
6.712e-13
7.671e-13
8.774e-13
1.004e-12
1.15e-12
1.317e-12
1.509e-12
1.729e-12
1.981e-12
2.269e-12
2.597e-12
2.972e-12
3.398e-12
3.883e-12
4.433e-12
5.057e-12
5.763e-12
6.561e-12
7.461e-12
8.475e-12
9.614e-12
1.089e-11
1.232e-11
1.393e-11
1.57e-11
1.845e-11
1.276e-64
-1.242e-63
8.287e-63
-4.586e-62
2.121e-61
-8.225e-61
2.664e-60
-7.111e-60
1.508e-59
-1.98e-59
-6.649e-59
1.101e-57
-1.549e-56
2.016e-55
-2.438e-54
2.751e-53
-2.911e-52
2.906e-51
-2.753e-50
2.489e-49
-2.158e-48
1.801e-47
-1.451e-46
1.13e-45
-8.517e-45
6.218e-44
-4.399e-43
3.009e-42
-2.014e-41
1.362e-40
-9.312e-40
6.447e-39
-4.52e-38
3.204e-37
-2.289e-36
1.639e-35
-1.169e-34
8.257e-34
-5.733e-33
3.891e-32
-2.571e-31
1.646e-30
-1.013e-29
5.937e-29
-3.296e-28
1.723e-27
-8.457e-27
3.893e-26
-1.64e-25
6.497e-25
-2.204e-24
5.877e-24
2.612e-23
9.235e-23
2.806e-21
7.712e-21
1.002e-19
5.42e-19
2.995e-18
1.147e-17
3.517e-17
9.616e-17
2.411e-16
5.586e-16
1.202e-15
2.411e-15
4.525e-15
7.977e-15
1.326e-14
2.087e-14
3.121e-14
4.457e-14
6.1e-14
8.033e-14
1.022e-13
1.26e-13
1.513e-13
1.773e-13
2.036e-13
2.298e-13
2.559e-13
2.816e-13
3.074e-13
3.333e-13
3.599e-13
3.876e-13
4.169e-13
4.485e-13
4.83e-13
5.212e-13
5.639e-13
6.118e-13
6.661e-13
7.277e-13
7.979e-13
8.78e-13
9.695e-13
1.074e-12
1.194e-12
1.331e-12
1.489e-12
1.669e-12
1.875e-12
2.11e-12
2.38e-12
2.687e-12
3.039e-12
3.44e-12
3.897e-12
4.418e-12
5.01e-12
5.683e-12
6.447e-12
7.313e-12
8.294e-12
9.403e-12
1.066e-11
1.207e-11
1.366e-11
1.545e-11
1.746e-11
1.971e-11
2.223e-11
2.504e-11
2.818e-11
3.167e-11
3.55e-11
4.155e-11
-1.177e-63
1.147e-62
-8.082e-62
4.961e-61
-2.642e-60
1.213e-59
-4.747e-59
1.564e-58
-4.291e-58
1.175e-57
-4.573e-57
4.409e-56
-5.758e-55
7.126e-54
-8.184e-53
8.77e-52
-8.826e-51
8.401e-50
-7.616e-49
6.613e-48
-5.527e-47
4.462e-46
-3.487e-45
2.642e-44
-1.942e-43
1.384e-42
-9.553e-42
6.362e-41
-4.138e-40
2.693e-39
-1.754e-38
1.146e-37
-7.538e-37
5.001e-36
-3.353e-35
2.272e-34
-1.553e-33
1.067e-32
-7.321e-32
5.001e-31
-3.39e-30
2.27e-29
-1.469e-28
9.157e-28
-5.369e-27
2.935e-26
-1.504e-25
7.387e-25
-3.326e-24
1.565e-23
-6.353e-23
2.766e-22
3.407e-22
9.132e-21
7.016e-20
5.296e-19
3.5e-18
1.532e-17
5.436e-17
1.722e-16
4.981e-16
1.322e-15
3.23e-15
7.28e-15
1.518e-14
2.94e-14
5.305e-14
8.96e-14
1.423e-13
2.133e-13
3.034e-13
4.112e-13
5.334e-13
6.652e-13
8.01e-13
9.347e-13
1.061e-12
1.177e-12
1.281e-12
1.372e-12
1.45e-12
1.519e-12
1.58e-12
1.637e-12
1.691e-12
1.746e-12
1.804e-12
1.868e-12
1.941e-12
2.024e-12
2.119e-12
2.23e-12
2.359e-12
2.508e-12
2.68e-12
2.879e-12
3.108e-12
3.371e-12
3.674e-12
4.02e-12
4.416e-12
4.868e-12
5.384e-12
5.973e-12
6.643e-12
7.405e-12
8.271e-12
9.254e-12
1.037e-11
1.163e-11
1.306e-11
1.468e-11
1.65e-11
1.856e-11
2.088e-11
2.349e-11
2.643e-11
2.972e-11
3.341e-11
3.754e-11
4.216e-11
4.731e-11
5.304e-11
5.942e-11
6.65e-11
7.436e-11
8.287e-11
9.653e-11
8.837e-63
-8.459e-62
6.293e-61
-4.356e-60
2.725e-59
-1.501e-58
7.139e-58
-2.868e-57
9.313e-57
-9.487e-57
-9.002e-56
1.512e-54
-1.95e-53
2.257e-52
-2.424e-51
2.435e-50
-2.305e-49
2.073e-48
-1.786e-47
1.482e-46
-1.19e-45
9.278e-45
-7.038e-44
5.2e-43
-3.742e-42
2.62e-41
-1.782e-40
1.171e-39
-7.521e-39
4.789e-38
-3.018e-37
1.881e-36
-1.16e-35
7.086e-35
-4.299e-34
2.602e-33
-1.58e-32
9.682e-32
-6.019e-31
3.798e-30
-2.424e-29
1.547e-28
-1.016e-27
6.371e-27
-3.715e-26
2.136e-25
-1.188e-24
6.576e-24
-2.808e-23
1.977e-22
-7.781e-22
3.707e-21
3.611e-20
3.597e-19
2.853e-18
1.464e-17
6.153e-17
2.315e-16
7.922e-16
2.473e-15
7.054e-15
1.839e-14
4.392e-14
9.627e-14
1.942e-13
3.621e-13
6.267e-13
1.012e-12
1.531e-12
2.181e-12
2.943e-12
3.779e-12
4.636e-12
5.47e-12
6.224e-12
6.863e-12
7.366e-12
7.728e-12
7.965e-12
8.1e-12
8.142e-12
8.12e-12
8.066e-12
7.991e-12
7.911e-12
7.844e-12
7.788e-12
7.788e-12
7.813e-12
7.882e-12
8e-12
8.177e-12
8.416e-12
8.72e-12
9.097e-12
9.552e-12
1.009e-11
1.073e-11
1.147e-11
1.233e-11
1.332e-11
1.446e-11
1.575e-11
1.723e-11
1.891e-11
2.082e-11
2.298e-11
2.543e-11
2.819e-11
3.131e-11
3.482e-11
3.878e-11
4.323e-11
4.822e-11
5.382e-11
6.009e-11
6.711e-11
7.495e-11
8.37e-11
9.344e-11
1.043e-10
1.163e-10
1.297e-10
1.445e-10
1.608e-10
1.789e-10
1.983e-10
2.298e-10
-3.474e-62
2.85e-61
-2.325e-60
2.14e-59
-1.895e-58
1.412e-57
-8.848e-57
4.654e-56
-2.147e-55
1.012e-54
-5.799e-54
5.262e-53
-5.79e-52
6.149e-51
-6.079e-50
5.63e-49
-4.945e-48
4.162e-47
-3.383e-46
2.671e-45
-2.056e-44
1.547e-43
-1.14e-42
8.228e-42
-5.822e-41
4.034e-40
-2.734e-39
1.803e-38
-1.17e-37
7.509e-37
-4.757e-36
2.965e-35
-1.813e-34
1.083e-33
-6.299e-33
3.553e-32
-1.932e-31
1.007e-30
-5.006e-30
2.365e-29
-1.062e-28
4.643e-28
-2.457e-27
1.236e-26
-3.667e-26
9.22e-26
-9.302e-26
2.587e-24
8.842e-23
7.899e-22
-5.379e-22
1.388e-19
1.499e-18
9.32e-18
4.746e-17
2.162e-16
8.945e-16
3.363e-15
1.148e-14
3.561e-14
1.003e-13
2.566e-13
5.979e-13
1.271e-12
2.474e-12
4.429e-12
7.329e-12
1.127e-11
1.62e-11
2.189e-11
2.795e-11
3.395e-11
3.931e-11
4.387e-11
4.702e-11
4.893e-11
4.959e-11
4.921e-11
4.818e-11
4.659e-11
4.462e-11
4.248e-11
4.032e-11
3.824e-11
3.634e-11
3.465e-11
3.32e-11
3.202e-11
3.109e-11
3.042e-11
2.999e-11
2.985e-11
2.997e-11
3.03e-11
3.089e-11
3.176e-11
3.29e-11
3.433e-11
3.606e-11
3.812e-11
4.054e-11
4.335e-11
4.658e-11
5.028e-11
5.451e-11
5.93e-11
6.473e-11
7.087e-11
7.778e-11
8.556e-11
9.43e-11
1.041e-10
1.151e-10
1.274e-10
1.411e-10
1.564e-10
1.734e-10
1.924e-10
2.134e-10
2.368e-10
2.627e-10
2.914e-10
3.23e-10
3.579e-10
3.963e-10
4.387e-10
4.837e-10
5.573e-10
-4.221e-61
5.013e-60
-3.568e-59
1.737e-58
3.671e-59
-5.066e-57
6.026e-56
-4.638e-55
2.362e-54
-1.888e-54
-7.955e-53
1.28e-51
-1.426e-50
1.36e-49
-1.195e-48
9.966e-48
-8.019e-47
6.276e-46
-4.801e-45
3.601e-44
-2.654e-43
1.926e-42
-1.377e-41
9.708e-41
-6.756e-40
4.64e-39
-3.144e-38
2.098e-37
-1.391e-36
9.17e-36
-6.003e-35
3.893e-34
-2.494e-33
1.574e-32
-9.768e-32
5.937e-31
-3.508e-30
2.004e-29
-1.099e-28
5.737e-28
-2.793e-27
1.266e-26
-5.267e-26
1.232e-25
1.28e-25
-4.675e-24
4.713e-23
-3.304e-22
4.019e-21
-1.685e-21
2.907e-19
3.404e-18
2.32e-17
1.313e-16
6.671e-16
3.073e-15
1.282e-14
4.841e-14
1.651e-13
5.078e-13
1.41e-12
3.535e-12
8.015e-12
1.649e-11
3.085e-11
5.283e-11
8.331e-11
1.217e-10
1.657e-10
2.117e-10
2.554e-10
2.928e-10
3.191e-10
3.374e-10
3.373e-10
3.318e-10
3.194e-10
3.015e-10
2.802e-10
2.576e-10
2.352e-10
2.139e-10
1.945e-10
1.771e-10
1.619e-10
1.489e-10
1.379e-10
1.287e-10
1.213e-10
1.153e-10
1.108e-10
1.075e-10
1.053e-10
1.04e-10
1.042e-10
1.05e-10
1.068e-10
1.095e-10
1.132e-10
1.179e-10
1.236e-10
1.303e-10
1.383e-10
1.474e-10
1.58e-10
1.7e-10
1.837e-10
1.991e-10
2.165e-10
2.36e-10
2.578e-10
2.823e-10
3.096e-10
3.401e-10
3.74e-10
4.117e-10
4.535e-10
4.999e-10
5.512e-10
6.079e-10
6.705e-10
7.395e-10
8.154e-10
8.988e-10
9.902e-10
1.091e-09
1.197e-09
1.371e-09
1.248e-59
-1.336e-58
1.018e-57
-6.552e-57
3.45e-56
-1.359e-55
-8.687e-56
4.328e-54
-5.558e-53
5.266e-52
-4.377e-51
3.442e-50
-2.654e-49
2.028e-48
-1.541e-47
1.164e-46
-8.701e-46
6.428e-45
-4.683e-44
3.364e-43
-2.383e-42
1.665e-41
-1.149e-40
7.841e-40
-5.298e-39
3.549e-38
-2.362e-37
1.561e-36
-1.034e-35
6.855e-35
-4.546e-34
3.009e-33
-1.984e-32
1.301e-31
-8.5e-31
5.534e-30
-3.531e-29
2.204e-28
-1.354e-27
8.16e-27
-4.817e-26
2.78e-25
-1.565e-24
8.582e-24
-4.543e-23
2.414e-22
-1.137e-21
6.918e-21
2.24e-20
5.545e-19
6.588e-18
4.911e-17
3.1e-16
1.766e-15
9.125e-15
4.265e-14
1.797e-13
6.809e-13
2.316e-12
7.06e-12
1.929e-11
4.727e-11
1.041e-10
2.063e-10
3.699e-10
6.037e-10
9.037e-10
1.249e-09
1.607e-09
1.935e-09
2.206e-09
2.378e-09
2.432e-09
2.394e-09
2.292e-09
2.136e-09
1.946e-09
1.742e-09
1.539e-09
1.349e-09
1.177e-09
1.026e-09
8.953e-10
7.849e-10
6.924e-10
6.157e-10
5.526e-10
5.011e-10
4.593e-10
4.258e-10
3.993e-10
3.787e-10
3.634e-10
3.525e-10
3.457e-10
3.423e-10
3.431e-10
3.464e-10
3.529e-10
3.624e-10
3.749e-10
3.907e-10
4.096e-10
4.32e-10
4.581e-10
4.88e-10
5.222e-10
5.609e-10
6.046e-10
6.536e-10
7.085e-10
7.698e-10
8.381e-10
9.141e-10
9.984e-10
1.092e-09
1.195e-09
1.309e-09
1.435e-09
1.574e-09
1.727e-09
1.894e-09
2.078e-09
2.279e-09
2.498e-09
2.739e-09
2.991e-09
3.406e-09
-1.88e-58
1.87e-57
-1.451e-56
1.045e-55
-6.99e-55
4.36e-54
-2.562e-53
1.444e-52
-8.085e-52
4.809e-51
-3.005e-50
2.148e-49
-1.701e-48
1.378e-47
-1.107e-46
8.687e-46
-6.626e-45
4.91e-44
-3.541e-43
2.491e-42
-1.713e-41
1.152e-40
-7.599e-40
4.913e-39
-3.114e-38
1.936e-37
-1.179e-36
7.037e-36
-4.186e-35
2.486e-34
-1.477e-33
8.787e-33
-5.248e-32
3.154e-31
-1.903e-30
1.164e-29
-7.073e-29
4.195e-28
-2.481e-27
1.46e-26
-8.534e-26
4.942e-25
-2.826e-24
1.602e-23
-8.558e-23
5.741e-22
-1.873e-21
7.861e-20
1.236e-18
1.119e-17
8.647e-17
6.082e-16
3.904e-15
2.276e-14
1.2e-13
5.691e-13
2.42e-12
9.199e-12
3.117e-11
9.405e-11
2.524e-10
6.03e-10
1.284e-09
2.446e-09
4.182e-09
6.477e-09
9.166e-09
1.195e-08
1.448e-08
1.641e-08
1.769e-08
1.76e-08
1.704e-08
1.593e-08
1.442e-08
1.272e-08
1.099e-08
9.361e-09
7.889e-09
6.611e-09
5.529e-09
4.631e-09
3.895e-09
3.299e-09
2.818e-09
2.431e-09
2.122e-09
1.875e-09
1.677e-09
1.52e-09
1.396e-09
1.298e-09
1.223e-09
1.166e-09
1.125e-09
1.098e-09
1.08e-09
1.08e-09
1.087e-09
1.102e-09
1.127e-09
1.162e-09
1.206e-09
1.259e-09
1.322e-09
1.396e-09
1.481e-09
1.578e-09
1.687e-09
1.81e-09
1.948e-09
2.102e-09
2.273e-09
2.463e-09
2.673e-09
2.905e-09
3.161e-09
3.444e-09
3.754e-09
4.095e-09
4.468e-09
4.877e-09
5.324e-09
5.811e-09
6.341e-09
6.921e-09
7.524e-09
8.52e-09
1.142e-57
-1.136e-56
8.908e-56
-6.629e-55
4.654e-54
-3.048e-53
1.822e-52
-9.504e-52
3.864e-51
-9.991e-52
-1.294e-49
1.828e-48
-1.866e-47
1.641e-46
-1.325e-45
1.011e-44
-7.398e-44
5.25e-43
-3.633e-42
2.463e-41
-1.64e-40
1.074e-39
-6.925e-39
4.396e-38
-2.745e-37
1.683e-36
-1.009e-35
5.953e-35
-3.458e-34
1.972e-33
-1.101e-32
5.978e-32
-3.136e-31
1.569e-30
-7.329e-30
3.048e-29
-1.001e-28
1.052e-28
2.186e-27
-2.852e-26
2.507e-25
-1.883e-24
1.292e-23
-8.195e-23
5.319e-22
-1.548e-21
7.839e-20
1.382e-18
1.398e-17
1.217e-16
9.665e-16
7.018e-15
4.636e-14
2.77e-13
1.489e-12
7.168e-12
3.075e-11
1.171e-10
3.951e-10
1.177e-09
3.097e-09
7.191e-09
1.476e-08
2.688e-08
4.36e-08
6.378e-08
8.499e-08
1.042e-07
1.187e-07
1.268e-07
1.252e-07
1.193e-07
1.092e-07
9.64e-08
8.261e-08
6.916e-08
5.689e-08
4.622e-08
3.729e-08
2.999e-08
2.414e-08
1.951e-08
1.588e-08
1.304e-08
1.083e-08
9.103e-09
7.755e-09
6.699e-09
5.87e-09
5.219e-09
4.707e-09
4.306e-09
3.993e-09
3.753e-09
3.571e-09
3.441e-09
3.352e-09
3.298e-09
3.286e-09
3.302e-09
3.344e-09
3.414e-09
3.511e-09
3.635e-09
3.787e-09
3.967e-09
4.176e-09
4.416e-09
4.689e-09
4.996e-09
5.341e-09
5.726e-09
6.154e-09
6.628e-09
7.152e-09
7.73e-09
8.366e-09
9.064e-09
9.83e-09
1.067e-08
1.159e-08
1.259e-08
1.367e-08
1.486e-08
1.614e-08
1.754e-08
1.899e-08
2.139e-08
-6.396e-57
5.238e-56
-3.86e-55
3.116e-54
-2.647e-53
2.27e-52
-1.909e-51
1.552e-50
-1.215e-49
9.179e-49
-6.712e-48
4.777e-47
-3.322e-46
2.266e-45
-1.522e-44
1.01e-43
-6.641e-43
4.333e-42
-2.81e-41
1.815e-40
-1.168e-39
7.494e-39
-4.797e-38
3.064e-37
-1.952e-36
1.24e-35
-7.855e-35
4.949e-34
-3.101e-33
1.93e-32
-1.194e-31
7.327e-31
-4.462e-30
2.694e-29
-1.611e-28
9.54e-28
-5.585e-27
3.231e-26
-1.844e-25
1.037e-24
-5.745e-24
3.13e-23
-1.664e-22
8.888e-22
-3.972e-21
4.151e-20
1.176e-18
1.386e-17
1.363e-16
1.221e-15
1.003e-14
7.513e-14
5.104e-13
3.124e-12
1.712e-11
8.35e-11
3.609e-10
1.376e-09
4.61e-09
1.354e-08
3.481e-08
7.827e-08
1.541e-07
2.669e-07
4.085e-07
5.615e-07
7.023e-07
8.086e-07
8.637e-07
8.488e-07
7.999e-07
7.204e-07
6.23e-07
5.211e-07
4.244e-07
3.386e-07
2.663e-07
2.074e-07
1.609e-07
1.248e-07
9.715e-08
7.614e-08
6.024e-08
4.82e-08
3.908e-08
3.214e-08
2.683e-08
2.276e-08
1.96e-08
1.716e-08
1.525e-08
1.376e-08
1.26e-08
1.17e-08
1.101e-08
1.05e-08
1.013e-08
9.885e-09
9.732e-09
9.707e-09
9.758e-09
9.883e-09
1.009e-08
1.037e-08
1.072e-08
1.116e-08
1.167e-08
1.226e-08
1.294e-08
1.37e-08
1.456e-08
1.552e-08
1.659e-08
1.777e-08
1.907e-08
2.051e-08
2.209e-08
2.381e-08
2.57e-08
2.777e-08
3.001e-08
3.246e-08
3.512e-08
3.8e-08
4.111e-08
4.45e-08
4.798e-08
5.375e-08
-7.386e-56
7.262e-55
-5.767e-54
4.401e-53
-3.217e-52
2.257e-51
-1.526e-50
9.977e-50
-6.34e-49
3.933e-48
-2.394e-47
1.436e-46
-8.526e-46
5.033e-45
-2.965e-44
1.75e-43
-1.039e-42
6.228e-42
-3.777e-41
2.323e-40
-1.451e-39
9.208e-39
-5.933e-38
3.875e-37
-2.562e-36
1.712e-35
-1.151e-34
7.658e-34
-5.057e-33
3.315e-32
-2.157e-31
1.393e-30
-8.927e-30
5.675e-29
-3.578e-28
2.236e-27
-1.385e-26
8.488e-26
-5.15e-25
3.089e-24
-1.83e-23
1.075e-22
-6.085e-22
3.682e-21
-1.505e-20
5.245e-19
1.033e-17
1.192e-16
1.204e-15
1.116e-14
9.473e-14
7.316e-13
5.104e-12
3.194e-11
1.781e-10
8.788e-10
3.818e-09
1.453e-08
4.823e-08
1.392e-07
3.482e-07
7.547e-07
1.418e-06
2.321e-06
3.332e-06
4.288e-06
5.03e-06
5.425e-06
5.323e-06
4.988e-06
4.445e-06
3.788e-06
3.11e-06
2.478e-06
1.929e-06
1.475e-06
1.116e-06
8.383e-07
6.29e-07
4.732e-07
3.582e-07
2.737e-07
2.115e-07
1.658e-07
1.318e-07
1.066e-07
8.758e-08
7.321e-08
6.225e-08
5.382e-08
4.731e-08
4.225e-08
3.832e-08
3.527e-08
3.292e-08
3.113e-08
2.98e-08
2.886e-08
2.826e-08
2.789e-08
2.792e-08
2.811e-08
2.851e-08
2.912e-08
2.995e-08
3.098e-08
3.222e-08
3.367e-08
3.534e-08
3.723e-08
3.937e-08
4.176e-08
4.441e-08
4.734e-08
5.058e-08
5.414e-08
5.803e-08
6.23e-08
6.695e-08
7.201e-08
7.752e-08
8.349e-08
8.996e-08
9.695e-08
1.045e-07
1.127e-07
1.21e-07
1.348e-07
2.688e-55
-2.607e-54
2.065e-53
-1.588e-52
1.178e-51
-8.454e-51
5.878e-50
-3.975e-49
2.626e-48
-1.701e-47
1.086e-46
-6.856e-46
4.296e-45
-2.68e-44
1.667e-43
-1.035e-42
6.421e-42
-3.983e-41
2.47e-40
-1.532e-39
9.512e-39
-5.911e-38
3.68e-37
-2.297e-36
1.439e-35
-9.065e-35
5.725e-34
-3.596e-33
2.252e-32
-1.406e-31
8.753e-31
-5.428e-30
3.353e-29
-2.062e-28
1.261e-27
-7.677e-27
4.645e-26
-2.792e-25
1.666e-24
-9.867e-24
5.804e-23
-3.328e-22
2.092e-21
-8.6e-21
2.98e-19
6.417e-18
8.134e-17
9.158e-16
9.53e-15
9.131e-14
7.996e-13
6.351e-12
4.539e-11
2.896e-10
1.637e-09
8.144e-09
3.543e-08
1.34e-07
4.382e-07
1.235e-06
2.991e-06
6.207e-06
1.105e-05
1.7e-05
2.278e-05
2.747e-05
3.028e-05
2.979e-05
2.793e-05
2.48e-05
2.098e-05
1.704e-05
1.338e-05
1.023e-05
7.669e-06
5.667e-06
4.151e-06
3.029e-06
2.213e-06
1.625e-06
1.204e-06
9.021e-07
6.852e-07
5.286e-07
4.146e-07
3.31e-07
2.69e-07
2.226e-07
1.875e-07
1.608e-07
1.403e-07
1.244e-07
1.121e-07
1.025e-07
9.512e-08
8.945e-08
8.518e-08
8.207e-08
7.994e-08
7.865e-08
7.807e-08
7.833e-08
7.91e-08
8.043e-08
8.233e-08
8.477e-08
8.777e-08
9.131e-08
9.541e-08
1.001e-07
1.054e-07
1.113e-07
1.179e-07
1.251e-07
1.331e-07
1.419e-07
1.515e-07
1.62e-07
1.734e-07
1.858e-07
1.992e-07
2.137e-07
2.294e-07
2.463e-07
2.644e-07
2.84e-07
3.039e-07
3.369e-07
-6.922e-55
6.846e-54
-5.496e-53
4.262e-52
-3.181e-51
2.287e-50
-1.586e-49
1.061e-48
-6.866e-48
4.304e-47
-2.62e-46
1.553e-45
-8.997e-45
5.115e-44
-2.87e-43
1.6e-42
-8.942e-42
5.062e-41
-2.932e-40
1.754e-39
-1.088e-38
6.993e-38
-4.635e-37
3.143e-36
-2.163e-35
1.501e-34
-1.035e-33
7e-33
-4.656e-32
3.055e-31
-1.981e-30
1.271e-29
-8.076e-29
5.089e-28
-3.182e-27
1.975e-26
-1.218e-25
7.459e-25
-4.54e-24
2.748e-23
-1.643e-22
1.029e-21
-3.814e-21
1.295e-19
3.066e-18
4.27e-17
5.331e-16
6.189e-15
6.654e-14
6.575e-13
5.922e-12
4.82e-11
3.515e-10
2.277e-09
1.298e-08
6.47e-08
2.798e-07
1.043e-06
3.331e-06
9.091e-06
2.11e-05
4.155e-05
6.965e-05
0.0001001
0.0001253
0.0001436
0.0001425
0.0001347
0.0001203
0.0001019
8.256e-05
6.454e-05
4.898e-05
3.632e-05
2.647e-05
1.906e-05
1.364e-05
9.746e-06
6.987e-06
5.044e-06
3.681e-06
2.721e-06
2.043e-06
1.561e-06
1.214e-06
9.614e-07
7.762e-07
6.387e-07
5.353e-07
4.57e-07
3.97e-07
3.508e-07
3.149e-07
2.871e-07
2.655e-07
2.489e-07
2.363e-07
2.27e-07
2.203e-07
2.162e-07
2.135e-07
2.138e-07
2.152e-07
2.181e-07
2.225e-07
2.283e-07
2.355e-07
2.442e-07
2.542e-07
2.658e-07
2.788e-07
2.934e-07
3.096e-07
3.275e-07
3.471e-07
3.687e-07
3.922e-07
4.178e-07
4.456e-07
4.757e-07
5.082e-07
5.433e-07
5.81e-07
6.214e-07
6.647e-07
7.113e-07
7.584e-07
8.361e-07
2.939e-54
-2.71e-53
2.089e-52
-1.609e-51
1.228e-50
-9.259e-50
6.877e-49
-5.022e-48
3.601e-47
-2.534e-46
1.75e-45
-1.186e-44
7.903e-44
-5.18e-43
3.345e-42
-2.132e-41
1.342e-40
-8.358e-40
5.158e-39
-3.157e-38
1.919e-37
-1.16e-36
6.97e-36
-4.171e-35
2.485e-34
-1.476e-33
8.725e-33
-5.134e-32
3.009e-31
-1.757e-30
1.023e-29
-5.942e-29
3.443e-28
-1.991e-27
1.15e-26
-6.63e-26
3.82e-25
-2.2e-24
1.267e-23
-7.276e-23
4.306e-22
-1.918e-21
3.38e-20
1.104e-18
1.722e-17
2.373e-16
3.05e-15
3.653e-14
4.044e-13
4.106e-12
3.789e-11
3.147e-10
2.33e-09
1.522e-08
8.69e-08
4.299e-07
1.828e-06
6.629e-06
2.04e-05
5.309e-05
0.0001164
0.0002151
0.0003376
0.000453
0.0005406
0.0005581
0.0005354
0.0004843
0.0004149
0.0003394
0.0002672
0.0002038
0.0001514
0.0001102
7.894e-05
5.597e-05
3.949e-05
2.787e-05
1.976e-05
1.413e-05
1.022e-05
7.509e-06
5.608e-06
4.264e-06
3.305e-06
2.612e-06
2.105e-06
1.729e-06
1.448e-06
1.235e-06
1.072e-06
9.47e-07
8.498e-07
7.742e-07
7.156e-07
6.702e-07
6.356e-07
6.099e-07
5.912e-07
5.796e-07
5.708e-07
5.71e-07
5.737e-07
5.802e-07
5.905e-07
6.044e-07
6.22e-07
6.432e-07
6.679e-07
6.962e-07
7.282e-07
7.641e-07
8.038e-07
8.477e-07
8.958e-07
9.483e-07
1.005e-06
1.068e-06
1.135e-06
1.207e-06
1.285e-06
1.369e-06
1.458e-06
1.554e-06
1.656e-06
1.765e-06
1.874e-06
2.054e-06
5.605e-54
-5.567e-53
4.524e-52
-3.581e-51
2.747e-50
-2.044e-49
1.475e-48
-1.035e-47
7.062e-47
-4.7e-46
3.056e-45
-1.948e-44
1.221e-43
-7.545e-43
4.614e-42
-2.802e-41
1.695e-40
-1.025e-39
6.203e-39
-3.769e-38
2.301e-37
-1.413e-36
8.723e-36
-5.416e-35
3.38e-34
-2.119e-33
1.329e-32
-8.287e-32
5.134e-31
-3.163e-30
1.94e-29
-1.186e-28
7.233e-28
-4.403e-27
2.677e-26
-1.628e-25
9.901e-25
-6.029e-24
3.68e-23
-2.24e-22
1.441e-21
-5.344e-21
1.957e-19
5.18e-18
8.098e-17
1.145e-15
1.514e-14
1.864e-13
2.117e-12
2.2e-11
2.071e-10
1.746e-09
1.304e-08
8.528e-08
4.829e-07
2.344e-06
9.655e-06
3.348e-05
9.731e-05
0.0002366
0.0004818
0.0008285
0.001212
0.001542
0.00171
0.001667
0.001539
0.001348
0.001127
0.0009075
0.0007064
0.0005343
0.0003944
0.0002854
0.0002034
0.0001435
0.0001008
7.086e-05
5.008e-05
3.573e-05
2.583e-05
1.897e-05
1.417e-05
1.079e-05
8.382e-06
6.64e-06
5.366e-06
4.422e-06
3.714e-06
3.177e-06
2.766e-06
2.449e-06
2.203e-06
2.011e-06
1.862e-06
1.747e-06
1.658e-06
1.593e-06
1.545e-06
1.515e-06
1.492e-06
1.491e-06
1.498e-06
1.513e-06
1.538e-06
1.572e-06
1.616e-06
1.668e-06
1.729e-06
1.798e-06
1.877e-06
1.964e-06
2.061e-06
2.168e-06
2.284e-06
2.411e-06
2.548e-06
2.696e-06
2.856e-06
3.027e-06
3.211e-06
3.407e-06
3.615e-06
3.836e-06
4.07e-06
4.32e-06
4.568e-06
4.972e-06
-1.879e-53
1.725e-52
-1.325e-51
1.019e-50
-7.767e-50
5.851e-49
-4.346e-48
3.177e-47
-2.282e-46
1.61e-45
-1.115e-44
7.583e-44
-5.064e-43
3.324e-42
-2.147e-41
1.365e-40
-8.552e-40
5.288e-39
-3.23e-38
1.951e-37
-1.167e-36
6.917e-36
-4.068e-35
2.376e-34
-1.379e-33
7.967e-33
-4.577e-32
2.62e-31
-1.496e-30
8.536e-30
-4.867e-29
2.776e-28
-1.586e-27
9.075e-27
-5.21e-26
3.003e-25
-1.739e-24
1.013e-23
-5.926e-23
3.579e-22
-1.648e-21
3.661e-20
1.246e-18
2.144e-17
3.304e-16
4.782e-15
6.484e-14
8.172e-13
9.49e-12
1.005e-10
9.605e-10
8.178e-09
6.123e-08
3.977e-07
2.21e-06
1.039e-05
4.072e-05
0.0001323
0.0003547
0.0007883
0.001467
0.002353
0.003204
0.003949
0.003936
0.003733
0.003358
0.002899
0.002421
0.001957
0.001535
0.00117
0.0008706
0.0006343
0.0004548
0.0003226
0.0002277
0.0001608
0.0001142
8.187e-05
5.952e-05
4.398e-05
3.308e-05
2.537e-05
1.984e-05
1.583e-05
1.289e-05
1.07e-05
9.045e-06
7.788e-06
6.822e-06