1.49904e+07 3.685550e-09
3.00024e+07 3.240830e-09
4.49928e+07 2.788420e-09
6.00048e+07 2.350120e-09
7.49952e+07 1.947980e-09
9.00072e+07 1.595920e-09
1.049976e+08 1.302140e-09
1.200096e+08 1.064680e-09
1.35e+08 8.769620e-10
1.499904e+08 7.288730e-10
1.650024e+08 6.105920e-10
1.799928e+08 5.149390e-10
1.950048e+08 4.360190e-10
2.099952e+08 3.700520e-10
2.250072e+08 3.141860e-10
2.399976e+08 2.669080e-10
2.550096e+08 2.271340e-10
2.7e+08 1.945080e-10
2.849904e+08 1.684850e-10
3.000024e+08 1.483660e-10
3.149928e+08 1.330810e-10
3.300048e+08 1.214420e-10
3.449952e+08 1.124360e-10
3.600072e+08 1.050430e-10
3.749976e+08 9.855400e-11
3.900096e+08 9.261350e-11
4.05e+08 8.710610e-11
4.199904e+08 8.202410e-11
4.350024e+08 7.743200e-11
4.499928e+08 7.338910e-11
4.650048e+08 6.987260e-11
4.799952e+08 6.671940e-11
4.950072e+08 6.367970e-11
5.099976e+08 6.062050e-11
5.250096e+08 5.762360e-11
5.4e+08 5.489770e-11
5.549904e+08 5.260490e-11
5.700024e+08 5.078080e-11
5.849928e+08 4.940620e-11
6.000048e+08 4.839650e-11
6.149952e+08 4.762280e-11
6.300072e+08 4.691770e-11
6.449976e+08 4.610390e-11
6.600096e+08 4.504260e-11
6.75e+08 4.374240e-11
6.899904e+08 4.232510e-11
7.050024e+08 4.094700e-11
7.199928e+08 3.975020e-11
7.350048e+08 3.881180e-11
7.499952e+08 3.815140e-11
7.650072e+08 3.773920e-11
7.799976e+08 3.752300e-11
7.950096e+08 3.743700e-11
8.1e+08 3.741070e-11
8.249904e+08 3.737820e-11
8.400024e+08 3.731480e-11
8.549928e+08 3.720610e-11
8.700048e+08 3.703140e-11
8.849952e+08 3.676240e-11
9.000072e+08 3.636070e-11
9.149976e+08 3.579080e-11
9.300096e+08 3.505620e-11
9.45e+08 3.424230e-11
9.599904e+08 3.345360e-11
9.750024e+08 3.277410e-11
9.899928e+08 3.225340e-11
1.0050048e+09 3.190020e-11
1.0199952e+09 3.169840e-11
1.0350072e+09 3.161530e-11
1.0499976e+09 3.161160e-11
1.0650096e+09 3.164450e-11
1.08e+09 3.167930e-11
1.0949904e+09 3.170950e-11
1.1100024e+09 3.173350e-11
1.1249928e+09 3.174940e-11
1.1400048e+09 3.175420e-11
1.1549952e+09 3.174400e-11
1.1700072e+09 3.171340e-11
1.1849976e+09 3.165500e-11
1.2000096e+09 3.155820e-11
1.215e+09 3.140880e-11
1.2299904e+09 3.118730e-11
1.2450024e+09 3.086850e-11
1.2599928e+09 3.042550e-11
1.2750048e+09 2.983580e-11
1.2899952e+09 2.911770e-11
1.3050072e+09 2.837100e-11
1.3199976e+09 2.771410e-11
1.3350096e+09 2.720340e-11
1.35e+09 2.684990e-11
1.3649904e+09 2.663440e-11
1.3800024e+09 2.652780e-11
1.3949928e+09 2.649880e-11
1.4100048e+09 2.651560e-11
1.4249952e+09 2.654780e-11
1.4400072e+09 2.658020e-11
1.4549976e+09 2.661190e-11
1.4700096e+09 2.664280e-11
1.485e+09 2.667230e-11
1.4999904e+09 2.669990e-11
1.5150024e+09 2.672520e-11
1.5299928e+09 2.674730e-11
1.5450048e+09 2.676510e-11
1.5599952e+09 2.677730e-11
1.5750072e+09 2.678200e-11
1.5899976e+09 2.677700e-11
1.6050096e+09 2.675900e-11
1.62e+09 2.672340e-11
1.6349904e+09 2.666420e-11
1.6500024e+09 2.657260e-11
1.6649928e+09 2.643710e-11
1.6800048e+09 2.624100e-11
1.6949952e+09 2.596340e-11
1.7100072e+09 2.557570e-11
1.7249976e+09 2.504770e-11
1.7400096e+09 2.434920e-11
1.755e+09 2.347120e-11
1.7699904e+09 2.244130e-11
1.7850024e+09 2.135090e-11
1.7999928e+09 2.038280e-11
1.8150048e+09 1.967120e-11
1.8299952e+09 1.921120e-11
1.8450072e+09 1.894250e-11
1.8599976e+09 1.880720e-11
1.8750096e+09 1.875830e-11
1.89e+09 1.875870e-11
1.9049904e+09 1.877560e-11
1.9200024e+09 1.879340e-11
1.9349928e+09 1.881170e-11
1.9500048e+09 1.883030e-11
1.9649952e+09 1.884920e-11
1.9800072e+09 1.886830e-11
1.9949976e+09 1.888770e-11
2.0100096e+09 1.890730e-11
2.025e+09 1.892690e-11
2.0399904e+09 1.894660e-11
2.0550024e+09 1.896620e-11
2.0699928e+09 1.898560e-11
2.0850048e+09 1.900470e-11
2.0999952e+09 1.902350e-11
2.1150072e+09 1.904170e-11
2.1299976e+09 1.905910e-11
2.1450096e+09 1.907560e-11
2.16e+09 1.909090e-11
2.1749904e+09 1.910470e-11
2.1900024e+09 1.911670e-11
2.2049928e+09 1.912640e-11
2.2200048e+09 1.913320e-11
2.2349952e+09 1.913650e-11
2.2500072e+09 1.913540e-11
2.2649976e+09 1.912870e-11
2.2800096e+09 1.911500e-11
2.295e+09 1.909240e-11
2.3099904e+09 1.905840e-11
2.3250024e+09 1.900970e-11
2.3399928e+09 1.894200e-11
2.3550048e+09 1.884910e-11
2.3699952e+09 1.872340e-11
2.3850072e+09 1.855390e-11
2.3999976e+09 1.832720e-11
2.4150096e+09 1.802450e-11
2.43e+09 1.762490e-11
2.4449904e+09 1.710350e-11
2.4600024e+09 1.643640e-11
2.4749928e+09 1.561250e-11
2.4900048e+09 1.463720e-11
2.5049952e+09 1.355100e-11
2.5200072e+09 1.241630e-11
2.5349976e+09 1.131470e-11
2.5500096e+09 1.031150e-11
2.565e+09 9.453160e-12
2.5799904e+09 8.754840e-12
2.5950024e+09 8.213480e-12
2.6099928e+09 7.831970e-12
2.6250048e+09 7.623680e-12
2.6399952e+09 7.529340e-12
2.6550072e+09 7.496110e-12
2.6699976e+09 7.491580e-12
2.6850096e+09 7.492760e-12
2.7e+09 7.493940e-12
2.7149904e+09 7.495120e-12
2.7300024e+09 7.496320e-12
2.7449928e+09 7.497510e-12
2.7600048e+09 7.498720e-12
2.7749952e+09 7.499950e-12
2.7900072e+09 7.501190e-12
2.8049976e+09 7.502450e-12
2.8200096e+09 7.503750e-12
2.835e+09 7.505080e-12
2.8499904e+09 7.506450e-12
2.8650024e+09 7.507870e-12
2.8799928e+09 7.509340e-12
2.8950048e+09 7.510880e-12
2.9099952e+09 7.512470e-12
2.9250072e+09 7.514120e-12
2.9399976e+09 7.515830e-12
2.9550096e+09 7.517610e-12
2.97e+09 7.519440e-12
2.9849904e+09 7.521340e-12
3.0000024e+09 7.523290e-12
3.0149928e+09 7.525300e-12
3.0300048e+09 7.527350e-12
3.0449952e+09 7.529460e-12
3.0600072e+09 7.531620e-12
3.0749976e+09 7.533810e-12
3.0900096e+09 7.536050e-12
3.105e+09 7.538330e-12
3.1199904e+09 7.540630e-12
3.1350024e+09 7.542970e-12
3.1499928e+09 7.545340e-12
3.1650048e+09 7.547730e-12
3.1799952e+09 7.550140e-12
3.1950072e+09 7.552570e-12
3.2099976e+09 7.555020e-12
3.2250096e+09 7.557470e-12
3.24e+09 7.559930e-12
3.2549904e+09 7.562390e-12
3.2700024e+09 7.564860e-12
3.2849928e+09 7.567320e-12
3.3000048e+09 7.569780e-12
3.3149952e+09 7.572230e-12
3.3300072e+09 7.574660e-12
3.3449976e+09 7.577080e-12
3.3600096e+09 7.579480e-12
3.375e+09 7.581860e-12
3.3899904e+09 7.584200e-12
3.4050024e+09 7.586530e-12
3.4199928e+09 7.588810e-12
3.4350048e+09 7.591060e-12
3.4499952e+09 7.593270e-12
3.4650072e+09 7.595440e-12
3.4799976e+09 7.597570e-12
3.4950096e+09 7.599660e-12
3.51e+09 7.601700e-12
3.5249904e+09 7.603690e-12
3.5400024e+09 7.605630e-12
3.5549928e+09 7.607520e-12
3.5700048e+09 7.609350e-12
3.5849952e+09 7.611130e-12
3.6000072e+09 7.612850e-12
3.6149976e+09 7.614490e-12
3.6300096e+09 7.616080e-12
3.645e+09 7.617580e-12
3.6599904e+09 7.619010e-12
3.6750024e+09 7.620360e-12
3.6899928e+09 7.621620e-12
3.7050048e+09 7.622780e-12
3.7199952e+09 7.623840e-12
3.7350072e+09 7.624790e-12
3.7499976e+09 7.625630e-12
3.7650096e+09 7.626330e-12
3.78e+09 7.626900e-12
3.7949904e+09 7.627320e-12
3.8100024e+09 7.627580e-12
3.8249928e+09 7.627660e-12
3.8400048e+09 7.627540e-12
3.8549952e+09 7.627220e-12
3.8700072e+09 7.626660e-12
3.8849976e+09 7.625850e-12
3.9000096e+09 7.624750e-12
3.915e+09 7.623340e-12
3.9299904e+09 7.621590e-12
3.9450024e+09 7.619450e-12
3.9599928e+09 7.616890e-12
3.9750048e+09 7.613850e-12
3.9899952e+09 7.610280e-12
4.0050072e+09 7.606100e-12
4.0199976e+09 7.601260e-12
4.0350096e+09 7.595650e-12
4.05e+09 7.589190e-12
4.0649904e+09 7.581760e-12
4.0800024e+09 7.573200e-12
4.0949928e+09 7.563390e-12
4.1100048e+09 7.552110e-12
4.1249952e+09 7.539190e-12
4.1400072e+09 7.524340e-12
4.1549976e+09 7.507290e-12
4.1700096e+09 7.487670e-12
4.185e+09 7.465100e-12
4.1999904e+09 7.439080e-12
4.2150024e+09 7.408990e-12
4.2299928e+09 7.374240e-12
4.2450048e+09 7.333920e-12
4.2599952e+09 7.287210e-12
4.2750072e+09 7.232850e-12
4.2899976e+09 7.169730e-12
4.3050096e+09 7.096160e-12
4.32e+09 7.010650e-12
4.3349904e+09 6.911210e-12
4.3500024e+09 6.795620e-12
4.3649928e+09 6.662060e-12
4.3800048e+09 6.508050e-12
4.3949952e+09 6.332170e-12
4.4100072e+09 6.132550e-12
4.4249976e+09 5.909250e-12
4.4400096e+09 5.662250e-12
4.455e+09 5.394320e-12
4.4699904e+09 5.108710e-12
4.4850024e+09 4.810020e-12
4.4999928e+09 4.505140e-12
4.5150048e+09 4.199700e-12
4.5299952e+09 3.900870e-12
4.5450072e+09 3.613300e-12
4.5599976e+09 3.342090e-12
4.5750096e+09 3.089370e-12
4.59e+09 2.857430e-12
4.6049904e+09 2.646380e-12
4.6200024e+09 2.455610e-12
4.6349928e+09 2.284500e-12
4.6500048e+09 2.131350e-12
4.6649952e+09 1.995030e-12
4.6800072e+09 1.873520e-12
4.6949976e+09 1.765650e-12
4.7100096e+09 1.669630e-12
4.725e+09 1.584400e-12
4.7399904e+09 1.508630e-12
4.7550024e+09 1.441130e-12
4.7699928e+09 1.381150e-12
4.7850048e+09 1.327680e-12
4.7999952e+09 1.280120e-12
4.8150072e+09 1.237700e-12
4.8299976e+09 1.199990e-12
4.8450096e+09 1.166380e-12
4.86e+09 1.136510e-12
4.8749904e+09 1.109960e-12
4.8900024e+09 1.086390e-12
4.9049928e+09 1.065550e-12
4.9200048e+09 1.047110e-12
4.9349952e+09 1.030910e-12
4.9500072e+09 1.016700e-12
4.9649976e+09 1.004290e-12
4.9800096e+09 9.935150e-13
4.995e+09 9.842390e-13
5.0099904e+09 9.763100e-13
5.0250024e+09 9.695900e-13
5.0399928e+09 9.639800e-13
5.0550048e+09 9.593520e-13
5.0699952e+09 9.556060e-13
5.0850072e+09 9.526360e-13
5.0999976e+09 9.503400e-13
5.1150096e+09 9.486280e-13
5.13e+09 9.474150e-13
5.1449904e+09 9.469790e-13
5.1600024e+09 9.469810e-13
5.1749928e+09 9.469840e-13
5.1900048e+09 9.469870e-13
5.2049952e+09 9.469890e-13
5.2200072e+09 9.469920e-13
5.2349976e+09 9.469950e-13
5.2500096e+09 9.469970e-13
5.265e+09 9.470000e-13
5.2799904e+09 9.470030e-13
5.2950024e+09 9.470050e-13
5.3099928e+09 9.470080e-13
5.3250048e+09 9.470110e-13
5.3399952e+09 9.470130e-13
5.3550072e+09 9.470160e-13
5.3699976e+09 9.470180e-13
5.3850096e+09 9.470210e-13
5.4e+09 9.470240e-13
5.4149904e+09 9.470260e-13
5.4300024e+09 9.470290e-13
5.4449928e+09 9.470320e-13
5.4600048e+09 9.470340e-13
5.4749952e+09 9.470370e-13
5.4900072e+09 9.470390e-13
5.5049976e+09 9.470420e-13
5.5200096e+09 9.470450e-13
5.535e+09 9.470470e-13
5.5499904e+09 9.470500e-13
5.5650024e+09 9.470530e-13
5.5799928e+09 9.470550e-13
5.5950048e+09 9.470580e-13
5.6099952e+09 9.470600e-13
5.6250072e+09 9.470630e-13
5.6399976e+09 9.470660e-13
5.6550096e+09 9.470680e-13
5.67e+09 9.470710e-13
5.6849904e+09 9.470730e-13
5.7000024e+09 9.470760e-13
5.7149928e+09 9.470780e-13
5.7300048e+09 9.470810e-13
5.7449952e+09 9.470840e-13
5.7600072e+09 9.470860e-13
5.7749976e+09 9.470890e-13
5.7900096e+09 9.470910e-13
5.805e+09 9.470940e-13
5.8199904e+09 9.470960e-13
5.8350024e+09 9.470990e-13
5.8499928e+09 9.471020e-13
5.8650048e+09 9.471040e-13
5.8799952e+09 9.471070e-13
5.8950072e+09 9.471090e-13
5.9099976e+09 9.471120e-13
5.9250096e+09 9.471140e-13
5.94e+09 9.471170e-13
5.9549904e+09 9.471190e-13
5.9700024e+09 9.471220e-13
5.9849928e+09 9.471250e-13
6.0000048e+09 9.471270e-13
6.0149952e+09 9.471300e-13
6.0300072e+09 9.471320e-13
6.0449976e+09 9.471350e-13
6.0600096e+09 9.471370e-13
6.075e+09 9.471400e-13
6.0899904e+09 9.471420e-13
6.1050024e+09 9.471450e-13
6.1199928e+09 9.471470e-13
6.1350048e+09 9.471500e-13
6.1499952e+09 9.471520e-13
6.1650072e+09 9.471550e-13
6.1799976e+09 9.471570e-13
6.1950096e+09 9.471600e-13
6.21e+09 9.471620e-13
6.2249904e+09 9.471650e-13
6.2400024e+09 9.471670e-13
6.2549928e+09 9.471700e-13
6.2700048e+09 9.471720e-13
6.2849952e+09 9.471750e-13
6.3000072e+09 9.471770e-13
6.3149976e+09 9.471800e-13
6.3300096e+09 9.471820e-13
6.345e+09 9.471850e-13
6.3599904e+09 9.471870e-13
6.3750024e+09 9.471900e-13
6.3899928e+09 9.471920e-13
6.4050048e+09 9.471950e-13
6.4199952e+09 9.471970e-13
6.4350072e+09 9.472000e-13
6.4499976e+09 9.472020e-13
6.4650096e+09 9.472050e-13
6.48e+09 9.472070e-13
6.4949904e+09 9.472100e-13
6.5100024e+09 9.472120e-13
6.5249928e+09 9.472150e-13
6.5400048e+09 9.472170e-13
6.5549952e+09 9.472200e-13
6.5700072e+09 9.472220e-13
6.5849976e+09 9.472240e-13
6.6000096e+09 9.472270e-13
6.615e+09 9.472290e-13
6.6299904e+09 9.472320e-13
6.6450024e+09 9.472340e-13
6.6599928e+09 9.472370e-13
6.6750048e+09 9.472390e-13
6.6899952e+09 9.472420e-13
6.7050072e+09 9.472440e-13
6.7199976e+09 9.472470e-13
6.7350096e+09 9.472490e-13
6.75e+09 9.472520e-13
6.7649904e+09 9.472540e-13
6.7800024e+09 9.472570e-13
6.7949928e+09 9.472590e-13
6.8100048e+09 9.472620e-13
6.8249952e+09 9.472640e-13
6.8400072e+09 9.472670e-13
6.8549976e+09 9.472690e-13
6.8700096e+09 9.472720e-13
6.885e+09 9.472740e-13
6.8999904e+09 9.472770e-13
6.9150024e+09 9.472800e-13
6.9299928e+09 9.472820e-13
6.9450048e+09 9.472850e-13
6.9599952e+09 9.472880e-13
6.9750072e+09 9.472900e-13
6.9899976e+09 9.472930e-13
7.0050096e+09 9.472970e-13
7.02e+09 9.473000e-13
7.0349904e+09 9.473040e-13
7.0500024e+09 9.473080e-13
7.0649928e+09 9.473130e-13
7.0800048e+09 9.473180e-13
7.0949952e+09 9.473230e-13
7.1100072e+09 9.473280e-13
7.1249976e+09 9.473340e-13
7.1400096e+09 9.473400e-13
7.155e+09 9.473460e-13
7.1699904e+09 9.473520e-13
7.1850024e+09 9.473580e-13
7.1999928e+09 9.473640e-13
7.2150048e+09 9.473700e-13
7.2299952e+09 9.473760e-13
7.2450072e+09 9.473830e-13
7.2599976e+09 9.473890e-13
7.2750096e+09 9.473950e-13
7.29e+09 9.474010e-13
7.3049904e+09 9.474080e-13
7.3200024e+09 9.474140e-13
7.3349928e+09 9.474200e-13
7.3500048e+09 9.474260e-13
7.3649952e+09 9.474320e-13
7.3800072e+09 9.474390e-13
7.3949976e+09 9.474450e-13
7.4100096e+09 9.474510e-13
7.425e+09 9.474570e-13
7.4399904e+09 9.474630e-13
7.4550024e+09 9.474700e-13
7.4699928e+09 9.474760e-13
7.4850048e+09 9.474820e-13
7.4999952e+09 9.474880e-13
7.5150072e+09 9.474940e-13
7.5299976e+09 9.475000e-13
7.5450096e+09 9.475070e-13
7.56e+09 9.475130e-13
7.5749904e+09 9.475190e-13
7.5900024e+09 9.475250e-13
7.6049928e+09 9.475310e-13
7.6200048e+09 9.475370e-13
7.6349952e+09 9.475430e-13
7.6500072e+09 9.475500e-13
7.6649976e+09 9.475560e-13
7.6800096e+09 9.475620e-13
7.695e+09 9.475680e-13
7.7099904e+09 9.475740e-13
7.7250024e+09 9.475800e-13
7.7399928e+09 9.475860e-13
7.7550048e+09 9.475920e-13
7.7699952e+09 9.475980e-13
7.7850072e+09 9.476050e-13
7.7999976e+09 9.476110e-13
7.8150096e+09 9.476170e-13
7.83e+09 9.476230e-13
7.8449904e+09 9.476290e-13
7.8600024e+09 9.476350e-13
7.8749928e+09 9.476410e-13
7.8900048e+09 9.476470e-13
7.9049952e+09 9.476530e-13
7.9200072e+09 9.476590e-13
7.9349976e+09 9.476650e-13
7.9500096e+09 9.476710e-13
7.965e+09 9.476770e-13
7.9799904e+09 9.476830e-13
7.9950024e+09 9.476890e-13
8.0099928e+09 9.476950e-13
8.0250048e+09 9.477010e-13
8.0399952e+09 9.477070e-13
8.0550072e+09 9.477140e-13
8.0699976e+09 9.477200e-13
8.0850096e+09 9.477260e-13
8.1e+09 9.477320e-13
8.1149904e+09 9.477380e-13
8.1300024e+09 9.477440e-13
8.1449928e+09 9.477500e-13
8.1600048e+09 9.477560e-13
8.1749952e+09 9.477610e-13
8.1900072e+09 9.477670e-13
8.2049976e+09 9.477730e-13
8.2200096e+09 9.477790e-13
8.235e+09 9.477850e-13
8.2499904e+09 9.477910e-13
8.2650024e+09 9.477970e-13
8.2799928e+09 9.478030e-13
8.2950048e+09 9.478090e-13
8.3099952e+09 9.478150e-13
8.3250072e+09 9.478210e-13
8.3399976e+09 9.478270e-13
8.3550096e+09 9.478330e-13
8.37e+09 9.478390e-13
8.3849904e+09 9.478450e-13
8.4000024e+09 9.478510e-13
8.4149928e+09 9.478570e-13
8.4300048e+09 9.478630e-13
8.4449952e+09 9.478680e-13
8.4600072e+09 9.478740e-13
8.4749976e+09 9.478800e-13
8.4900096e+09 9.478860e-13
8.505e+09 9.478920e-13
8.5199904e+09 9.478980e-13
8.5350024e+09 9.479040e-13
8.5499928e+09 9.479100e-13
8.5650048e+09 9.479160e-13
8.5799952e+09 9.479210e-13
8.5950072e+09 9.479270e-13
8.6099976e+09 9.479330e-13
8.6250096e+09 9.479390e-13
8.64e+09 9.479450e-13
8.6549904e+09 9.479510e-13
8.6700024e+09 9.479570e-13
8.6849928e+09 9.479620e-13
8.7000048e+09 9.479680e-13
8.7149952e+09 9.479740e-13
8.7300072e+09 9.479800e-13
8.7449976e+09 9.479860e-13
8.7600096e+09 9.479910e-13
8.775e+09 9.479970e-13
8.7899904e+09 9.480030e-13
8.8050024e+09 9.480090e-13
8.8199928e+09 9.480150e-13
8.8350048e+09 9.480200e-13
8.8499952e+09 9.480260e-13
8.8650072e+09 9.480320e-13
8.8799976e+09 9.480380e-13
8.8950096e+09 9.480440e-13
8.91e+09 9.480490e-13
8.9249904e+09 9.480550e-13
8.9400024e+09 9.480610e-13
8.9549928e+09 9.480670e-13
8.9700048e+09 9.480720e-13
8.9849952e+09 9.480780e-13
9.0000072e+09 9.480840e-13
9.0149976e+09 9.480890e-13
9.0300096e+09 9.480950e-13
9.045e+09 9.481010e-13
9.0599904e+09 9.481070e-13
9.0750024e+09 9.481120e-13
9.0899928e+09 9.481180e-13
9.1050048e+09 9.481240e-13
9.1199952e+09 9.481290e-13
9.1350072e+09 9.481350e-13
9.1499976e+09 9.481410e-13
9.1650096e+09 9.481460e-13
9.18e+09 9.481520e-13
9.1949904e+09 9.481580e-13
9.2100024e+09 9.481630e-13
9.2249928e+09 9.481690e-13
9.2400048e+09 9.481750e-13
9.2549952e+09 9.481800e-13
9.2700072e+09 9.481860e-13
9.2849976e+09 9.481920e-13
9.3000096e+09 9.481970e-13
9.315e+09 9.482030e-13
9.3299904e+09 9.482090e-13
9.3450024e+09 9.482140e-13
9.3599928e+09 9.482200e-13
9.3750048e+09 9.482250e-13
9.3899952e+09 9.482310e-13
9.4050072e+09 9.482370e-13
9.4199976e+09 9.482420e-13
9.4350096e+09 9.482480e-13
9.45e+09 9.482530e-13
