/*--------------------------------*- C++ -*----------------------------------*\
  =========                 |
  \\      /  F ield         | OpenFOAM: The Open Source CFD Toolbox
   \\    /   O peration     | Website:  https://openfoam.org
    \\  /    A nd           | Version:  7
     \\/     M anipulation  |
\*---------------------------------------------------------------------------*/
FoamFile
{
    version     2.0;
    format      ascii;
    class       volScalarField;
    location    "2279.99947343801477";
    object      p;
}
// * * * * * * * * * * * * * * * * * * * * * * * * * * * * * * * * * * * * * //

dimensions      [0 2 -2 0 0 0 0];

internalField   nonuniform List<scalar> 
4096
(
0.0005594
0.0003885
0.0003042
0.000262
0.0002386
0.0002247
0.0002158
0.0002097
0.0002053
0.000202
0.0001995
0.0001975
0.0001958
0.0001944
0.0001933
0.0001922
0.0001914
0.0001906
0.0001898
0.0001892
0.0001886
0.000188
0.0001875
0.000187
0.0001865
0.000186
0.0001855
0.000185
0.0001845
0.0001841
0.0001836
0.0001831
0.0001826
0.0001821
0.0001816
0.0001811
0.0001805
0.0001799
0.0001792
0.0001785
0.0001777
0.0001769
0.0001759
0.0001749
0.0001737
0.0001723
0.0001708
0.0001691
0.0001672
0.0001651
0.0001627
0.00016
0.0001571
0.0001538
0.0001503
0.0001464
0.0001422
0.0001376
0.0001328
0.0001277
0.0001224
0.0001169
0.0001112
0.0001054
9.963e-05
9.384e-05
8.811e-05
8.249e-05
7.704e-05
7.178e-05
6.675e-05
6.198e-05
5.748e-05
5.326e-05
4.934e-05
4.571e-05
4.237e-05
3.932e-05
3.654e-05
3.401e-05
3.173e-05
2.967e-05
2.782e-05
2.617e-05
2.468e-05
2.335e-05
2.215e-05
2.107e-05
2.01e-05
1.922e-05
1.841e-05
1.768e-05
1.7e-05
1.636e-05
1.577e-05
1.52e-05
1.467e-05
1.415e-05
1.365e-05
1.317e-05
1.269e-05
1.222e-05
1.176e-05
1.13e-05
1.084e-05
1.039e-05
9.931e-06
9.474e-06
9.017e-06
8.557e-06
8.096e-06
7.633e-06
7.168e-06
6.7e-06
6.229e-06
5.756e-06
5.28e-06
4.801e-06
4.319e-06
3.835e-06
3.348e-06
2.86e-06
2.37e-06
1.881e-06
1.396e-06
9.193e-07
4.64e-07
9.825e-08
0.0004149
0.0003511
0.0003013
0.0002693
0.0002483
0.0002341
0.000224
0.0002167
0.0002112
0.0002069
0.0002036
0.0002009
0.0001988
0.0001969
0.0001954
0.0001941
0.0001929
0.0001919
0.000191
0.0001901
0.0001894
0.0001886
0.000188
0.0001873
0.0001867
0.0001861
0.0001855
0.000185
0.0001844
0.0001838
0.0001833
0.0001827
0.0001821
0.0001815
0.0001809
0.0001802
0.0001796
0.0001788
0.0001781
0.0001772
0.0001763
0.0001754
0.0001743
0.0001731
0.0001718
0.0001704
0.0001688
0.000167
0.000165
0.0001629
0.0001604
0.0001578
0.0001548
0.0001516
0.0001481
0.0001443
0.0001402
0.0001358
0.0001312
0.0001263
0.0001213
0.000116
0.0001106
0.0001051
9.96e-05
9.41e-05
8.865e-05
8.33e-05
7.81e-05
7.307e-05
6.825e-05
6.366e-05
5.932e-05
5.523e-05
5.141e-05
4.785e-05
4.456e-05
4.153e-05
3.875e-05
3.621e-05
3.389e-05
3.178e-05
2.987e-05
2.814e-05
2.657e-05
2.515e-05
2.386e-05
2.269e-05
2.162e-05
2.064e-05
1.975e-05
1.892e-05
1.814e-05
1.742e-05
1.675e-05
1.61e-05
1.549e-05
1.491e-05
1.434e-05
1.38e-05
1.326e-05
1.274e-05
1.223e-05
1.172e-05
1.123e-05
1.073e-05
1.024e-05
9.753e-06
9.266e-06
8.781e-06
8.297e-06
7.812e-06
7.328e-06
6.843e-06
6.357e-06
5.87e-06
5.382e-06
4.893e-06
4.403e-06
3.912e-06
3.42e-06
2.927e-06
2.435e-06
1.944e-06
1.458e-06
9.785e-07
5.133e-07
1.187e-07
0.0003314
0.0003098
0.0002843
0.0002635
0.000248
0.0002363
0.0002273
0.0002202
0.0002147
0.0002102
0.0002066
0.0002036
0.0002011
0.000199
0.0001972
0.0001956
0.0001943
0.000193
0.000192
0.000191
0.0001901
0.0001892
0.0001884
0.0001877
0.0001869
0.0001862
0.0001856
0.0001849
0.0001842
0.0001836
0.0001829
0.0001823
0.0001816
0.0001809
0.0001802
0.0001794
0.0001786
0.0001778
0.0001769
0.000176
0.000175
0.0001739
0.0001728
0.0001715
0.0001701
0.0001686
0.0001669
0.0001651
0.000163
0.0001608
0.0001584
0.0001557
0.0001528
0.0001496
0.0001462
0.0001425
0.0001385
0.0001343
0.0001298
0.0001251
0.0001203
0.0001152
0.0001101
0.0001048
9.956e-05
9.43e-05
8.91e-05
8.399e-05
7.901e-05
7.419e-05
6.956e-05
6.514e-05
6.094e-05
5.697e-05
5.325e-05
4.977e-05
4.653e-05
4.353e-05
4.076e-05
3.821e-05
3.587e-05
3.373e-05
3.177e-05
2.998e-05
2.834e-05
2.684e-05
2.548e-05
2.422e-05
2.307e-05
2.201e-05
2.102e-05
2.011e-05
1.926e-05
1.846e-05
1.77e-05
1.699e-05
1.63e-05
1.565e-05
1.502e-05
1.442e-05
1.383e-05
1.326e-05
1.27e-05
1.215e-05
1.161e-05
1.108e-05
1.055e-05
1.004e-05
9.521e-06
9.009e-06
8.501e-06
7.996e-06
7.492e-06
6.99e-06
6.489e-06
5.989e-06
5.489e-06
4.989e-06
4.49e-06
3.991e-06
3.492e-06
2.994e-06
2.497e-06
2.001e-06
1.508e-06
1.02e-06
5.392e-07
1.219e-07
0.0002867
0.0002796
0.0002663
0.0002531
0.0002422
0.0002334
0.0002263
0.0002204
0.0002155
0.0002114
0.0002079
0.000205
0.0002025
0.0002003
0.0001984
0.0001967
0.0001952
0.0001939
0.0001927
0.0001916
0.0001906
0.0001896
0.0001888
0.0001879
0.0001871
0.0001863
0.0001856
0.0001848
0.0001841
0.0001833
0.0001826
0.0001819
0.0001811
0.0001803
0.0001795
0.0001787
0.0001778
0.0001769
0.000176
0.0001749
0.0001739
0.0001727
0.0001715
0.0001701
0.0001686
0.0001671
0.0001653
0.0001634
0.0001614
0.0001591
0.0001567
0.000154
0.0001511
0.000148
0.0001446
0.000141
0.0001372
0.0001331
0.0001287
0.0001242
0.0001195
0.0001146
0.0001096
0.0001046
9.951e-05
9.444e-05
8.942e-05
8.45e-05
7.969e-05
7.504e-05
7.056e-05
6.628e-05
6.22e-05
5.834e-05
5.471e-05
5.13e-05
4.811e-05
4.515e-05
4.24e-05
3.986e-05
3.751e-05
3.535e-05
3.336e-05
3.153e-05
2.984e-05
2.829e-05
2.687e-05
2.555e-05
2.433e-05
2.32e-05
2.215e-05
2.116e-05
2.024e-05
1.938e-05
1.856e-05
1.778e-05
1.704e-05
1.633e-05
1.564e-05
1.499e-05
1.435e-05
1.373e-05
1.313e-05
1.254e-05
1.197e-05
1.14e-05
1.085e-05
1.03e-05
9.758e-06
9.223e-06
8.694e-06
8.169e-06
7.647e-06
7.129e-06
6.614e-06
6.101e-06
5.59e-06
5.08e-06
4.572e-06
4.065e-06
3.559e-06
3.054e-06
2.55e-06
2.047e-06
1.546e-06
1.047e-06
5.509e-07
1.192e-07
0.0002598
0.0002588
0.0002518
0.0002432
0.0002354
0.0002289
0.0002233
0.0002187
0.0002146
0.0002111
0.000208
0.0002053
0.0002029
0.0002008
0.000199
0.0001973
0.0001958
0.0001944
0.0001932
0.000192
0.000191
0.0001899
0.000189
0.0001881
0.0001872
0.0001864
0.0001855
0.0001847
0.0001839
0.0001831
0.0001823
0.0001815
0.0001807
0.0001798
0.000179
0.0001781
0.0001771
0.0001761
0.0001751
0.000174
0.0001729
0.0001716
0.0001703
0.0001689
0.0001674
0.0001658
0.000164
0.0001621
0.00016
0.0001578
0.0001553
0.0001527
0.0001498
0.0001468
0.0001435
0.0001399
0.0001361
0.0001321
0.0001279
0.0001235
0.0001189
0.0001141
0.0001093
0.0001044
9.944e-05
9.452e-05
8.964e-05
8.486e-05
8.019e-05
7.567e-05
7.132e-05
6.715e-05
6.317e-05
5.94e-05
5.585e-05
5.25e-05
4.937e-05
4.644e-05
4.372e-05
4.119e-05
3.884e-05
3.667e-05
3.467e-05
3.281e-05
3.11e-05
2.951e-05
2.804e-05
2.667e-05
2.54e-05
2.422e-05
2.311e-05
2.208e-05
2.11e-05
2.018e-05
1.93e-05
1.847e-05
1.768e-05
1.692e-05
1.619e-05
1.549e-05
1.481e-05
1.416e-05
1.352e-05
1.29e-05
1.229e-05
1.169e-05
1.111e-05
1.054e-05
9.973e-06
9.417e-06
8.868e-06
8.326e-06
7.789e-06
7.256e-06
6.728e-06
6.203e-06
5.682e-06
5.163e-06
4.646e-06
4.132e-06
3.618e-06
3.106e-06
2.595e-06
2.085e-06
1.576e-06
1.067e-06
5.581e-07
1.162e-07
0.0002424
0.0002439
0.0002406
0.0002349
0.0002292
0.0002242
0.0002198
0.0002161
0.0002128
0.0002098
0.0002072
0.0002049
0.0002027
0.0002008
0.0001991
0.0001975
0.000196
0.0001946
0.0001934
0.0001922
0.0001911
0.0001901
0.0001891
0.0001882
0.0001872
0.0001864
0.0001855
0.0001846
0.0001838
0.0001829
0.000182
0.0001812
0.0001803
0.0001794
0.0001785
0.0001775
0.0001765
0.0001755
0.0001744
0.0001733
0.0001721
0.0001708
0.0001694
0.000168
0.0001664
0.0001648
0.000163
0.000161
0.000159
0.0001567
0.0001543
0.0001517
0.0001488
0.0001458
0.0001425
0.0001391
0.0001354
0.0001314
0.0001273
0.0001229
0.0001184
0.0001138
0.000109
0.0001042
9.937e-05
9.454e-05
8.977e-05
8.509e-05
8.053e-05
7.611e-05
7.185e-05
6.778e-05
6.389e-05
6.019e-05
5.67e-05
5.342e-05
5.033e-05
4.744e-05
4.474e-05
4.223e-05
3.99e-05
3.773e-05
3.572e-05
3.385e-05
3.211e-05
3.05e-05
2.9e-05
2.76e-05
2.63e-05
2.507e-05
2.392e-05
2.284e-05
2.182e-05
2.086e-05
1.994e-05
1.907e-05
1.823e-05
1.743e-05
1.666e-05
1.593e-05
1.521e-05
1.452e-05
1.385e-05
1.32e-05
1.257e-05
1.195e-05
1.134e-05
1.074e-05
1.016e-05
9.587e-06
9.021e-06
8.463e-06
7.912e-06
7.368e-06
6.828e-06
6.293e-06
5.763e-06
5.235e-06
4.711e-06
4.189e-06
3.67e-06
3.151e-06
2.634e-06
2.117e-06
1.6e-06
1.083e-06
5.638e-07
1.139e-07
0.0002305
0.000233
0.0002317
0.000228
0.0002238
0.0002199
0.0002164
0.0002133
0.0002106
0.0002082
0.000206
0.0002039
0.0002021
0.0002004
0.0001988
0.0001973
0.0001959
0.0001946
0.0001934
0.0001922
0.0001912
0.0001901
0.0001891
0.0001882
0.0001872
0.0001863
0.0001854
0.0001845
0.0001836
0.0001827
0.0001818
0.0001809
0.00018
0.000179
0.0001781
0.0001771
0.000176
0.0001749
0.0001738
0.0001726
0.0001714
0.0001701
0.0001687
0.0001672
0.0001656
0.000164
0.0001622
0.0001602
0.0001581
0.0001559
0.0001535
0.0001509
0.0001481
0.0001451
0.0001419
0.0001385
0.0001348
0.0001309
0.0001268
0.0001226
0.0001181
0.0001135
0.0001088
0.0001041
9.928e-05
9.452e-05
8.982e-05
8.521e-05
8.073e-05
7.638e-05
7.22e-05
6.82e-05
6.437e-05
6.074e-05
5.731e-05
5.407e-05
5.102e-05
4.817e-05
4.55e-05
4.301e-05
4.069e-05
3.853e-05
3.652e-05
3.465e-05
3.291e-05
3.128e-05
2.976e-05
2.834e-05
2.701e-05
2.575e-05
2.458e-05
2.346e-05
2.241e-05
2.141e-05
2.046e-05
1.955e-05
1.868e-05
1.785e-05
1.705e-05
1.629e-05
1.554e-05
1.483e-05
1.413e-05
1.345e-05
1.28e-05
1.216e-05
1.153e-05
1.092e-05
1.032e-05
9.727e-06
9.148e-06
8.578e-06
8.015e-06
7.46e-06
6.911e-06
6.368e-06
5.83e-06
5.295e-06
4.765e-06
4.237e-06
3.712e-06
3.188e-06
2.665e-06
2.143e-06
1.62e-06
1.096e-06
5.693e-07
1.13e-07
0.0002219
0.0002246
0.0002245
0.0002223
0.0002192
0.0002161
0.0002132
0.0002107
0.0002084
0.0002063
0.0002045
0.0002027
0.0002011
0.0001996
0.0001982
0.0001968
0.0001956
0.0001944
0.0001932
0.0001921
0.000191
0.00019
0.000189
0.0001881
0.0001871
0.0001862
0.0001853
0.0001844
0.0001834
0.0001825
0.0001816
0.0001807
0.0001797
0.0001787
0.0001777
0.0001767
0.0001756
0.0001745
0.0001734
0.0001722
0.0001709
0.0001696
0.0001682
0.0001667
0.0001651
0.0001634
0.0001616
0.0001596
0.0001576
0.0001553
0.000153
0.0001504
0.0001476
0.0001447
0.0001415
0.0001381
0.0001345
0.0001306
0.0001266
0.0001223
0.0001179
0.0001133
0.0001087
0.0001039
9.918e-05
9.445e-05
8.979e-05
8.523e-05
8.08e-05
7.651e-05
7.238e-05
6.843e-05
6.466e-05
6.108e-05
5.768e-05
5.448e-05
5.148e-05
4.865e-05
4.601e-05
4.355e-05
4.124e-05
3.91e-05
3.71e-05
3.523e-05
3.348e-05
3.185e-05
3.032e-05
2.889e-05
2.754e-05
2.627e-05
2.507e-05
2.394e-05
2.286e-05
2.183e-05
2.086e-05
1.993e-05
1.903e-05
1.818e-05
1.736e-05
1.656e-05
1.58e-05
1.506e-05
1.435e-05
1.365e-05
1.298e-05
1.232e-05
1.168e-05
1.105e-05
1.044e-05
9.837e-06
9.247e-06
8.666e-06
8.095e-06
7.532e-06
6.975e-06
6.426e-06
5.881e-06
5.342e-06
4.806e-06
4.274e-06
3.745e-06
3.217e-06
2.69e-06
2.164e-06
1.637e-06
1.108e-06
5.752e-07
1.135e-07
0.0002154
0.0002181
0.0002187
0.0002174
0.0002152
0.0002128
0.0002104
0.0002083
0.0002063
0.0002046
0.0002029
0.0002014
0.0002
0.0001987
0.0001974
0.0001962
0.0001951
0.000194
0.0001929
0.0001918
0.0001908
0.0001898
0.0001889
0.0001879
0.000187
0.0001861
0.0001851
0.0001842
0.0001833
0.0001824
0.0001814
0.0001805
0.0001795
0.0001785
0.0001775
0.0001765
0.0001754
0.0001742
0.0001731
0.0001718
0.0001706
0.0001692
0.0001678
0.0001663
0.0001647
0.000163
0.0001612
0.0001593
0.0001572
0.000155
0.0001526
0.0001501
0.0001474
0.0001444
0.0001413
0.0001379
0.0001343
0.0001305
0.0001265
0.0001222
0.0001178
0.0001132
0.0001086
0.0001038
9.906e-05
9.434e-05
8.969e-05
8.515e-05
8.074e-05
7.649e-05
7.24e-05
6.848e-05
6.475e-05
6.12e-05
5.784e-05
5.468e-05
5.17e-05
4.89e-05
4.629e-05
4.384e-05
4.156e-05
3.943e-05
3.745e-05
3.559e-05
3.385e-05
3.222e-05
3.07e-05
2.926e-05
2.791e-05
2.663e-05
2.541e-05
2.427e-05
2.317e-05
2.213e-05
2.114e-05
2.019e-05
1.928e-05
1.841e-05
1.757e-05
1.676e-05
1.598e-05
1.523e-05
1.45e-05
1.379e-05
1.31e-05
1.243e-05
1.178e-05
1.114e-05
1.052e-05
9.912e-06
9.314e-06
8.727e-06
8.149e-06
7.58e-06
7.019e-06
6.465e-06
5.917e-06
5.374e-06
4.835e-06
4.3e-06
3.768e-06
3.238e-06
2.709e-06
2.18e-06
1.65e-06
1.118e-06
5.817e-07
1.157e-07
0.0002104
0.0002129
0.0002138
0.0002133
0.0002118
0.0002099
0.000208
0.0002061
0.0002044
0.0002029
0.0002015
0.0002002
0.0001989
0.0001978
0.0001966
0.0001955
0.0001945
0.0001935
0.0001925
0.0001915
0.0001905
0.0001896
0.0001887
0.0001877
0.0001868
0.0001859
0.000185
0.0001841
0.0001832
0.0001823
0.0001813
0.0001804
0.0001794
0.0001784
0.0001774
0.0001763
0.0001752
0.0001741
0.0001729
0.0001717
0.0001704
0.000169
0.0001676
0.0001661
0.0001645
0.0001628
0.000161
0.0001591
0.0001571
0.0001549
0.0001526
0.00015
0.0001473
0.0001444
0.0001413
0.0001379
0.0001344
0.0001306
0.0001265
0.0001223
0.0001178
0.0001132
0.0001085
0.0001037
9.892e-05
9.417e-05
8.952e-05
8.498e-05
8.058e-05
7.634e-05
7.227e-05
6.837e-05
6.466e-05
6.113e-05
5.779e-05
5.465e-05
5.169e-05
4.892e-05
4.633e-05
4.391e-05
4.165e-05
3.955e-05
3.758e-05
3.574e-05
3.402e-05
3.24e-05
3.088e-05
2.945e-05
2.81e-05
2.682e-05
2.561e-05
2.445e-05
2.335e-05
2.231e-05
2.13e-05
2.035e-05
1.943e-05
1.854e-05
1.77e-05
1.688e-05
1.609e-05
1.532e-05
1.459e-05
1.387e-05
1.317e-05
1.25e-05
1.184e-05
1.12e-05
1.057e-05
9.952e-06
9.35e-06
8.759e-06
8.177e-06
7.605e-06
7.042e-06
6.485e-06
5.935e-06
5.39e-06
4.85e-06
4.314e-06
3.781e-06
3.25e-06
2.721e-06
2.191e-06
1.661e-06
1.127e-06
5.89e-07
1.197e-07
0.0002063
0.0002086
0.0002098
0.0002097
0.0002087
0.0002073
0.0002058
0.0002042
0.0002028
0.0002014
0.0002001
0.000199
0.0001979
0.0001968
0.0001958
0.0001948
0.0001939
0.0001929
0.000192
0.0001911
0.0001902
0.0001893
0.0001884
0.0001875
0.0001867
0.0001858
0.0001849
0.000184
0.0001831
0.0001822
0.0001812
0.0001803
0.0001793
0.0001783
0.0001773
0.0001762
0.0001752
0.000174
0.0001728
0.0001716
0.0001703
0.000169
0.0001676
0.0001661
0.0001645
0.0001629
0.0001611
0.0001592
0.0001572
0.000155
0.0001527
0.0001502
0.0001475
0.0001446
0.0001415
0.0001382
0.0001346
0.0001308
0.0001267
0.0001224
0.0001179
0.0001132
0.0001084
0.0001036
9.875e-05
9.396e-05
8.927e-05
8.471e-05
8.03e-05
7.605e-05
7.198e-05
6.809e-05
6.438e-05
6.086e-05
5.753e-05
5.44e-05
5.146e-05
4.871e-05
4.615e-05
4.375e-05
4.152e-05
3.944e-05
3.75e-05
3.569e-05
3.399e-05
3.239e-05
3.089e-05
2.947e-05
2.813e-05
2.686e-05
2.565e-05
2.45e-05
2.34e-05
2.235e-05
2.135e-05
2.039e-05
1.947e-05
1.858e-05
1.773e-05
1.691e-05
1.612e-05
1.535e-05
1.461e-05
1.389e-05
1.319e-05
1.251e-05
1.185e-05
1.12e-05
1.057e-05
9.957e-06
9.353e-06
8.761e-06
8.179e-06
7.606e-06
7.042e-06
6.485e-06
5.935e-06
5.391e-06
4.852e-06
4.316e-06
3.784e-06
3.254e-06
2.726e-06
2.197e-06
1.667e-06
1.135e-06
5.974e-07
1.255e-07
0.000203
0.0002051
0.0002064
0.0002066
0.000206
0.000205
0.0002038
0.0002025
0.0002012
0.0002
0.0001989
0.0001979
0.0001969
0.0001959
0.000195
0.0001941
0.0001932
0.0001924
0.0001915
0.0001907
0.0001899
0.000189
0.0001882
0.0001873
0.0001865
0.0001856
0.0001848
0.0001839
0.000183
0.0001821
0.0001812
0.0001803
0.0001793
0.0001783
0.0001773
0.0001763
0.0001752
0.0001741
0.0001729
0.0001717
0.0001705
0.0001691
0.0001677
0.0001663
0.0001647
0.0001631
0.0001613
0.0001595
0.0001575
0.0001553
0.0001531
0.0001506
0.0001479
0.000145
0.0001419
0.0001386
0.000135
0.0001312
0.000127
0.0001227
0.0001181
0.0001133
0.0001085
0.0001035
9.856e-05
9.37e-05
8.895e-05
8.434e-05
7.99e-05
7.563e-05
7.154e-05
6.763e-05
6.391e-05
6.039e-05
5.706e-05
5.393e-05
5.1e-05
4.827e-05
4.573e-05
4.336e-05
4.116e-05
3.912e-05
3.721e-05
3.543e-05
3.376e-05
3.219e-05
3.071e-05
2.931e-05
2.799e-05
2.674e-05
2.554e-05
2.44e-05
2.332e-05
2.228e-05
2.128e-05
2.033e-05
1.941e-05
1.853e-05
1.768e-05
1.686e-05
1.607e-05
1.53e-05
1.456e-05
1.385e-05
1.315e-05
1.247e-05
1.181e-05
1.117e-05
1.054e-05
9.925e-06
9.323e-06
8.733e-06
8.153e-06
7.582e-06
7.02e-06
6.466e-06
5.918e-06
5.376e-06
4.839e-06
4.307e-06
3.777e-06
3.25e-06
2.724e-06
2.198e-06
1.671e-06
1.142e-06
6.067e-07
1.331e-07
0.0002002
0.0002022
0.0002035
0.0002039
0.0002037
0.000203
0.000202
0.0002009
0.0001999
0.0001988
0.0001978
0.0001969
0.000196
0.0001951
0.0001943
0.0001934
0.0001927
0.0001919
0.0001911
0.0001903
0.0001895
0.0001887
0.0001879
0.0001871
0.0001863
0.0001855
0.0001847
0.0001838
0.000183
0.0001821
0.0001812
0.0001803
0.0001794
0.0001784
0.0001775
0.0001764
0.0001754
0.0001743
0.0001731
0.000172
0.0001707
0.0001694
0.0001681
0.0001666
0.0001651
0.0001635
0.0001618
0.00016
0.000158
0.0001559
0.0001537
0.0001512
0.0001486
0.0001457
0.0001426
0.0001393
0.0001356
0.0001317
0.0001276
0.0001231
0.0001184
0.0001135
0.0001085
0.0001034
9.835e-05
9.338e-05
8.854e-05
8.387e-05
7.938e-05
7.506e-05
7.093e-05
6.699e-05
6.324e-05
5.969e-05
5.635e-05
5.322e-05
5.029e-05
4.758e-05
4.506e-05
4.273e-05
4.057e-05
3.857e-05
3.67e-05
3.496e-05
3.333e-05
3.18e-05
3.035e-05
2.899e-05
2.769e-05
2.646e-05
2.529e-05
2.417e-05
2.31e-05
2.208e-05
2.11e-05
2.016e-05
1.925e-05
1.838e-05
1.754e-05
1.673e-05
1.595e-05
1.519e-05
1.446e-05
1.374e-05
1.305e-05
1.238e-05
1.173e-05
1.109e-05
1.047e-05
9.858e-06
9.261e-06
8.676e-06
8.1e-06
7.535e-06
6.977e-06
6.427e-06
5.884e-06
5.346e-06
4.814e-06
4.285e-06
3.76e-06
3.237e-06
2.716e-06
2.195e-06
1.672e-06
1.147e-06
6.171e-07
1.426e-07
0.0001979
0.0001997
0.000201
0.0002016
0.0002016
0.0002011
0.0002004
0.0001995
0.0001986
0.0001977
0.0001968
0.000196
0.0001951
0.0001943
0.0001936
0.0001928
0.0001921
0.0001914
0.0001906
0.0001899
0.0001892
0.0001884
0.0001877
0.0001869
0.0001862
0.0001854
0.0001846
0.0001838
0.000183
0.0001822
0.0001813
0.0001804
0.0001795
0.0001786
0.0001777
0.0001767
0.0001756
0.0001746
0.0001735
0.0001723
0.0001711
0.0001699
0.0001685
0.0001671
0.0001657
0.0001641
0.0001625
0.0001607
0.0001588
0.0001567
0.0001545
0.0001521
0.0001495
0.0001467
0.0001436
0.0001402
0.0001365
0.0001326
0.0001283
0.0001237
0.0001189
0.0001138
0.0001086
0.0001033
9.81e-05
9.299e-05
8.804e-05
8.328e-05
7.871e-05
7.433e-05
7.013e-05
6.613e-05
6.233e-05
5.874e-05
5.537e-05
5.223e-05
4.932e-05
4.662e-05
4.414e-05
4.185e-05
3.974e-05
3.778e-05
3.597e-05
3.428e-05
3.27e-05
3.122e-05
2.982e-05
2.85e-05
2.724e-05
2.604e-05
2.49e-05
2.381e-05
2.277e-05
2.177e-05
2.081e-05
1.988e-05
1.899e-05
1.814e-05
1.732e-05
1.652e-05
1.575e-05
1.501e-05
1.429e-05
1.359e-05
1.291e-05
1.225e-05
1.16e-05
1.097e-05
1.036e-05
9.758e-06
9.169e-06
8.591e-06
8.023e-06
7.464e-06
6.913e-06
6.37e-06
5.833e-06
5.302e-06
4.775e-06
4.253e-06
3.734e-06
3.217e-06
2.702e-06
2.187e-06
1.671e-06
1.152e-06
6.285e-07
1.539e-07
0.0001959
0.0001976
0.0001989
0.0001996
0.0001997
0.0001995
0.000199
0.0001983
0.0001975
0.0001967
0.0001959
0.0001952
0.0001944
0.0001937
0.000193
0.0001923
0.0001916
0.0001909
0.0001903
0.0001896
0.0001889
0.0001882
0.0001875
0.0001868
0.0001861
0.0001853
0.0001846
0.0001838
0.0001831
0.0001823
0.0001815
0.0001806
0.0001798
0.0001789
0.0001779
0.000177
0.000176
0.000175
0.0001739
0.0001728
0.0001717
0.0001705
0.0001692
0.0001679
0.0001664
0.0001649
0.0001634
0.0001616
0.0001598
0.0001578
0.0001557
0.0001533
0.0001507
0.0001479
0.0001448
0.0001414
0.0001377
0.0001336
0.0001293
0.0001245
0.0001195
0.0001142
0.0001088
0.0001033
9.781e-05
9.253e-05
8.744e-05
8.256e-05
7.788e-05
7.339e-05
6.911e-05
6.502e-05
6.115e-05
5.751e-05
5.41e-05
5.095e-05
4.804e-05
4.538e-05
4.293e-05
4.07e-05
3.865e-05
3.677e-05
3.502e-05
3.34e-05
3.188e-05
3.046e-05
2.912e-05
2.784e-05
2.663e-05
2.548e-05
2.438e-05
2.332e-05
2.231e-05
2.134e-05
2.041e-05
1.951e-05
1.865e-05
1.782e-05
1.701e-05
1.624e-05
1.549e-05
1.476e-05
1.406e-05
1.338e-05
1.271e-05
1.206e-05
1.143e-05
1.082e-05
1.021e-05
9.625e-06
9.047e-06
8.479e-06
7.921e-06
7.372e-06
6.83e-06
6.295e-06
5.766e-06
5.243e-06
4.725e-06
4.21e-06
3.699e-06
3.189e-06
2.682e-06
2.174e-06
1.666e-06
1.156e-06
6.409e-07
1.668e-07
0.0001942
0.0001958
0.000197
0.0001978
0.0001981
0.000198
0.0001977
0.0001971
0.0001965
0.0001958
0.0001951
0.0001944
0.0001938
0.0001931
0.0001924
0.0001918
0.0001912
0.0001905
0.0001899
0.0001893
0.0001886
0.000188
0.0001873
0.0001867
0.000186
0.0001853
0.0001846
0.0001839
0.0001832
0.0001824
0.0001816
0.0001809
0.00018
0.0001792
0.0001783
0.0001774
0.0001765
0.0001755
0.0001745
0.0001735
0.0001724
0.0001712
0.00017
0.0001687
0.0001674
0.000166
0.0001645
0.0001628
0.0001611
0.0001592
0.0001571
0.0001548
0.0001523
0.0001495
0.0001464
0.000143
0.0001392
0.0001351
0.0001305
0.0001256
0.0001204
0.0001148
0.000109
0.0001032
9.749e-05
9.197e-05
8.669e-05
8.165e-05
7.682e-05
7.221e-05
6.779e-05
6.36e-05
5.963e-05
5.593e-05
5.249e-05
4.932e-05
4.644e-05
4.381e-05
4.143e-05
3.927e-05
3.73e-05
3.55e-05
3.384e-05
3.231e-05
3.087e-05
2.952e-05
2.824e-05
2.703e-05
2.588e-05
2.477e-05
2.372e-05
2.271e-05
2.174e-05
2.081e-05
1.991e-05
1.905e-05
1.822e-05
1.741e-05
1.664e-05
1.589e-05
1.516e-05
1.446e-05
1.378e-05
1.312e-05
1.247e-05
1.184e-05
1.123e-05
1.063e-05
1.004e-05
9.464e-06
8.899e-06
8.344e-06
7.798e-06
7.26e-06
6.729e-06
6.204e-06
5.686e-06
5.172e-06
4.663e-06
4.158e-06
3.655e-06
3.155e-06
2.656e-06
2.158e-06
1.659e-06
1.159e-06
6.542e-07
1.813e-07
0.0001927
0.0001942
0.0001955
0.0001962
0.0001966
0.0001967
0.0001965
0.0001961
0.0001956
0.000195
0.0001944
0.0001938
0.0001932
0.0001926
0.000192
0.0001914
0.0001908
0.0001902
0.0001896
0.000189
0.0001884
0.0001878
0.0001872
0.0001866
0.000186
0.0001853
0.0001847
0.000184
0.0001833
0.0001826
0.0001819
0.0001811
0.0001804
0.0001796
0.0001788
0.0001779
0.0001771
0.0001761
0.0001752
0.0001742
0.0001732
0.0001721
0.000171
0.0001698
0.0001686
0.0001672
0.0001658
0.0001643
0.0001627
0.0001609
0.0001589
0.0001567
0.0001543
0.0001516
0.0001485
0.0001451
0.0001412
0.000137
0.0001323
0.0001271
0.0001215
0.0001156
0.0001094
0.0001032
9.71e-05
9.13e-05
8.577e-05
8.05e-05
7.548e-05
7.068e-05
6.61e-05
6.177e-05
5.771e-05
5.393e-05
5.046e-05
4.73e-05
4.445e-05
4.189e-05
3.96e-05
3.754e-05
3.568e-05
3.399e-05
3.244e-05
3.1e-05
2.966e-05
2.84e-05
2.72e-05
2.607e-05
2.498e-05
2.394e-05
2.294e-05
2.199e-05
2.107e-05
2.018e-05
1.933e-05
1.85e-05
1.771e-05
1.694e-05
1.62e-05
1.548e-05
1.478e-05
1.411e-05
1.345e-05
1.281e-05
1.219e-05
1.158e-05
1.099e-05
1.04e-05
9.835e-06
9.276e-06
8.727e-06
8.187e-06
7.655e-06
7.13e-06
6.612e-06
6.099e-06
5.592e-06
5.09e-06
4.592e-06
4.097e-06
3.605e-06
3.115e-06
2.626e-06
2.138e-06
1.65e-06
1.161e-06
6.682e-07
1.971e-07
0.0001915
0.0001929
0.0001941
0.0001949
0.0001954
0.0001955
0.0001954
0.0001952
0.0001948
0.0001943
0.0001938
0.0001932
0.0001927
0.0001921
0.0001916
0.000191
0.0001905
0.0001899
0.0001894
0.0001888
0.0001883
0.0001877
0.0001872
0.0001866
0.000186
0.0001854
0.0001848
0.0001842
0.0001835
0.0001829
0.0001822
0.0001815
0.0001808
0.0001801
0.0001793
0.0001785
0.0001777
0.0001769
0.000176
0.0001751
0.0001741
0.0001731
0.0001721
0.000171
0.0001699
0.0001687
0.0001674
0.000166
0.0001645
0.0001629
0.0001611
0.000159
0.0001567
0.0001541
0.0001511
0.0001477
0.0001438
0.0001394
0.0001346
0.0001291
0.0001232
0.0001167
0.00011
0.0001032
9.665e-05
9.044e-05
8.455e-05
7.898e-05
7.369e-05
6.867e-05
6.391e-05
5.943e-05
5.526e-05
5.143e-05
4.796e-05
4.483e-05
4.206e-05
3.96e-05
3.743e-05
3.55e-05
3.378e-05
3.223e-05
3.081e-05
2.95e-05
2.827e-05
2.711e-05
2.601e-05
2.496e-05
2.395e-05
2.298e-05
2.205e-05
2.116e-05
2.029e-05
1.946e-05
1.866e-05
1.788e-05
1.713e-05
1.64e-05
1.57e-05
1.501e-05
1.435e-05
1.371e-05
1.308e-05
1.247e-05
1.187e-05
1.129e-05
1.072e-05
1.016e-05
9.606e-06
9.066e-06
8.535e-06
8.012e-06
7.495e-06
6.985e-06
6.481e-06
5.983e-06
5.488e-06
4.998e-06
4.512e-06
4.029e-06
3.548e-06
3.069e-06
2.592e-06
2.116e-06
1.639e-06
1.162e-06
6.828e-07
2.14e-07
0.0001904
0.0001918
0.0001929
0.0001937
0.0001942
0.0001945
0.0001945
0.0001943
0.000194
0.0001937
0.0001932
0.0001927
0.0001923
0.0001917
0.0001912
0.0001907
0.0001902
0.0001897
0.0001892
0.0001887
0.0001882
0.0001876
0.0001871
0.0001866
0.000186
0.0001855
0.0001849
0.0001843
0.0001838
0.0001832
0.0001825
0.0001819
0.0001812
0.0001806
0.0001799
0.0001792
0.0001784
0.0001777
0.0001769
0.000176
0.0001752
0.0001743
0.0001734
0.0001724
0.0001714
0.0001703
0.0001692
0.000168
0.0001666
0.0001652
0.0001636
0.0001618
0.0001597
0.0001572
0.0001544
0.0001511
0.0001472
0.0001428
0.0001377
0.000132
0.0001255
0.0001184
0.0001109
0.0001033
9.607e-05
8.926e-05
8.287e-05
7.687e-05
7.125e-05
6.597e-05
6.102e-05
5.641e-05
5.218e-05
4.834e-05
4.49e-05
4.186e-05
3.92e-05
3.69e-05
3.49e-05
3.315e-05
3.161e-05
3.023e-05
2.897e-05
2.78e-05
2.671e-05
2.567e-05
2.467e-05
2.372e-05
2.28e-05
2.192e-05
2.106e-05
2.024e-05
1.944e-05
1.866e-05
1.792e-05
1.719e-05
1.649e-05
1.581e-05
1.514e-05
1.45e-05
1.388e-05
1.327e-05
1.267e-05
1.209e-05
1.152e-05
1.097e-05
1.042e-05
9.885e-06
9.357e-06
8.838e-06
8.327e-06
7.821e-06
7.322e-06
6.829e-06
6.34e-06
5.856e-06
5.376e-06
4.899e-06
4.426e-06
3.955e-06
3.486e-06
3.02e-06
2.555e-06
2.091e-06
1.627e-06
1.163e-06
6.979e-07
2.317e-07
0.0001895
0.0001908
0.0001919
0.0001927
0.0001933
0.0001936
0.0001937
0.0001936
0.0001934
0.0001931
0.0001927
0.0001923
0.0001919
0.0001914
0.0001909
0.0001905
0.00019
0.0001895
0.000189
0.0001886
0.0001881
0.0001876
0.0001871
0.0001866
0.0001861
0.0001856
0.0001851
0.0001846
0.000184
0.0001835
0.0001829
0.0001823
0.0001818
0.0001811
0.0001805
0.0001799
0.0001792
0.0001785
0.0001778
0.0001771
0.0001763
0.0001756
0.0001748
0.0001739
0.000173
0.0001721
0.0001712
0.0001701
0.000169
0.0001678
0.0001665
0.0001649
0.0001631
0.000161
0.0001584
0.0001553
0.0001516
0.0001472
0.000142
0.0001361
0.0001291
0.0001212
0.0001125
0.0001036
9.522e-05
8.745e-05
8.03e-05
7.376e-05
6.777e-05
6.228e-05
5.72e-05
5.254e-05
4.833e-05
4.456e-05
4.123e-05
3.835e-05
3.588e-05
3.379e-05
3.202e-05
3.05e-05
2.918e-05
2.8e-05
2.693e-05
2.593e-05
2.499e-05
2.409e-05
2.321e-05
2.237e-05
2.155e-05
2.076e-05
1.999e-05
1.924e-05
1.851e-05
1.78e-05
1.711e-05
1.645e-05
1.58e-05
1.517e-05
1.455e-05
1.395e-05
1.337e-05
1.28e-05
1.224e-05
1.169e-05
1.115e-05
1.063e-05
1.011e-05
9.597e-06
9.093e-06
8.597e-06
8.106e-06
7.62e-06
7.139e-06
6.663e-06
6.191e-06
5.722e-06
5.257e-06
4.794e-06
4.334e-06
3.877e-06
3.421e-06
2.967e-06
2.515e-06
2.064e-06
1.614e-06
1.163e-06
7.131e-07
2.499e-07
0.0001887
0.0001899
0.000191
0.0001918
0.0001924
0.0001928
0.0001929
0.0001929
0.0001928
0.0001926
0.0001923
0.0001919
0.0001915
0.0001911
0.0001907
0.0001903
0.0001898
0.0001894
0.0001889
0.0001885
0.0001881
0.0001876
0.0001872
0.0001867
0.0001862
0.0001858
0.0001853
0.0001848
0.0001843
0.0001838
0.0001833
0.0001828
0.0001823
0.0001818
0.0001812
0.0001806
0.0001801
0.0001795
0.0001788
0.0001782
0.0001776
0.0001769
0.0001762
0.0001755
0.0001748
0.000174
0.0001733
0.0001725
0.0001716
0.0001707
0.0001697
0.0001685
0.000167
0.0001653
0.0001631
0.0001604
0.0001571
0.000153
0.0001481
0.0001421
0.0001349
0.0001259
0.0001154
0.0001043
9.369e-05
8.427e-05
7.597e-05
6.886e-05
6.267e-05
5.719e-05
5.218e-05
4.765e-05
4.36e-05
4.003e-05
3.692e-05
3.428e-05
3.208e-05
3.028e-05
2.88e-05
2.757e-05
2.652e-05
2.558e-05
2.472e-05
2.392e-05
2.314e-05
2.239e-05
2.165e-05
2.093e-05
2.022e-05
1.952e-05
1.884e-05
1.817e-05
1.752e-05
1.689e-05
1.627e-05
1.566e-05
1.507e-05
1.449e-05
1.393e-05
1.338e-05
1.284e-05
1.231e-05
1.179e-05
1.127e-05
1.077e-05
1.027e-05
9.782e-06
9.298e-06
8.82e-06
8.346e-06
7.877e-06
7.412e-06
6.95e-06
6.492e-06
6.036e-06
5.584e-06
5.134e-06
4.686e-06
4.24e-06
3.796e-06
3.353e-06
2.913e-06
2.474e-06
2.036e-06
1.599e-06
1.163e-06
7.283e-07
2.684e-07
0.000188
0.0001892
0.0001902
0.000191
0.0001917
0.0001921
0.0001923
0.0001923
0.0001923
0.0001921
0.0001919
0.0001916
0.0001913
0.0001909
0.0001905
0.0001901
0.0001897
0.0001893
0.0001889
0.0001885
0.000188
0.0001876
0.0001872
0.0001868
0.0001864
0.000186
0.0001855
0.0001851
0.0001847
0.0001842
0.0001838
0.0001833
0.0001829
0.0001824
0.0001819
0.0001814
0.0001809
0.0001804
0.0001799
0.0001794
0.0001788
0.0001783
0.0001777
0.0001772
0.0001766
0.0001761
0.0001755
0.0001749
0.0001744
0.0001737
0.0001731
0.0001723
0.0001714
0.0001702
0.0001686
0.0001665
0.0001639
0.0001605
0.0001564
0.0001512
0.0001446
0.0001353
0.0001217
0.0001054
9.006e-05
7.775e-05
6.814e-05
6.104e-05
5.52e-05
5.026e-05
4.575e-05
4.165e-05
3.799e-05
3.477e-05
3.2e-05
2.97e-05
2.786e-05
2.642e-05
2.53e-05
2.441e-05
2.367e-05
2.3e-05
2.239e-05
2.179e-05
2.12e-05
2.06e-05
2.001e-05
1.941e-05
1.882e-05
1.823e-05
1.764e-05
1.707e-05
1.65e-05
1.594e-05
1.539e-05
1.485e-05
1.432e-05
1.38e-05
1.329e-05
1.279e-05
1.229e-05
1.18e-05
1.132e-05
1.085e-05
1.038e-05
9.912e-06
9.451e-06
8.994e-06
8.541e-06
8.092e-06
7.645e-06
7.2e-06
6.758e-06
6.318e-06
5.88e-06
5.444e-06
5.009e-06
4.576e-06
4.144e-06
3.714e-06
3.285e-06
2.857e-06
2.432e-06
2.007e-06
1.584e-06
1.163e-06
7.434e-07
2.869e-07
0.0001874
0.0001885
0.0001896
0.0001904
0.000191
0.0001914
0.0001917
0.0001918
0.0001918
0.0001917
0.0001916
0.0001913
0.000191
0.0001907
0.0001903
0.00019
0.0001896
0.0001892
0.0001888
0.0001885
0.0001881
0.0001877
0.0001873
0.0001869
0.0001865
0.0001861
0.0001858
0.0001854
0.000185
0.0001846
0.0001842
0.0001838
0.0001834
0.000183
0.0001826
0.0001822
0.0001818
0.0001814
0.000181
0.0001805
0.0001801
0.0001797
0.0001793
0.0001789
0.0001785
0.0001781
0.0001778
0.0001775
0.0001772
0.0001769
0.0001766
0.0001763
0.000176
0.0001754
0.0001746
0.0001733
0.0001716
0.0001694
0.0001669
0.0001641
0.0001596
0.000151
0.0001356
0.0001081
8.116e-05
6.606e-05
5.686e-05
5.063e-05
4.496e-05
4.131e-05
3.787e-05
3.459e-05
3.162e-05
2.892e-05
2.658e-05
2.471e-05
2.33e-05
2.23e-05
2.16e-05
2.109e-05
2.069e-05
2.033e-05
1.997e-05
1.959e-05
1.919e-05
1.876e-05
1.832e-05
1.786e-05
1.738e-05
1.69e-05
1.642e-05
1.594e-05
1.546e-05
1.498e-05
1.45e-05
1.403e-05
1.356e-05
1.31e-05
1.265e-05
1.219e-05
1.174e-05
1.13e-05
1.086e-05
1.042e-05
9.985e-06
9.552e-06
9.121e-06
8.692e-06
8.265e-06
7.839e-06
7.414e-06
6.99e-06
6.568e-06
6.146e-06
5.725e-06
5.305e-06
4.885e-06
4.467e-06
4.049e-06
3.632e-06
3.217e-06
2.802e-06
2.39e-06
1.978e-06
1.569e-06
1.162e-06
7.58e-07
3.05e-07
0.0001869
0.000188
0.000189
0.0001898
0.0001904
0.0001909
0.0001912
0.0001914
0.0001914
0.0001914
0.0001913
0.0001911
0.0001908
0.0001905
0.0001902
0.0001899
0.0001895
0.0001892
0.0001888
0.0001885
0.0001881