/*--------------------------------*- C++ -*----------------------------------*\
  =========                 |
  \\      /  F ield         | OpenFOAM: The Open Source CFD Toolbox
   \\    /   O peration     | Website:  https://openfoam.org
    \\  /    A nd           | Version:  7
     \\/     M anipulation  |
\*---------------------------------------------------------------------------*/
FoamFile
{
    version     2.0;
    format      ascii;
    class       surfaceScalarField;
    location    "2279.99947343801477";
    object      phi;
}
// * * * * * * * * * * * * * * * * * * * * * * * * * * * * * * * * * * * * * //

dimensions      [0 3 -1 0 0 0 0];

internalField   nonuniform List<scalar> 
8032
(
6.857e-10
2.518e-10
4.804e-10
2.053e-10
3.48e-10
1.324e-10
2.643e-10
8.372e-11
2.101e-10
5.417e-11
1.738e-10
3.639e-11
1.482e-10
2.553e-11
1.295e-10
1.868e-11
1.154e-10
1.417e-11
1.043e-10
1.107e-11
9.546e-11
8.841e-12
8.828e-11
7.184e-12
8.237e-11
5.913e-12
7.745e-11
4.913e-12
7.334e-11
4.11e-12
6.989e-11
3.452e-12
6.699e-11
2.904e-12
6.455e-11
2.441e-12
6.25e-11
2.045e-12
6.08e-11
1.702e-12
5.94e-11
1.4e-12
5.827e-11
1.132e-12
5.738e-11
8.899e-13
5.671e-11
6.691e-13
5.624e-11
4.647e-13
5.597e-11
2.729e-13
5.588e-11
9.048e-14
5.597e-11
-8.54e-14
5.622e-11
-2.572e-13
5.665e-11
-4.271e-13
5.725e-11
-5.969e-13
5.802e-11
-7.685e-13
5.896e-11
-9.431e-13
6.008e-11
-1.122e-12
6.139e-11
-1.307e-12
6.288e-11
-1.497e-12
6.458e-11
-1.695e-12
6.648e-11
-1.899e-12
6.859e-11
-2.111e-12
7.092e-11
-2.329e-12
7.347e-11
-2.553e-12
7.625e-11
-2.782e-12
7.927e-11
-3.013e-12
8.251e-11
-3.245e-12
8.598e-11
-3.474e-12
8.968e-11
-3.696e-12
9.359e-11
-3.908e-12
9.769e-11
-4.103e-12
1.02e-10
-4.276e-12
1.064e-10
-4.421e-12
1.109e-10
-4.531e-12
1.155e-10
-4.598e-12
1.201e-10
-4.616e-12
1.247e-10
-4.577e-12
1.292e-10
-4.476e-12
1.335e-10
-4.307e-12
1.376e-10
-4.067e-12
1.413e-10
-3.755e-12
1.447e-10
-3.372e-12
1.476e-10
-2.922e-12
1.5e-10
-2.413e-12
1.519e-10
-1.854e-12
1.531e-10
-1.258e-12
1.538e-10
-6.389e-13
1.538e-10
-1.164e-14
1.532e-10
6.088e-13
1.52e-10
1.208e-12
1.502e-10
1.775e-12
1.479e-10
2.297e-12
1.451e-10
2.769e-12
1.419e-10
3.183e-12
1.384e-10
3.537e-12
1.346e-10
3.829e-12
1.305e-10
4.059e-12
1.263e-10
4.23e-12
1.219e-10
4.343e-12
1.175e-10
4.403e-12
1.131e-10
4.415e-12
1.087e-10
4.382e-12
1.044e-10
4.311e-12
1.002e-10
4.207e-12
9.615e-11
4.076e-12
9.223e-11
3.922e-12
8.848e-11
3.751e-12
8.491e-11
3.567e-12
8.154e-11
3.375e-12
7.836e-11
3.177e-12
7.538e-11
2.978e-12
7.26e-11
2.781e-12
7.002e-11
2.586e-12
6.762e-11
2.397e-12
6.54e-11
2.214e-12
6.336e-11
2.04e-12
6.149e-11
1.873e-12
5.978e-11
1.716e-12
5.821e-11
1.568e-12
5.678e-11
1.43e-12
5.548e-11
1.301e-12
5.429e-11
1.181e-12
5.322e-11
1.07e-12
5.226e-11
9.682e-13
5.138e-11
8.742e-13
5.059e-11
7.88e-13
4.988e-11
7.091e-13
4.925e-11
6.37e-13
4.868e-11
5.714e-13
4.816e-11
5.117e-13
4.771e-11
4.576e-13
4.73e-11
4.086e-13
4.693e-11
3.643e-13
4.661e-11
3.244e-13
4.632e-11
2.886e-13
4.606e-11
2.564e-13
4.584e-11
2.278e-13
4.563e-11
2.024e-13
4.545e-11
1.801e-13
4.529e-11
1.608e-13
4.515e-11
1.444e-13
4.502e-11
1.309e-13
4.49e-11
1.205e-13
4.478e-11
1.134e-13
4.467e-11
1.102e-13
4.456e-11
1.118e-13
4.444e-11
1.201e-13
4.43e-11
1.385e-13
4.413e-11
1.729e-13
4.39e-11
2.297e-13
2.985e-13
9.523e-10
2.37e-10
8.501e-10
3.075e-10
7.275e-10
2.55e-10
6.183e-10
1.929e-10
5.293e-10
1.431e-10
4.592e-10
1.066e-10
4.04e-10
8.064e-11
3.605e-10
6.227e-11
3.256e-10
4.905e-11
2.973e-10
3.934e-11
2.741e-10
3.202e-11
2.549e-10
2.638e-11
2.389e-10
2.194e-11
2.255e-10
1.837e-11
2.141e-10
1.546e-11
2.045e-10
1.305e-11
1.964e-10
1.103e-11
1.895e-10
9.306e-12
1.837e-10
7.821e-12
1.789e-10
6.526e-12
1.749e-10
5.383e-12
1.717e-10
4.362e-12
1.691e-10
3.439e-12
1.672e-10
2.594e-12
1.659e-10
1.811e-12
1.651e-10
1.075e-12
1.648e-10
3.744e-13
1.65e-10
-3.009e-13
1.657e-10
-9.602e-13
1.669e-10
-1.611e-12
1.686e-10
-2.261e-12
1.707e-10
-2.917e-12
1.733e-10
-3.582e-12
1.765e-10
-4.262e-12
1.801e-10
-4.962e-12
1.843e-10
-5.682e-12
1.89e-10
-6.426e-12
1.943e-10
-7.194e-12
2.002e-10
-7.987e-12
2.067e-10
-8.801e-12
2.138e-10
-9.634e-12
2.215e-10
-1.048e-11
2.298e-10
-1.134e-11
2.387e-10
-1.219e-11
2.483e-10
-1.302e-11
2.584e-10
-1.383e-11
2.691e-10
-1.46e-11
2.803e-10
-1.53e-11
2.92e-10
-1.592e-11
3.04e-10
-1.643e-11
3.162e-10
-1.681e-11
3.287e-10
-1.703e-11
3.411e-10
-1.706e-11
3.534e-10
-1.689e-11
3.654e-10
-1.649e-11
3.77e-10
-1.585e-11
3.879e-10
-1.495e-11
3.979e-10
-1.379e-11
4.069e-10
-1.237e-11
4.147e-10
-1.072e-11
4.211e-10
-8.854e-12
4.261e-10
-6.812e-12
4.295e-10
-4.637e-12
4.312e-10
-2.379e-12
4.313e-10
-9.039e-14
4.297e-10
2.176e-12
4.266e-10
4.37e-12
4.219e-10
6.448e-12
4.158e-10
8.373e-12
4.085e-10
1.011e-11
4e-10
1.165e-11
3.906e-10
1.297e-11
3.803e-10
1.407e-11
3.694e-10
1.495e-11
3.581e-10
1.56e-11
3.463e-10
1.605e-11
3.344e-10
1.63e-11
3.225e-10
1.638e-11
3.106e-10
1.628e-11
2.988e-10
1.605e-11
2.874e-10
1.569e-11
2.762e-10
1.523e-11
2.654e-10
1.468e-11
2.551e-10
1.407e-11
2.453e-10
1.341e-11
2.359e-10
1.271e-11
2.271e-10
1.199e-11
2.189e-10
1.126e-11
2.111e-10
1.053e-11
2.039e-10
9.811e-12
1.972e-10
9.11e-12
1.91e-10
8.432e-12
1.852e-10
7.78e-12
1.799e-10
7.159e-12
1.751e-10
6.57e-12
1.706e-10
6.015e-12
1.666e-10
5.495e-12
1.629e-10
5.008e-12
1.595e-10
4.555e-12
1.564e-10
4.135e-12
1.536e-10
3.747e-12
1.511e-10
3.39e-12
1.488e-10
3.061e-12
1.468e-10
2.76e-12
1.45e-10
2.484e-12
1.433e-10
2.233e-12
1.418e-10
2.004e-12
1.405e-10
1.796e-12
1.393e-10
1.607e-12
1.382e-10
1.436e-12
1.372e-10
1.282e-12
1.364e-10
1.143e-12
1.356e-10
1.019e-12
1.349e-10
9.073e-13
1.343e-10
8.086e-13
1.338e-10
7.217e-13
1.333e-10
6.461e-13
1.329e-10
5.816e-13
1.325e-10
5.282e-13
1.321e-10
4.861e-13
1.318e-10
4.56e-13
1.314e-10
4.392e-13
1.311e-10
4.377e-13
1.308e-10
4.545e-13
1.304e-10
4.942e-13
1.3e-10
5.618e-13
1.296e-10
6.565e-13
7.458e-13
9.779e-10
1.966e-10
9.637e-10
3.217e-10
9.013e-10
3.175e-10
8.211e-10
2.731e-10
7.408e-10
2.234e-10
6.678e-10
1.796e-10
6.043e-10
1.441e-10
5.503e-10
1.163e-10
5.046e-10
9.468e-11
4.662e-10
7.782e-11
4.336e-10
6.453e-11
4.061e-10
5.393e-11
3.827e-10
4.535e-11
3.627e-10
3.832e-11
3.457e-10
3.248e-11
3.312e-10
2.758e-11
3.188e-10
2.341e-11
3.083e-10
1.983e-11
2.994e-10
1.672e-11
2.919e-10
1.399e-11
2.858e-10
1.157e-11
2.807e-10
9.393e-12
2.767e-10
7.419e-12
2.737e-10
5.607e-12
2.716e-10
3.922e-12
2.704e-10
2.336e-12
2.699e-10
8.239e-13
2.702e-10
-6.352e-13
2.713e-10
-2.06e-12
2.732e-10
-3.467e-12
2.758e-10
-4.872e-12
2.792e-10
-6.285e-12
2.833e-10
-7.72e-12
2.882e-10
-9.185e-12
2.94e-10
-1.069e-11
3.005e-10
-1.223e-11
3.079e-10
-1.383e-11
3.162e-10
-1.547e-11
3.254e-10
-1.716e-11
3.354e-10
-1.889e-11
3.465e-10
-2.066e-11
3.585e-10
-2.246e-11
3.714e-10
-2.426e-11
3.852e-10
-2.606e-11
4e-10
-2.782e-11
4.157e-10
-2.952e-11
4.322e-10
-3.112e-11
4.495e-10
-3.258e-11
4.675e-10
-3.386e-11
4.86e-10
-3.491e-11
5.048e-10
-3.568e-11
5.239e-10
-3.611e-11
5.43e-10
-3.616e-11
5.619e-10
-3.577e-11
5.803e-10
-3.489e-11
5.98e-10
-3.351e-11
6.146e-10
-3.159e-11
6.299e-10
-2.912e-11
6.437e-10
-2.613e-11
6.556e-10
-2.264e-11
6.655e-10
-1.871e-11
6.731e-10
-1.441e-11
6.783e-10
-9.829e-12
6.81e-10
-5.076e-12
6.811e-10
-2.574e-13
6.788e-10
4.517e-12
6.74e-10
9.143e-12
6.669e-10
1.353e-11
6.577e-10
1.76e-11
6.465e-10
2.129e-11
6.336e-10
2.456e-11
6.192e-10
2.737e-11
6.036e-10
2.972e-11
5.869e-10
3.16e-11
5.695e-10
3.303e-11
5.515e-10
3.401e-11
5.332e-10
3.458e-11
5.148e-10
3.477e-11
4.965e-10
3.462e-11
4.784e-10
3.416e-11
4.607e-10
3.344e-11
4.434e-10
3.249e-11
4.267e-10
3.136e-11
4.107e-10
3.008e-11
3.954e-10
2.87e-11
3.809e-10
2.723e-11
3.672e-10
2.572e-11
3.542e-10
2.418e-11
3.421e-10
2.265e-11
3.308e-10
2.113e-11
3.203e-10
1.964e-11
3.105e-10
1.82e-11
3.015e-10
1.681e-11
2.931e-10
1.549e-11
2.855e-10
1.423e-11
2.784e-10
1.305e-11
2.72e-10
1.193e-11
2.661e-10
1.089e-11
2.607e-10
9.918e-12
2.559e-10
9.015e-12
2.514e-10
8.18e-12
2.474e-10
7.409e-12
2.438e-10
6.7e-12
2.405e-10
6.048e-12
2.375e-10
5.452e-12
2.348e-10
4.907e-12
2.324e-10
4.41e-12
2.303e-10
3.958e-12
2.283e-10
3.547e-12
2.266e-10
3.175e-12
2.25e-10
2.839e-12
2.237e-10
2.536e-12
2.224e-10
2.263e-12
2.213e-10
2.02e-12
2.203e-10
1.803e-12
2.194e-10
1.612e-12
2.186e-10
1.445e-12
2.179e-10
1.302e-12
2.172e-10
1.182e-12
2.166e-10
1.086e-12
2.161e-10
1.014e-12
2.155e-10
9.685e-13
2.15e-10
9.507e-13
2.145e-10
9.636e-13
2.14e-10
1.01e-12
2.135e-10
1.089e-12
2.129e-10
1.191e-12
1.274e-12
9.752e-10
1.589e-10
9.93e-10
3.039e-10
9.727e-10
3.378e-10
9.267e-10
3.191e-10
8.688e-10
2.814e-10
8.081e-10
2.403e-10
7.498e-10
2.024e-10
6.965e-10
1.697e-10
6.488e-10
1.424e-10
6.068e-10
1.198e-10
5.701e-10
1.012e-10
5.382e-10
8.583e-11
5.105e-10
7.304e-11
4.865e-10
6.231e-11
4.658e-10
5.324e-11
4.479e-10
4.549e-11
4.325e-10
3.883e-11
4.192e-10
3.303e-11
4.08e-10
2.796e-11
3.985e-10
2.346e-11
3.907e-10
1.945e-11
3.842e-10
1.582e-11
3.791e-10
1.252e-11
3.753e-10
9.467e-12
3.726e-10
6.621e-12
3.71e-10
3.934e-12
3.704e-10
1.367e-12
3.709e-10
-1.114e-12
3.724e-10
-3.54e-12
3.749e-10
-5.937e-12
3.783e-10
-8.329e-12
3.828e-10
-1.074e-11
3.882e-10
-1.318e-11
3.947e-10
-1.567e-11
4.022e-10
-1.822e-11
4.108e-10
-2.084e-11
4.206e-10
-2.354e-11
4.314e-10
-2.632e-11
4.434e-10
-2.917e-11
4.566e-10
-3.209e-11
4.71e-10
-3.507e-11
4.867e-10
-3.809e-11
5.035e-10
-4.112e-11
5.216e-10
-4.412e-11
5.408e-10
-4.707e-11
5.612e-10
-4.99e-11
5.827e-10
-5.256e-11
6.051e-10
-5.499e-11
6.283e-10
-5.711e-11
6.522e-10
-5.884e-11
6.767e-10
-6.009e-11
7.013e-10
-6.078e-11
7.26e-10
-6.082e-11
7.503e-10
-6.012e-11
7.741e-10
-5.863e-11
7.968e-10
-5.628e-11
8.183e-10
-5.304e-11
8.381e-10
-4.889e-11
8.558e-10
-4.387e-11
8.712e-10
-3.801e-11
8.839e-10
-3.142e-11
8.937e-10
-2.422e-11
9.004e-10
-1.655e-11
9.039e-10
-8.59e-12
9.042e-10
-5.196e-13
9.012e-10
7.479e-12
8.951e-10
1.523e-11
8.861e-10
2.259e-11
8.742e-10
2.943e-11
8.599e-10
3.563e-11
8.433e-10
4.114e-11
8.248e-10
4.589e-11
8.047e-10
4.987e-11
7.832e-10
5.306e-11
7.607e-10
5.55e-11
7.375e-10
5.72e-11
7.139e-10
5.821e-11
6.901e-10
5.857e-11
6.664e-10
5.837e-11
6.429e-10
5.764e-11
6.199e-10
5.647e-11
5.974e-10
5.492e-11
5.757e-10
5.306e-11
5.549e-10
5.095e-11
5.349e-10
4.864e-11
5.16e-10
4.621e-11
4.98e-10
4.368e-11
4.811e-10
4.111e-11
4.652e-10
3.854e-11
4.503e-10
3.599e-11
4.365e-10
3.349e-11
4.236e-10
3.107e-11
4.117e-10
2.873e-11
4.007e-10
2.65e-11
3.905e-10
2.437e-11
3.812e-10
2.237e-11
3.727e-10
2.048e-11
3.649e-10
1.871e-11
3.577e-10
1.705e-11
3.512e-10
1.552e-11
3.453e-10
1.41e-11
3.399e-10
1.278e-11
3.35e-10
1.157e-11
3.306e-10
1.046e-11
3.267e-10
9.438e-12
3.231e-10
8.505e-12
3.198e-10
7.653e-12
3.169e-10
6.876e-12
3.143e-10
6.171e-12
3.119e-10
5.531e-12
3.098e-10
4.951e-12
3.079e-10
4.428e-12
3.062e-10
3.958e-12
3.047e-10
3.537e-12
3.033e-10
3.161e-12
3.021e-10
2.829e-12
3.01e-10
2.538e-12
3e-10
2.287e-12
2.992e-10
2.075e-12
2.983e-10
1.901e-12
2.976e-10
1.767e-12
2.969e-10
1.673e-12
2.962e-10
1.62e-12
2.956e-10
1.609e-12
2.949e-10
1.642e-12
2.943e-10
1.711e-12
2.937e-10
1.801e-12
1.87e-12
9.668e-10
1.296e-10
9.944e-10
2.763e-10
9.978e-10
3.344e-10
9.778e-10
3.39e-10
9.422e-10
3.17e-10
8.981e-10
2.843e-10
8.512e-10
2.493e-10
8.047e-10
2.161e-10
7.607e-10
1.863e-10
7.202e-10
1.603e-10
6.836e-10
1.379e-10
6.508e-10
1.187e-10
6.216e-10
1.022e-10
5.959e-10
8.806e-11
5.732e-10
7.586e-11
5.535e-10
6.527e-11
5.363e-10
5.603e-11
5.214e-10
4.79e-11
5.087e-10
4.07e-11
4.978e-10
3.426e-11
4.888e-10
2.847e-11
4.814e-10
2.321e-11
4.756e-10
1.838e-11
4.711e-10
1.39e-11
4.681e-10
9.703e-12
4.663e-10
5.726e-12
4.657e-10
1.917e-12
4.664e-10
-1.774e-12
4.682e-10
-5.388e-12
4.713e-10
-8.964e-12
4.755e-10
-1.253e-11
4.809e-10
-1.613e-11
4.874e-10
-1.977e-11
4.953e-10
-2.349e-11
5.043e-10
-2.729e-11
5.147e-10
-3.119e-11
5.264e-10
-3.521e-11
5.394e-10
-3.934e-11
5.538e-10
-4.357e-11
5.696e-10
-4.79e-11
5.868e-10
-5.231e-11
6.055e-10
-5.677e-11
6.256e-10
-6.125e-11
6.472e-10
-6.568e-11
6.702e-10
-7.002e-11
6.944e-10
-7.418e-11
7.2e-10
-7.81e-11
7.466e-10
-8.165e-11
7.743e-10
-8.475e-11
8.027e-10
-8.727e-11
8.317e-10
-8.909e-11
8.61e-10
-9.007e-11
8.903e-10
-9.01e-11
9.192e-10
-8.905e-11
9.474e-10
-8.682e-11
9.744e-10
-8.333e-11
9.999e-10
-7.852e-11
1.023e-09
-7.238e-11
1.044e-09
-6.495e-11
1.063e-09
-5.629e-11
1.078e-09
-4.655e-11
1.09e-09
-3.59e-11
1.098e-09
-2.456e-11
1.102e-09
-1.28e-11
1.102e-09
-8.67e-13
1.099e-09
1.096e-11
1.091e-09
2.243e-11
1.081e-09
3.331e-11
1.067e-09
4.342e-11
1.05e-09
5.262e-11
1.03e-09
6.077e-11
1.008e-09
6.783e-11
9.843e-10
7.374e-11
9.589e-10
7.851e-11
9.322e-10
8.216e-11
9.047e-10
8.472e-11
8.766e-10
8.626e-11
8.483e-10
8.686e-11
8.201e-10
8.661e-11
7.922e-10
8.559e-11
7.647e-10
8.391e-11
7.38e-10
8.166e-11
7.121e-10
7.895e-11
6.872e-10
7.586e-11
6.633e-10
7.249e-11
6.406e-10
6.891e-11
6.191e-10
6.519e-11
5.988e-10
6.141e-11
5.797e-10
5.761e-11
5.619e-10
5.385e-11
5.452e-10
5.016e-11
5.297e-10
4.657e-11
5.153e-10
4.31e-11
5.021e-10
3.979e-11
4.898e-10
3.663e-11
4.785e-10
3.364e-11
4.682e-10
3.083e-11
4.587e-10
2.819e-11
4.5e-10
2.573e-11
4.421e-10
2.343e-11
4.349e-10
2.131e-11
4.283e-10
1.934e-11
4.224e-10
1.752e-11
4.17e-10
1.585e-11
4.121e-10
1.432e-11
4.077e-10
1.292e-11
4.037e-10
1.164e-11
4.001e-10
1.047e-11
3.969e-10
9.402e-12
3.94e-10
8.436e-12
3.914e-10
7.561e-12
3.89e-10
6.77e-12
3.869e-10
6.058e-12
3.85e-10
5.419e-12
3.834e-10
4.848e-12
3.818e-10
4.342e-12
3.805e-10
3.897e-12
3.793e-10
3.51e-12
3.782e-10
3.181e-12
3.772e-10
2.907e-12
3.762e-10
2.688e-12
3.754e-10
2.525e-12
3.746e-10
2.417e-12
3.738e-10
2.363e-12
3.731e-10
2.361e-12
3.724e-10
2.402e-12
3.717e-10
2.468e-12
2.519e-12
9.592e-10
1.08e-10
9.875e-10
2.479e-10
1.003e-09
3.193e-10
9.999e-10
3.417e-10
9.821e-10
3.348e-10
9.539e-10
3.126e-10
9.196e-10
2.837e-10
8.826e-10
2.531e-10
8.455e-10
2.235e-10
8.095e-10
1.962e-10
7.758e-10
1.716e-10
7.446e-10
1.498e-10
7.163e-10
1.306e-10
6.907e-10
1.136e-10
6.678e-10
9.87e-11
6.476e-10
8.552e-11
6.298e-10
7.384e-11
6.142e-10
6.344e-11
6.008e-10
5.412e-11
5.893e-10
4.572e-11
5.797e-10
3.809e-11
5.718e-10
3.11e-11
5.656e-10
2.464e-11
5.609e-10
1.862e-11
5.576e-10
1.295e-11
5.558e-10
7.563e-12
5.553e-10
2.38e-12
5.562e-10
-2.655e-12
5.584e-10
-7.596e-12
5.619e-10
-1.249e-11
5.668e-10
-1.738e-11
5.73e-10
-2.231e-11
5.805e-10
-2.731e-11
5.894e-10
-3.24e-11
5.997e-10
-3.762e-11
6.115e-10
-4.297e-11
6.248e-10
-4.847e-11
6.396e-10
-5.411e-11
6.559e-10
-5.99e-11
6.738e-10
-6.582e-11
6.933e-10
-7.184e-11
7.145e-10
-7.792e-11
7.372e-10
-8.402e-11
7.616e-10
-9.005e-11
7.876e-10
-9.596e-11
8.15e-10
-1.016e-10
8.438e-10
-1.069e-10
8.739e-10
-1.118e-10
9.052e-10
-1.16e-10
9.373e-10
-1.194e-10
9.7e-10
-1.218e-10
1.003e-09
-1.232e-10
1.036e-09
-1.232e-10
1.069e-09
-1.218e-10
1.101e-09
-1.187e-10
1.131e-09
-1.139e-10
1.16e-09
-1.074e-10
1.187e-09
-9.9e-11
1.211e-09
-8.885e-11
1.232e-09
-7.703e-11
1.249e-09
-6.372e-11
1.262e-09
-4.916e-11
1.271e-09
-3.367e-11
1.276e-09
-1.758e-11
1.276e-09
-1.278e-12
1.272e-09
1.488e-11
1.264e-09
3.056e-11
1.252e-09
4.543e-11
1.236e-09
5.925e-11
1.217e-09
7.181e-11
1.195e-09
8.296e-11
1.17e-09
9.261e-11
1.143e-09
1.007e-10
1.114e-09
1.073e-10
1.084e-09
1.123e-10
1.053e-09
1.158e-10
1.022e-09
1.18e-10
9.896e-10
1.188e-10
9.576e-10
1.185e-10
9.26e-10
1.172e-10
8.95e-10
1.149e-10
8.648e-10
1.119e-10
8.355e-10
1.083e-10
8.072e-10
1.041e-10
7.802e-10
9.951e-11
7.545e-10
9.465e-11
7.301e-10
8.96e-11
7.07e-10
8.446e-11
6.854e-10
7.929e-11
6.65e-10
7.416e-11
6.461e-10
6.912e-11
6.284e-10
6.422e-11
6.12e-10
5.949e-11
5.969e-10
5.495e-11
5.829e-10
5.063e-11
5.7e-10
4.654e-11
5.581e-10
4.268e-11
5.473e-10
3.906e-11
5.373e-10
3.568e-11
5.282e-10
3.252e-11
5.199e-10
2.959e-11
5.124e-10
2.688e-11
5.055e-10
2.438e-11
4.993e-10
2.208e-11
4.937e-10
1.996e-11
4.886e-10
1.802e-11
4.839e-10
1.625e-11
4.798e-10
1.463e-11
4.76e-10
1.315e-11
4.727e-10
1.181e-11
4.696e-10
1.06e-11
4.669e-10
9.499e-12
4.644e-10
8.507e-12
4.622e-10
7.616e-12
4.603e-10
6.819e-12
4.585e-10
6.11e-12
4.569e-10
5.485e-12
4.555e-10
4.939e-12
4.542e-10
4.469e-12
4.53e-10
4.073e-12
4.52e-10
3.75e-12
4.51e-10
3.498e-12
4.501e-10
3.316e-12
4.493e-10
3.2e-12
4.485e-10
3.147e-12
4.477e-10
3.146e-12
4.47e-10
3.177e-12
3.209e-12
9.536e-10
9.187e-11
9.794e-10
2.221e-10
9.994e-10
2.993e-10
1.007e-09
3.339e-10
1.002e-09
3.397e-10
9.871e-10
3.278e-10
9.645e-10
3.062e-10
9.375e-10
2.801e-10
9.083e-10
2.527e-10
8.786e-10
2.259e-10
8.494e-10
2.008e-10
8.216e-10
1.776e-10
7.957e-10
1.565e-10
7.718e-10
1.375e-10
7.5e-10
1.205e-10
7.304e-10
1.051e-10
7.13e-10
9.128e-11
6.976e-10
7.881e-11
6.842e-10
6.751e-11
6.728e-10
5.721e-11
6.631e-10
4.777e-11
6.551e-10
3.906e-11
6.488e-10
3.096e-11
6.44e-10
2.336e-11
6.408e-10
1.617e-11
6.391e-10
9.299e-12
6.388e-10
2.667e-12
6.399e-10
-3.794e-12
6.425e-10
-1.015e-11
6.465e-10
-1.646e-11
6.519e-10
-2.277e-11
6.587e-10
-2.914e-11
6.67e-10
-3.56e-11
6.768e-10
-4.219e-11
6.881e-10
-4.893e-11
7.009e-10
-5.584e-11
7.154e-10
-6.295e-11
7.315e-10
-7.024e-11
7.494e-10
-7.772e-11
7.689e-10
-8.535e-11
7.902e-10
-9.312e-11
8.132e-10
-1.01e-10
8.38e-10
-1.088e-10
8.645e-10
-1.166e-10
8.928e-10
-1.242e-10
9.227e-10
-1.315e-10
9.541e-10
-1.383e-10
9.869e-10
-1.446e-10
1.021e-09
-1.5e-10
1.056e-09
-1.544e-10
1.092e-09
-1.576e-10
1.128e-09
-1.593e-10
1.164e-09
-1.594e-10
1.2e-09
-1.575e-10
1.235e-09
-1.536e-10
1.268e-09
-1.475e-10
1.3e-09
-1.391e-10
1.329e-09
-1.283e-10
1.356e-09
-1.151e-10
1.378e-09
-9.986e-11
1.397e-09
-8.263e-11
1.412e-09
-6.378e-11
1.422e-09
-4.37e-11
1.427e-09
-2.285e-11
1.428e-09
-1.719e-12
1.423e-09
1.922e-11
1.414e-09
3.951e-11
1.401e-09
5.875e-11
1.384e-09
7.663e-11
1.363e-09
9.287e-11
1.338e-09
1.073e-10
1.311e-09
1.198e-10
1.282e-09
1.302e-10
1.25e-09
1.387e-10
1.217e-09
1.452e-10
1.183e-09
1.498e-10
1.149e-09
1.526e-10
1.114e-09
1.537e-10
1.079e-09
1.534e-10
1.044e-09
1.517e-10
1.011e-09
1.488e-10
9.776e-10
1.449e-10
9.456e-10
1.402e-10
9.148e-10
1.349e-10
8.853e-10
1.29e-10
8.572e-10
1.228e-10
8.305e-10
1.163e-10
8.054e-10
1.096e-10
7.817e-10
1.03e-10
7.595e-10
9.637e-11
7.387e-10
8.987e-11
7.194e-10
8.355e-11
7.014e-10
7.744e-11
6.848e-10
7.158e-11
6.694e-10
6.6e-11
6.553e-10
6.07e-11
6.422e-10
5.571e-11
6.303e-10
5.102e-11
6.193e-10
4.663e-11
6.093e-10
4.253e-11
6.002e-10
3.873e-11
5.919e-10
3.521e-11
5.843e-10
3.196e-11
5.774e-10
2.896e-11
5.712e-10
2.621e-11
5.655e-10
2.368e-11
5.604e-10
2.137e-11
5.558e-10
1.925e-11
5.516e-10
1.733e-11
5.478e-10
1.557e-11
5.444e-10
1.398e-11
5.414e-10
1.254e-11
5.387e-10
1.124e-11
5.362e-10
1.007e-11
5.34e-10
9.022e-12
5.32e-10
8.087e-12
5.302e-10
7.259e-12
5.287e-10
6.533e-12
5.272e-10
5.904e-12
5.259e-10
5.369e-12
5.247e-10
4.923e-12
5.237e-10
4.565e-12
5.227e-10
4.292e-12
5.218e-10
4.099e-12
5.21e-10
3.98e-12
5.202e-10
3.925e-12
5.195e-10
3.916e-12
3.925e-12
9.498e-10
7.962e-11
9.724e-10
1.995e-10
9.937e-10
2.78e-10
1.007e-09
3.203e-10
1.011e-09
3.358e-10
1.006e-09
3.33e-10
9.933e-10
3.188e-10
9.754e-10
2.979e-10
9.542e-10
2.74e-10
9.311e-10
2.49e-10
9.074e-10
2.244e-10
8.84e-10
2.01e-10
8.615e-10
1.791e-10
8.402e-10
1.588e-10
8.205e-10
1.402e-10
8.025e-10
1.231e-10
7.863e-10
1.075e-10
7.718e-10
9.329e-11
7.59e-10
8.023e-11
7.481e-10
6.82e-11
7.388e-10
5.708e-11
7.311e-10
4.673e-11
7.25e-10
3.703e-11
7.205e-10
2.788e-11
7.175e-10
1.917e-11
7.16e-10
1.08e-11
7.16e-10
2.703e-12
7.174e-10
-5.218e-12
7.203e-10
-1.303e-11
7.246e-10
-2.08e-11
7.304e-10
-2.859e-11
7.378e-10
-3.646e-11
7.466e-10
-4.444e-11
7.57e-10
-5.259e-11
7.69e-10
-6.093e-11
7.827e-10
-6.949e-11
7.98e-10
-7.829e-11
8.151e-10
-8.731e-11
8.339e-10
-9.656e-11
8.546e-10
-1.06e-10
8.771e-10
-1.156e-10
9.014e-10
-1.253e-10
9.277e-10
-1.35e-10
9.557e-10
-1.447e-10
9.856e-10
-1.541e-10
1.017e-09
-1.631e-10
1.051e-09
-1.716e-10
1.085e-09
-1.794e-10
1.121e-09
-1.861e-10
1.159e-09
-1.916e-10
1.197e-09
-1.956e-10
1.235e-09
-1.978e-10
1.274e-09
-1.98e-10
1.312e-09
-1.958e-10
1.35e-09
-1.91e-10
1.386e-09
-1.835e-10
1.42e-09
-1.731e-10
1.451e-09
-1.597e-10
1.479e-09
-1.435e-10
1.504e-09
-1.245e-10
1.524e-09
-1.03e-10
1.54e-09
-7.953e-11
1.551e-09
-5.45e-11
1.557e-09
-2.85e-11
1.557e-09
-2.15e-12
1.552e-09
2.394e-11
1.543e-09
4.92e-11
1.528e-09
7.313e-11
1.509e-09
9.533e-11
1.487e-09
1.155e-10
1.461e-09
1.334e-10
1.432e-09
1.488e-10
1.4e-09
1.618e-10
1.367e-09
1.723e-10
1.331e-09
1.803e-10
1.295e-09
1.86e-10
1.258e-09
1.895e-10
1.221e-09
1.909e-10
1.184e-09
1.904e-10
1.147e-09
1.883e-10
1.111e-09
1.848e-10
1.076e-09
1.8e-10
1.042e-09
1.742e-10
1.01e-09
1.676e-10
9.784e-10
1.603e-10
9.486e-10
1.526e-10
9.203e-10
1.446e-10
8.936e-10
1.364e-10
8.684e-10
1.281e-10
8.449e-10
1.199e-10
8.228e-10
1.119e-10
8.023e-10
1.041e-10
7.832e-10
9.65e-11
7.656e-10
8.925e-11
7.492e-10
8.233e-11
7.342e-10
7.576e-11
7.203e-10
6.957e-11
7.076e-10
6.375e-11
6.959e-10
5.83e-11
6.852e-10
5.321e-11
6.755e-10
4.849e-11
6.666e-10
4.411e-11
6.585e-10
4.006e-11
6.511e-10
3.633e-11
6.444e-10
3.289e-11
6.384e-10
2.974e-11
6.329e-10
2.686e-11
6.279e-10
2.422e-11
6.234e-10
2.181e-11
6.194e-10
1.962e-11
6.157e-10
1.763e-11
6.125e-10
1.582e-11
6.095e-10
1.419e-11
6.069e-10
1.272e-11
6.045e-10
1.14e-11
6.023e-10
1.022e-11
6.004e-10
9.175e-12
5.987e-10
8.253e-12
5.972e-10
7.449e-12
5.958e-10
6.758e-12
5.945e-10
6.176e-12
5.934e-10
5.699e-12
5.924e-10
5.321e-12
5.914e-10
5.038e-12
5.906e-10
4.843e-12
5.898e-10
4.726e-12
5.89e-10
4.67e-12
4.656e-12
9.471e-10
6.999e-11
9.667e-10
1.799e-10
9.876e-10
2.57e-10
1.004e-09
3.038e-10
1.014e-09
3.263e-10
1.016e-09
3.31e-10
1.011e-09
3.234e-10
1.001e-09
3.08e-10
9.871e-10
2.879e-10
9.706e-10
2.656e-10
9.525e-10
2.425e-10
9.339e-10
2.196e-10
9.154e-10
1.976e-10
8.974e-10
1.767e-10
8.804e-10
1.572e-10
8.646e-10
1.389e-10
8.501e-10
1.22e-10
8.371e-10
1.064e-10
8.255e-10
9.18e-11
8.154e-10
7.826e-11
8.069e-10
6.563e-11
7.998e-10
5.377e-11
7.943e-10
4.259e-11
7.902e-10
3.196e-11
7.876e-10
2.179e-11
7.864e-10
1.198e-11
7.867e-10
2.428e-12
7.884e-10
-6.939e-12
7.915e-10
-1.621e-11
7.962e-10
-2.544e-11
8.023e-10
-3.472e-11
8.1e-10
-4.411e-11
8.192e-10
-5.364e-11
8.3e-10
-6.338e-11
8.424e-10
-7.336e-11
8.565e-10
-8.36e-11
8.723e-10
-9.412e-11
8.899e-10
-1.049e-10
9.094e-10
-1.16e-10
9.307e-10
-1.273e-10
9.539e-10
-1.388e-10
9.79e-10
-1.505e-10
1.006e-09
-1.621e-10
1.035e-09
-1.737e-10
1.066e-09
-1.85e-10
1.099e-09
-1.959e-10
1.133e-09
-2.061e-10
1.169e-09
-2.155e-10
1.207e-09
-2.237e-10
1.246e-09
-2.304e-10
1.285e-09
-2.353e-10
1.326e-09
-2.381e-10
1.366e-09
-2.384e-10
1.406e-09
-2.359e-10
1.445e-09
-2.304e-10
1.483e-09
-2.214e-10
1.519e-09
-2.09e-10
1.553e-09
-1.93e-10
1.583e-09
-1.735e-10
1.609e-09
-1.506e-10
1.63e-09
-1.247e-10
1.647e-09
-9.624e-11
1.658e-09
-6.592e-11
1.664e-09
-3.442e-11
1.665e-09
-2.519e-12
1.66e-09
2.904e-11
1.649e-09
5.956e-11
1.634e-09
8.843e-11
1.614e-09
1.152e-10
1.59e-09
1.394e-10
1.563e-09
1.609e-10
1.532e-09
1.794e-10
1.499e-09
1.95e-10
1.464e-09
2.075e-10
1.427e-09
2.171e-10
1.389e-09
2.239e-10
1.35e-09
2.28e-10
1.312e-09
2.297e-10
1.273e-09
2.291e-10
1.235e-09
2.265e-10
1.197e-09
2.222e-10
1.161e-09
2.165e-10
1.126e-09
2.095e-10
1.092e-09
2.015e-10
1.059e-09
1.928e-10
1.028e-09
1.835e-10
9.992e-10
1.738e-10
9.715e-10
1.64e-10
9.455e-10
1.541e-10
9.211e-10
1.443e-10
8.983e-10
1.347e-10
8.771e-10
1.253e-10
8.573e-10
1.162e-10
8.39e-10
1.075e-10
8.221e-10
9.923e-11
8.065e-10
9.136e-11
7.922e-10
8.393e-11
7.79e-10
7.694e-11
7.669e-10
7.04e-11
7.558e-10
6.429e-11
7.457e-10
5.862e-11
7.364e-10
5.335e-11
7.28e-10
4.848e-11
7.204e-10
4.399e-11
7.134e-10
3.986e-11
7.071e-10
3.606e-11
7.014e-10
3.258e-11
6.962e-10
2.94e-11
6.915e-10
2.649e-11
6.873e-10
2.385e-11
6.835e-10
2.144e-11
6.8e-10
1.926e-11
6.769e-10
1.728e-11
6.742e-10
1.55e-11
6.717e-10
1.389e-11
6.694e-10
1.246e-11
6.674e-10
1.118e-11
6.656e-10
1.005e-11
6.64e-10
9.064e-12
6.626e-10
8.207e-12
6.613e-10
7.478e-12
6.601e-10
6.87e-12
6.59e-10
6.378e-12
6.581e-10
5.996e-12
6.572e-10
5.717e-12
6.564e-10
5.532e-12
6.556e-10
5.427e-12
5.387e-12
9.453e-10
6.218e-11
9.623e-10
1.629e-10
9.821e-10
2.372e-10
9.999e-10
2.86e-10
1.013e-09
3.133e-10
1.02e-09
3.238e-10
1.022e-09
3.219e-10
1.018e-09
3.115e-10
1.01e-09
2.955e-10
9.999e-10
2.761e-10
9.873e-10
2.551e-10
9.735e-10
2.334e-10
9.591e-10
2.119e-10
9.448e-10
1.911e-10
9.308e-10
1.711e-10
9.176e-10
1.522e-10
9.053e-10
1.344e-10
8.94e-10
1.176e-10
8.839e-10
1.019e-10
8.751e-10
8.708e-11
8.676e-10
7.314e-11
8.614e-10
5.996e-11
8.566e-10
4.743e-11
8.531e-10
3.545e-11
8.51e-10
2.392e-11
8.502e-10
1.274e-11
8.508e-10
1.809e-12
8.528e-10
-8.95e-12
8.563e-10
-1.963e-11
8.611e-10
-3.03e-11
8.674e-10
-4.104e-11
8.752e-10
-5.192e-11
8.846e-10
-6.299e-11
8.955e-10
-7.431e-11
9.081e-10
-8.592e-11
9.223e-10
-9.784e-11
9.383e-10
-1.101e-10
9.561e-10
-1.227e-10
9.757e-10
-1.356e-10
9.971e-10
-1.488e-10
1.021e-09
-1.622e-10
1.046e-09
-1.758e-10
1.073e-09
-1.895e-10
1.103e-09
-2.03e-10
1.134e-09
-2.163e-10
1.167e-09
-2.291e-10
1.202e-09
-2.411e-10
1.239e-09
-2.522e-10
1.277e-09
-2.619e-10
1.317e-09
-2.7e-10
1.357e-09
-2.759e-10
1.399e-09
-2.794e-10
1.44e-09
-2.8e-10
1.482e-09
-2.774e-10
1.522e-09
-2.711e-10
1.562e-09
-2.608e-10
1.599e-09
-2.464e-10
1.634e-09
-2.277e-10
1.665e-09
-2.048e-10
1.693e-09
-1.779e-10
1.715e-09
-1.473e-10
1.733e-09
-1.137e-10
1.745e-09
-7.782e-11
1.751e-09
-4.052e-11
1.751e-09
-2.763e-12
1.746e-09
3.454e-11
1.735e-09
7.055e-11
1.718e-09
1.045e-10
1.698e-09
1.36e-10
1.673e-09
1.644e-10
1.644e-09
1.895e-10
1.612e-09
2.112e-10
1.578e-09
2.293e-10
1.542e-09
2.439e-10
1.504e-09
2.55e-10
1.465e-09
2.628e-10
1.425e-09
2.676e-10
1.385e-09
2.694e-10
1.346e-09
2.686e-10
1.307e-09
2.655e-10
1.269e-09
2.604e-10
1.231e-09
2.536e-10
1.196e-09
2.454e-10
1.161e-09
2.36e-10
1.128e-09
2.257e-10
1.097e-09
2.148e-10
1.067e-09
2.035e-10
1.039e-09
1.92e-10
1.013e-09
1.805e-10
9.88e-10
1.69e-10
9.65e-10
1.577e-10
9.435e-10
1.468e-10
9.236e-10
1.362e-10
9.051e-10
1.26e-10
8.88e-10
1.163e-10
8.723e-10
1.071e-10
8.577e-10
9.844e-11
8.444e-10
9.028e-11
8.322e-10
8.264e-11
8.21e-10
7.55e-11
8.107e-10
6.887e-11
8.013e-10
6.271e-11
7.928e-10
5.701e-11
7.85e-10
5.176e-11
7.78e-10
4.692e-11
7.716e-10
4.247e-11
7.658e-10
3.839e-11
7.605e-10
3.466e-11
7.557e-10
3.126e-11
7.514e-10
2.815e-11
7.475e-10
2.532e-11
7.44e-10
2.275e-11
7.409e-10
2.043e-11
7.381e-10
1.833e-11
7.355e-10
1.644e-11
7.332e-10
1.474e-11
7.312e-10
1.323e-11
7.294e-10
1.189e-11
7.277e-10
1.071e-11
7.262e-10
9.678e-12
7.249e-10
8.795e-12
7.237e-10
8.051e-12
7.227e-10
7.439e-12
7.217e-10
6.952e-12
7.209e-10
6.584e-12
7.201e-10
6.327e-12
7.193e-10
6.171e-12
6.105e-12
9.44e-10
5.569e-11
9.589e-10
1.48e-10
9.774e-10
2.187e-10
9.955e-10
2.68e-10
1.011e-09
2.983e-10
1.021e-09
3.131e-10
1.027e-09
3.159e-10
1.029e-09
3.099e-10
1.027e-09
2.977e-10
1.021e-09
2.815e-10
1.014e-09
2.627e-10
1.005e-09
2.427e-10
9.943e-10
2.222e-10
9.836e-10
2.018e-10
9.729e-10
1.819e-10
9.624e-10
1.627e-10
9.525e-10
1.443e-10
9.433e-10
1.268e-10
9.35e-10
1.102e-10
9.276e-10
9.442e-11
9.214e-10
7.942e-11
9.162e-10
6.511e-11
9.122e-10
5.142e-11
9.094e-10
3.824e-11
9.079e-10
2.548e-11
9.076e-10
1.304e-11
9.085e-10
8.349e-13
9.108e-10
-1.123e-11
9.144e-10
-2.324e-11
9.194e-10
-3.527e-11
9.258e-10
-4.741e-11
9.336e-10
-5.973e-11
9.429e-10
-7.229e-11
9.537e-10
-8.514e-11
9.661e-10
-9.833e-11
9.802e-10
-1.119e-10
9.959e-10
-1.258e-10
1.013e-09
-1.402e-10
1.033e-09
-1.549e-10
1.054e-09
-1.7e-10
1.077e-09
-1.854e-10
1.102e-09
-2.009e-10
1.129e-09
-2.165e-10
1.158e-09
-2.321e-10
1.189e-09
-2.473e-10
1.222e-09
-2.621e-10
1.257e-09
-2.761e-10
1.294e-09
-2.889e-10
1.332e-09
-3.002e-10
1.372e-09
-3.097e-10
1.413e-09
-3.168e-10
1.455e-09
-3.212e-10
1.497e-09
-3.222e-10
1.539e-09
-3.195e-10
1.581e-09
-3.126e-10
1.621e-09
-3.012e-10
1.659e-09
-2.849e-10
1.695e-09
-2.636e-10
1.728e-09
-2.373e-10
1.756e-09
-2.062e-10
1.779e-09
-1.708e-10
1.798e-09
-1.318e-10
1.81e-09
-9.006e-11
1.816e-09
-4.669e-11
1.816e-09
-2.809e-12
1.81e-09
4.046e-11
1.798e-09
8.213e-11
1.782e-09
1.214e-10
1.76e-09
1.575e-10
1.734e-09
1.901e-10
1.705e-09
2.189e-10
1.672e-09
2.437e-10
1.637e-09
2.643e-10
1.6e-09
2.809e-10
1.562e-09
2.935e-10
1.522e-09
3.023e-10
1.483e-09
3.075e-10
1.442e-09
3.095e-10
1.403e-09
3.084e-10
1.363e-09
3.048e-10
1.325e-09
2.988e-10
1.288e-09
2.908e-10
1.252e-09
2.812e-10
1.218e-09
2.704e-10
1.185e-09
2.586e-10
1.154e-09
2.46e-10
1.124e-09
2.331e-10
1.096e-09
2.198e-10
1.07e-09
2.066e-10
1.046e-09
1.934e-10
1.023e-09
1.805e-10
1.002e-09
1.68e-10
9.82e-10
1.559e-10
9.637e-10
1.443e-10
9.469e-10
1.332e-10
9.313e-10
1.227e-10
9.17e-10
1.128e-10
9.038e-10
1.035e-10
8.917e-10
9.472e-11
8.806e-10
8.657e-11
8.705e-10
7.899e-11
8.612e-10
7.196e-11
8.528e-10
6.545e-11
8.451e-10
5.944e-11
8.381e-10
5.391e-11
8.318e-10
4.882e-11
8.26e-10
4.415e-11
8.208e-10
3.988e-11
8.161e-10
3.598e-11
8.118e-10
3.242e-11
8.08e-10
2.918e-11
8.045e-10
2.623e-11
8.013e-10
2.356e-11
7.985e-10
2.115e-11
7.96e-10
1.897e-11
7.937e-10
1.701e-11
7.917e-10
1.527e-11
7.899e-10
1.371e-11
7.882e-10
1.234e-11
7.868e-10
1.114e-11
7.855e-10
1.01e-11
7.843e-10
9.213e-12
7.833e-10
8.478e-12
7.824e-10
7.885e-12
7.815e-10
7.426e-12
7.807e-10
7.096e-12
7.8e-10
6.887e-12
6.796e-12
9.43e-10
5.016e-11
9.562e-10
1.348e-10
9.734e-10
2.016e-10
9.912e-10
2.501e-10
1.007e-09
2.821e-10
1.021e-09
3e-10
1.03e-09
3.065e-10
1.036e-09
3.043e-10
1.038e-09
2.955e-10
1.037e-09
2.823e-10
1.034e-09
2.659e-10
1.029e-09
2.477e-10
1.022e-09
2.285e-10
1.015e-09
2.089e-10
1.008e-09
1.894e-10
1e-09
1.703e-10
9.926e-10
1.517e-10
9.856e-10
1.338e-10
9.791e-10
1.166e-10
9.734e-10
1.002e-10
9.685e-10
8.433e-11
9.644e-10
6.912e-11
9.614e-10
5.446e-11
9.594e-10
4.025e-11
9.585e-10
2.642e-11
9.586e-10
1.287e-11
9.599e-10
-4.798e-13
9.624e-10
-1.373e-11
9.662e-10
-2.696e-11
9.711e-10
-4.025e-11
9.774e-10
-5.37e-11
9.851e-10
-6.737e-11
9.941e-10
-8.132e-11
1.005e-09
-9.562e-11
1.017e-09
-1.103e-10
1.03e-09
-1.255e-10
1.045e-09
-1.41e-10
1.062e-09
-1.571e-10
1.081e-09
-1.736e-10
1.101e-09
-1.905e-10
1.124e-09
-2.077e-10
1.148e-09
-2.252e-10
1.174e-09
-2.428e-10
1.202e-09
-2.603e-10
1.233e-09
-2.776e-10
1.265e-09
-2.943e-10
1.299e-09
-3.102e-10
1.335e-09
-3.249e-10
1.373e-09
-3.379e-10
1.412e-09
-3.489e-10
1.452e-09
-3.574e-10
1.494e-09
-3.627e-10
1.536e-09
-3.643e-10
1.578e-09
-3.618e-10
1.62e-09
-3.545e-10
1.661e-09