/*--------------------------------*- C++ -*----------------------------------*\
  =========                 |
  \\      /  F ield         | OpenFOAM: The Open Source CFD Toolbox
   \\    /   O peration     | Website:  https://openfoam.org
    \\  /    A nd           | Version:  7
     \\/     M anipulation  |
\*---------------------------------------------------------------------------*/
FoamFile
{
    version     2.0;
    format      ascii;
    class       volVectorField;
    location    "2279.99947343801477";
    object      U;
}
// * * * * * * * * * * * * * * * * * * * * * * * * * * * * * * * * * * * * * //

dimensions      [0 1 -1 0 0 0 0];

internalField   nonuniform List<vector> 
4096
(
(0.001039 0.0001611 0)
(0.0007463 0.0001314 0)
(0.0005302 8.473e-05 0)
(0.0003919 5.358e-05 0)
(0.0003036 3.467e-05 0)
(0.0002457 2.329e-05 0)
(0.0002061 1.634e-05 0)
(0.0001778 1.195e-05 0)
(0.0001567 9.07e-06 0)
(0.0001406 7.084e-06 0)
(0.0001279 5.658e-06 0)
(0.0001176 4.598e-06 0)
(0.0001092 3.784e-06 0)
(0.0001023 3.145e-06 0)
(9.651e-05 2.63e-06 0)
(9.167e-05 2.209e-06 0)
(8.76e-05 1.858e-06 0)
(8.418e-05 1.562e-06 0)
(8.131e-05 1.309e-06 0)
(7.891e-05 1.089e-06 0)
(7.693e-05 8.961e-07 0)
(7.531e-05 7.243e-07 0)
(7.401e-05 5.695e-07 0)
(7.302e-05 4.282e-07 0)
(7.229e-05 2.974e-07 0)
(7.182e-05 1.747e-07 0)
(7.159e-05 5.791e-08 0)
(7.158e-05 -5.466e-08 0)
(7.18e-05 -1.646e-07 0)
(7.224e-05 -2.733e-07 0)
(7.289e-05 -3.82e-07 0)
(7.377e-05 -4.918e-07 0)
(7.486e-05 -6.036e-07 0)
(7.619e-05 -7.181e-07 0)
(7.774e-05 -8.362e-07 0)
(7.953e-05 -9.582e-07 0)
(8.158e-05 -1.085e-06 0)
(8.388e-05 -1.215e-06 0)
(8.644e-05 -1.351e-06 0)
(8.928e-05 -1.491e-06 0)
(9.241e-05 -1.634e-06 0)
(9.582e-05 -1.78e-06 0)
(9.953e-05 -1.928e-06 0)
(0.0001035 -2.077e-06 0)
(0.0001078 -2.223e-06 0)
(0.0001124 -2.366e-06 0)
(0.0001173 -2.501e-06 0)
(0.0001224 -2.626e-06 0)
(0.0001278 -2.737e-06 0)
(0.0001333 -2.83e-06 0)
(0.0001391 -2.9e-06 0)
(0.0001449 -2.943e-06 0)
(0.0001508 -2.954e-06 0)
(0.0001567 -2.929e-06 0)
(0.0001625 -2.864e-06 0)
(0.0001681 -2.756e-06 0)
(0.0001735 -2.603e-06 0)
(0.0001785 -2.403e-06 0)
(0.000183 -2.158e-06 0)
(0.0001871 -1.87e-06 0)
(0.0001905 -1.544e-06 0)
(0.0001932 -1.187e-06 0)
(0.0001952 -8.051e-07 0)
(0.0001964 -4.089e-07 0)
(0.0001968 -7.451e-09 0)
(0.0001965 3.896e-07 0)
(0.0001953 7.733e-07 0)
(0.0001934 1.136e-06 0)
(0.0001908 1.47e-06 0)
(0.0001875 1.772e-06 0)
(0.0001837 2.037e-06 0)
(0.0001794 2.264e-06 0)
(0.0001747 2.45e-06 0)
(0.0001697 2.598e-06 0)
(0.0001644 2.707e-06 0)
(0.0001589 2.78e-06 0)
(0.0001533 2.818e-06 0)
(0.0001476 2.825e-06 0)
(0.000142 2.805e-06 0)
(0.0001364 2.759e-06 0)
(0.000131 2.693e-06 0)
(0.0001257 2.609e-06 0)
(0.0001206 2.51e-06 0)
(0.0001157 2.401e-06 0)
(0.000111 2.283e-06 0)
(0.0001065 2.16e-06 0)
(0.0001023 2.033e-06 0)
(9.84e-05 1.906e-06 0)
(9.471e-05 1.78e-06 0)
(9.128e-05 1.655e-06 0)
(8.809e-05 1.534e-06 0)
(8.513e-05 1.417e-06 0)
(8.241e-05 1.305e-06 0)
(7.991e-05 1.199e-06 0)
(7.761e-05 1.098e-06 0)
(7.551e-05 1.004e-06 0)
(7.359e-05 9.152e-07 0)
(7.184e-05 8.327e-07 0)
(7.025e-05 7.56e-07 0)
(6.881e-05 6.851e-07 0)
(6.751e-05 6.197e-07 0)
(6.633e-05 5.595e-07 0)
(6.526e-05 5.043e-07 0)
(6.431e-05 4.538e-07 0)
(6.344e-05 4.077e-07 0)
(6.267e-05 3.657e-07 0)
(6.198e-05 3.275e-07 0)
(6.136e-05 2.929e-07 0)
(6.08e-05 2.615e-07 0)
(6.031e-05 2.332e-07 0)
(5.987e-05 2.076e-07 0)
(5.948e-05 1.847e-07 0)
(5.913e-05 1.641e-07 0)
(5.882e-05 1.458e-07 0)
(5.854e-05 1.296e-07 0)
(5.83e-05 1.153e-07 0)
(5.808e-05 1.029e-07 0)
(5.788e-05 9.243e-08 0)
(5.771e-05 8.381e-08 0)
(5.755e-05 7.714e-08 0)
(5.74e-05 7.26e-08 0)
(5.725e-05 7.053e-08 0)
(5.711e-05 7.155e-08 0)
(5.696e-05 7.685e-08 0)
(5.68e-05 8.866e-08 0)
(5.66e-05 1.107e-07 0)
(5.634e-05 1.47e-07 0)
(5.6e-05 1.91e-07 0)
(0.001209 0.0003128 0)
(0.001154 0.0003282 0)
(0.00101 0.000248 0)
(0.0008613 0.0001771 0)
(0.0007345 0.0001262 0)
(0.0006326 9.149e-05 0)
(0.0005524 6.795e-05 0)
(0.0004893 5.181e-05 0)
(0.0004391 4.046e-05 0)
(0.0003986 3.226e-05 0)
(0.0003657 2.615e-05 0)
(0.0003386 2.148e-05 0)
(0.0003161 1.782e-05 0)
(0.0002972 1.49e-05 0)
(0.0002813 1.253e-05 0)
(0.0002679 1.056e-05 0)
(0.0002566 8.918e-06 0)
(0.000247 7.519e-06 0)
(0.0002389 6.314e-06 0)
(0.0002321 5.266e-06 0)
(0.0002264 4.341e-06 0)
(0.0002218 3.516e-06 0)
(0.0002181 2.77e-06 0)
(0.0002153 2.088e-06 0)
(0.0002132 1.456e-06 0)
(0.0002118 8.625e-07 0)
(0.0002111 2.975e-07 0)
(0.0002111 -2.472e-07 0)
(0.0002116 -7.791e-07 0)
(0.0002129 -1.305e-06 0)
(0.0002147 -1.829e-06 0)
(0.0002171 -2.358e-06 0)
(0.0002202 -2.896e-06 0)
(0.0002239 -3.446e-06 0)
(0.0002282 -4.012e-06 0)
(0.0002332 -4.595e-06 0)
(0.000239 -5.197e-06 0)
(0.0002454 -5.82e-06 0)
(0.0002525 -6.462e-06 0)
(0.0002604 -7.123e-06 0)
(0.0002691 -7.8e-06 0)
(0.0002786 -8.488e-06 0)
(0.0002888 -9.183e-06 0)
(0.0002999 -9.876e-06 0)
(0.0003117 -1.056e-05 0)
(0.0003243 -1.122e-05 0)
(0.0003376 -1.184e-05 0)
(0.0003516 -1.242e-05 0)
(0.0003663 -1.293e-05 0)
(0.0003814 -1.334e-05 0)
(0.0003969 -1.366e-05 0)
(0.0004127 -1.384e-05 0)
(0.0004287 -1.387e-05 0)
(0.0004445 -1.374e-05 0)
(0.0004601 -1.342e-05 0)
(0.0004752 -1.29e-05 0)
(0.0004895 -1.217e-05 0)
(0.0005029 -1.123e-05 0)
(0.0005151 -1.008e-05 0)
(0.0005258 -8.73e-06 0)
(0.0005349 -7.211e-06 0)
(0.0005422 -5.546e-06 0)
(0.0005476 -3.773e-06 0)
(0.0005508 -1.932e-06 0)
(0.000552 -6.53e-08 0)
(0.000551 1.782e-06 0)
(0.000548 3.57e-06 0)
(0.000543 5.263e-06 0)
(0.0005361 6.829e-06 0)
(0.0005275 8.245e-06 0)
(0.0005174 9.495e-06 0)
(0.000506 1.057e-05 0)
(0.0004934 1.146e-05 0)
(0.0004798 1.216e-05 0)
(0.0004656 1.269e-05 0)
(0.0004508 1.305e-05 0)
(0.0004357 1.325e-05 0)
(0.0004204 1.331e-05 0)
(0.0004052 1.323e-05 0)
(0.00039 1.303e-05 0)
(0.0003752 1.274e-05 0)
(0.0003607 1.236e-05 0)
(0.0003466 1.191e-05 0)
(0.0003332 1.141e-05 0)
(0.0003203 1.086e-05 0)
(0.000308 1.029e-05 0)
(0.0002964 9.705e-06 0)
(0.0002854 9.111e-06 0)
(0.0002752 8.518e-06 0)
(0.0002656 7.934e-06 0)
(0.0002567 7.364e-06 0)
(0.0002484 6.813e-06 0)
(0.0002407 6.285e-06 0)
(0.0002337 5.781e-06 0)
(0.0002272 5.303e-06 0)
(0.0002212 4.854e-06 0)
(0.0002158 4.432e-06 0)
(0.0002108 4.038e-06 0)
(0.0002063 3.671e-06 0)
(0.0002022 3.332e-06 0)
(0.0001984 3.018e-06 0)
(0.000195 2.729e-06 0)
(0.000192 2.463e-06 0)
(0.0001892 2.22e-06 0)
(0.0001867 1.998e-06 0)
(0.0001845 1.795e-06 0)
(0.0001825 1.61e-06 0)
(0.0001806 1.442e-06 0)
(0.000179 1.29e-06 0)
(0.0001776 1.152e-06 0)
(0.0001763 1.028e-06 0)
(0.0001751 9.163e-07 0)
(0.0001741 8.16e-07 0)
(0.0001732 7.265e-07 0)
(0.0001723 6.47e-07 0)
(0.0001716 5.772e-07 0)
(0.0001709 5.164e-07 0)
(0.0001703 4.647e-07 0)
(0.0001698 4.218e-07 0)
(0.0001693 3.882e-07 0)
(0.0001689 3.645e-07 0)
(0.0001684 3.516e-07 0)
(0.000168 3.517e-07 0)
(0.0001676 3.677e-07 0)
(0.0001672 4.049e-07 0)
(0.0001667 4.702e-07 0)
(0.0001662 5.671e-07 0)
(0.0001656 6.683e-07 0)
(0.001226 0.0002775 0)
(0.001243 0.0004026 0)
(0.001194 0.0003664 0)
(0.001102 0.0002983 0)
(0.0009996 0.0002346 0)
(0.0009015 0.0001831 0)
(0.0008141 0.0001438 0)
(0.0007389 0.0001143 0)
(0.0006751 9.199e-05 0)
(0.0006213 7.498e-05 0)
(0.0005759 6.179e-05 0)
(0.0005374 5.139e-05 0)
(0.0005048 4.306e-05 0)
(0.0004771 3.628e-05 0)
(0.0004534 3.068e-05 0)
(0.0004332 2.6e-05 0)
(0.000416 2.204e-05 0)
(0.0004014 1.865e-05 0)
(0.0003889 1.571e-05 0)
(0.0003785 1.313e-05 0)
(0.0003697 1.085e-05 0)
(0.0003625 8.803e-06 0)
(0.0003568 6.949e-06 0)
(0.0003523 5.249e-06 0)
(0.000349 3.669e-06 0)
(0.0003469 2.183e-06 0)
(0.0003458 7.669e-07 0)
(0.0003457 -5.991e-07 0)
(0.0003466 -1.933e-06 0)
(0.0003485 -3.25e-06 0)
(0.0003514 -4.565e-06 0)
(0.0003552 -5.889e-06 0)
(0.00036 -7.233e-06 0)
(0.0003658 -8.606e-06 0)
(0.0003726 -1.002e-05 0)
(0.0003805 -1.147e-05 0)
(0.0003894 -1.296e-05 0)
(0.0003994 -1.45e-05 0)
(0.0004106 -1.609e-05 0)
(0.0004229 -1.772e-05 0)
(0.0004364 -1.939e-05 0)
(0.0004512 -2.108e-05 0)
(0.0004671 -2.278e-05 0)
(0.0004842 -2.448e-05 0)
(0.0005026 -2.614e-05 0)
(0.0005221 -2.775e-05 0)
(0.0005427 -2.926e-05 0)
(0.0005643 -3.065e-05 0)
(0.0005869 -3.186e-05 0)
(0.0006102 -3.286e-05 0)
(0.0006341 -3.359e-05 0)
(0.0006584 -3.401e-05 0)
(0.0006828 -3.406e-05 0)
(0.0007071 -3.37e-05 0)
(0.000731 -3.289e-05 0)
(0.0007541 -3.159e-05 0)
(0.000776 -2.978e-05 0)
(0.0007965 -2.746e-05 0)
(0.0008151 -2.464e-05 0)
(0.0008316 -2.135e-05 0)
(0.0008455 -1.764e-05 0)
(0.0008567 -1.358e-05 0)
(0.0008648 -9.258e-06 0)
(0.0008699 -4.771e-06 0)
(0.0008717 -2.226e-07 0)
(0.0008703 4.283e-06 0)
(0.0008658 8.649e-06 0)
(0.0008582 1.279e-05 0)
(0.0008478 1.662e-05 0)
(0.0008347 2.01e-05 0)
(0.0008193 2.317e-05 0)
(0.0008018 2.582e-05 0)
(0.0007826 2.803e-05 0)
(0.0007619 2.979e-05 0)
(0.0007401 3.112e-05 0)
(0.0007174 3.204e-05 0)
(0.0006942 3.257e-05 0)
(0.0006708 3.274e-05 0)
(0.0006473 3.258e-05 0)
(0.0006239 3.214e-05 0)
(0.000601 3.145e-05 0)
(0.0005786 3.054e-05 0)
(0.0005569 2.947e-05 0)
(0.0005359 2.826e-05 0)
(0.0005159 2.695e-05 0)
(0.0004968 2.556e-05 0)
(0.0004787 2.413e-05 0)
(0.0004617 2.268e-05 0)
(0.0004457 2.123e-05 0)
(0.0004307 1.98e-05 0)
(0.0004167 1.84e-05 0)
(0.0004037 1.704e-05 0)
(0.0003917 1.574e-05 0)
(0.0003805 1.45e-05 0)
(0.0003703 1.332e-05 0)
(0.0003609 1.22e-05 0)
(0.0003523 1.115e-05 0)
(0.0003444 1.017e-05 0)
(0.0003372 9.263e-06 0)
(0.0003306 8.416e-06 0)
(0.0003247 7.633e-06 0)
(0.0003193 6.911e-06 0)
(0.0003144 6.247e-06 0)
(0.0003099 5.637e-06 0)
(0.0003059 5.079e-06 0)
(0.0003023 4.57e-06 0)
(0.0002991 4.105e-06 0)
(0.0002961 3.682e-06 0)
(0.0002935 3.299e-06 0)
(0.0002912 2.951e-06 0)
(0.0002891 2.637e-06 0)
(0.0002872 2.354e-06 0)
(0.0002855 2.1e-06 0)
(0.000284 1.873e-06 0)
(0.0002826 1.671e-06 0)
(0.0002814 1.493e-06 0)
(0.0002803 1.338e-06 0)
(0.0002794 1.205e-06 0)
(0.0002785 1.095e-06 0)
(0.0002777 1.006e-06 0)
(0.0002769 9.41e-07 0)
(0.0002762 9.01e-07 0)
(0.0002756 8.886e-07 0)
(0.0002749 9.076e-07 0)
(0.0002743 9.625e-07 0)
(0.0002736 1.057e-06 0)
(0.0002729 1.183e-06 0)
(0.0002722 1.293e-06 0)
(0.001224 0.0002275 0)
(0.00126 0.0004003 0)
(0.001258 0.0004193 0)
(0.001216 0.000379 0)
(0.001149 0.0003231 0)
(0.001073 0.0002687 0)
(0.0009971 0.0002217 0)
(0.0009256 0.000183 0)
(0.000861 0.0001517 0)
(0.0008036 0.0001265 0)
(0.0007533 0.0001061 0)
(0.0007094 8.945e-05 0)
(0.0006712 7.577e-05 0)
(0.0006381 6.44e-05 0)
(0.0006095 5.486e-05 0)
(0.0005847 4.676e-05 0)
(0.0005634 3.983e-05 0)
(0.0005451 3.383e-05 0)
(0.0005294 2.859e-05 0)
(0.0005162 2.397e-05 0)
(0.0005051 1.985e-05 0)
(0.0004959 1.614e-05 0)
(0.0004885 1.276e-05 0)
(0.0004828 9.647e-06 0)
(0.0004786 6.747e-06 0)
(0.0004759 4.013e-06 0)
(0.0004745 1.402e-06 0)
(0.0004745 -1.119e-06 0)
(0.0004757 -3.584e-06 0)
(0.0004782 -6.019e-06 0)
(0.000482 -8.448e-06 0)
(0.0004871 -1.089e-05 0)
(0.0004934 -1.337e-05 0)
(0.0005011 -1.591e-05 0)
(0.00051 -1.85e-05 0)
(0.0005204 -2.117e-05 0)
(0.0005321 -2.391e-05 0)
(0.0005453 -2.674e-05 0)
(0.0005599 -2.965e-05 0)
(0.000576 -3.263e-05 0)
(0.0005937 -3.567e-05 0)
(0.0006129 -3.875e-05 0)
(0.0006337 -4.184e-05 0)
(0.0006561 -4.492e-05 0)
(0.00068 -4.793e-05 0)
(0.0007053 -5.083e-05 0)
(0.0007321 -5.356e-05 0)
(0.0007602 -5.605e-05 0)
(0.0007894 -5.822e-05 0)
(0.0008196 -6e-05 0)
(0.0008505 -6.129e-05 0)
(0.0008819 -6.201e-05 0)
(0.0009135 -6.206e-05 0)
(0.0009448 -6.137e-05 0)
(0.0009756 -5.986e-05 0)
(0.001005 -5.747e-05 0)
(0.001034 -5.416e-05 0)
(0.00106 -4.993e-05 0)
(0.001084 -4.48e-05 0)
(0.001105 -3.882e-05 0)
(0.001123 -3.208e-05 0)
(0.001138 -2.472e-05 0)
(0.001148 -1.688e-05 0)
(0.001155 -8.746e-06 0)
(0.001157 -4.973e-07 0)
(0.001155 7.677e-06 0)
(0.00115 1.56e-05 0)
(0.00114 2.312e-05 0)
(0.001127 3.01e-05 0)
(0.00111 3.643e-05 0)
(0.00109 4.205e-05 0)
(0.001068 4.689e-05 0)
(0.001043 5.094e-05 0)
(0.001016 5.419e-05 0)
(0.0009881 5.666e-05 0)
(0.0009589 5.837e-05 0)
(0.0009289 5.938e-05 0)
(0.0008986 5.974e-05 0)
(0.0008682 5.951e-05 0)
(0.0008379 5.876e-05 0)
(0.0008082 5.754e-05 0)
(0.0007791 5.595e-05 0)
(0.0007508 5.403e-05 0)
(0.0007236 5.186e-05 0)
(0.0006975 4.95e-05 0)
(0.0006726 4.7e-05 0)
(0.0006489 4.442e-05 0)
(0.0006266 4.179e-05 0)
(0.0006056 3.916e-05 0)
(0.0005859 3.655e-05 0)
(0.0005675 3.4e-05 0)
(0.0005504 3.153e-05 0)
(0.0005346 2.915e-05 0)
(0.0005199 2.687e-05 0)
(0.0005064 2.471e-05 0)
(0.0004939 2.266e-05 0)
(0.0004825 2.074e-05 0)
(0.000472 1.894e-05 0)
(0.0004624 1.726e-05 0)
(0.0004537 1.57e-05 0)
(0.0004458 1.426e-05 0)
(0.0004385 1.292e-05 0)
(0.000432 1.169e-05 0)
(0.000426 1.056e-05 0)
(0.0004207 9.53e-06 0)
(0.0004158 8.583e-06 0)
(0.0004114 7.72e-06 0)
(0.0004075 6.934e-06 0)
(0.0004039 6.219e-06 0)
(0.0004008 5.572e-06 0)
(0.0003979 4.986e-06 0)
(0.0003953 4.457e-06 0)
(0.000393 3.982e-06 0)
(0.000391 3.556e-06 0)
(0.0003891 3.177e-06 0)
(0.0003875 2.842e-06 0)
(0.000386 2.549e-06 0)
(0.0003847 2.297e-06 0)
(0.0003835 2.085e-06 0)
(0.0003824 1.912e-06 0)
(0.0003814 1.78e-06 0)
(0.0003805 1.69e-06 0)
(0.0003796 1.645e-06 0)
(0.0003787 1.647e-06 0)
(0.0003779 1.697e-06 0)
(0.0003771 1.792e-06 0)
(0.0003763 1.915e-06 0)
(0.0003756 2.012e-06 0)
(0.001219 0.0001846 0)
(0.001255 0.0003713 0)
(0.001275 0.0004302 0)
(0.001264 0.0004212 0)
(0.001229 0.000383 0)
(0.001178 0.0003358 0)
(0.00112 0.0002891 0)
(0.00106 0.0002469 0)
(0.001002 0.0002103 0)
(0.0009478 0.0001792 0)
(0.0008984 0.000153 0)
(0.000854 0.0001309 0)
(0.0008143 0.0001122 0)
(0.0007792 9.624e-05 0)
(0.0007482 8.262e-05 0)
(0.0007211 7.089e-05 0)
(0.0006974 6.07e-05 0)
(0.0006769 5.18e-05 0)
(0.0006592 4.394e-05 0)
(0.0006442 3.695e-05 0)
(0.0006315 3.067e-05 0)
(0.000621 2.498e-05 0)
(0.0006125 1.977e-05 0)
(0.0006059 1.495e-05 0)
(0.0006011 1.045e-05 0)
(0.000598 6.183e-06 0)
(0.0005965 2.102e-06 0)
(0.0005965 -1.848e-06 0)
(0.0005982 -5.714e-06 0)
(0.0006013 -9.536e-06 0)
(0.0006059 -1.335e-05 0)
(0.000612 -1.719e-05 0)
(0.0006197 -2.109e-05 0)
(0.0006289 -2.506e-05 0)
(0.0006397 -2.913e-05 0)
(0.0006522 -3.33e-05 0)
(0.0006663 -3.76e-05 0)
(0.0006821 -4.202e-05 0)
(0.0006996 -4.656e-05 0)
(0.000719 -5.12e-05 0)
(0.0007401 -5.593e-05 0)
(0.0007631 -6.071e-05 0)
(0.0007879 -6.551e-05 0)
(0.0008146 -7.027e-05 0)
(0.0008431 -7.493e-05 0)
(0.0008733 -7.941e-05 0)
(0.0009052 -8.362e-05 0)
(0.0009386 -8.745e-05 0)
(0.0009734 -9.079e-05 0)
(0.001009 -9.351e-05 0)
(0.001046 -9.547e-05 0)
(0.001083 -9.654e-05 0)
(0.001121 -9.659e-05 0)
(0.001158 -9.547e-05 0)
(0.001195 -9.309e-05 0)
(0.00123 -8.935e-05 0)
(0.001264 -8.42e-05 0)
(0.001295 -7.762e-05 0)
(0.001323 -6.964e-05 0)
(0.001349 -6.035e-05 0)
(0.00137 -4.99e-05 0)
(0.001387 -3.847e-05 0)
(0.0014 -2.631e-05 0)
(0.001408 -1.369e-05 0)
(0.001411 -8.875e-07 0)
(0.001409 1.18e-05 0)
(0.001402 2.41e-05 0)
(0.00139 3.578e-05 0)
(0.001374 4.663e-05 0)
(0.001355 5.648e-05 0)
(0.001331 6.522e-05 0)
(0.001305 7.278e-05 0)
(0.001275 7.911e-05 0)
(0.001244 8.421e-05 0)
(0.00121 8.81e-05 0)
(0.001176 9.083e-05 0)
(0.00114 9.246e-05 0)
(0.001104 9.308e-05 0)
(0.001068 9.278e-05 0)
(0.001032 9.167e-05 0)
(0.0009964 8.984e-05 0)
(0.0009617 8.741e-05 0)
(0.000928 8.449e-05 0)
(0.0008955 8.116e-05 0)
(0.0008643 7.752e-05 0)
(0.0008345 7.367e-05 0)
(0.0008062 6.968e-05 0)
(0.0007795 6.562e-05 0)
(0.0007543 6.154e-05 0)
(0.0007306 5.75e-05 0)
(0.0007085 5.353e-05 0)
(0.000688 4.968e-05 0)
(0.0006688 4.597e-05 0)
(0.0006511 4.242e-05 0)
(0.0006348 3.904e-05 0)
(0.0006197 3.585e-05 0)
(0.0006059 3.284e-05 0)
(0.0005932 3.001e-05 0)
(0.0005816 2.738e-05 0)
(0.0005709 2.493e-05 0)
(0.0005613 2.266e-05 0)
(0.0005525 2.056e-05 0)
(0.0005445 1.862e-05 0)
(0.0005372 1.684e-05 0)
(0.0005306 1.521e-05 0)
(0.0005247 1.371e-05 0)
(0.0005193 1.234e-05 0)
(0.0005144 1.11e-05 0)
(0.0005101 9.967e-06 0)
(0.0005061 8.939e-06 0)
(0.0005026 8.008e-06 0)
(0.0004995 7.167e-06 0)
(0.0004966 6.41e-06 0)
(0.0004941 5.731e-06 0)
(0.0004918 5.126e-06 0)
(0.0004897 4.589e-06 0)
(0.0004879 4.118e-06 0)
(0.0004862 3.71e-06 0)
(0.0004847 3.364e-06 0)
(0.0004834 3.077e-06 0)
(0.0004822 2.851e-06 0)
(0.000481 2.686e-06 0)
(0.00048 2.583e-06 0)
(0.000479 2.542e-06 0)
(0.000478 2.562e-06 0)
(0.0004771 2.633e-06 0)
(0.0004763 2.732e-06 0)
(0.0004754 2.809e-06 0)
(0.001214 0.000152 0)
(0.001246 0.0003355 0)
(0.001274 0.0004183 0)
(0.001282 0.0004356 0)
(0.001269 0.0004172 0)
(0.001239 0.000382 0)
(0.001199 0.0003411 0)
(0.001153 0.0003003 0)
(0.001106 0.0002623 0)
(0.001059 0.0002281 0)
(0.001015 0.0001981 0)
(0.0009731 0.0001718 0)
(0.000935 0.000149 0)
(0.0009004 0.0001291 0)
(0.0008695 0.0001117 0)
(0.0008419 9.651e-05 0)
(0.0008175 8.312e-05 0)
(0.0007962 7.126e-05 0)
(0.0007776 6.068e-05 0)
(0.0007617 5.119e-05 0)
(0.0007482 4.26e-05 0)
(0.000737 3.476e-05 0)
(0.0007279 2.753e-05 0)
(0.0007209 2.081e-05 0)
(0.0007158 1.45e-05 0)
(0.0007126 8.505e-06 0)
(0.0007111 2.75e-06 0)
(0.0007114 -2.835e-06 0)
(0.0007133 -8.31e-06 0)
(0.000717 -1.373e-05 0)
(0.0007224 -1.915e-05 0)
(0.0007294 -2.46e-05 0)
(0.0007382 -3.013e-05 0)
(0.0007487 -3.577e-05 0)
(0.0007611 -4.154e-05 0)
(0.0007752 -4.747e-05 0)
(0.0007912 -5.355e-05 0)
(0.0008092 -5.981e-05 0)
(0.0008291 -6.622e-05 0)
(0.000851 -7.278e-05 0)
(0.000875 -7.946e-05 0)
(0.000901 -8.621e-05 0)
(0.0009291 -9.297e-05 0)
(0.0009593 -9.967e-05 0)
(0.0009915 -0.0001062 0)
(0.001026 -0.0001125 0)
(0.001062 -0.0001184 0)
(0.001099 -0.0001238 0)
(0.001139 -0.0001285 0)
(0.001179 -0.0001323 0)
(0.001221 -0.000135 0)
(0.001263 -0.0001365 0)
(0.001305 -0.0001365 0)
(0.001347 -0.0001349 0)
(0.001389 -0.0001315 0)
(0.001429 -0.0001263 0)
(0.001467 -0.000119 0)
(0.001502 -0.0001097 0)
(0.001535 -9.843e-05 0)
(0.001563 -8.532e-05 0)
(0.001587 -7.057e-05 0)
(0.001607 -5.444e-05 0)
(0.001621 -3.727e-05 0)
(0.00163 -1.944e-05 0)
(0.001633 -1.373e-06 0)
(0.001631 1.654e-05 0)
(0.001623 3.391e-05 0)
(0.00161 5.039e-05 0)
(0.001593 6.571e-05 0)
(0.00157 7.963e-05 0)
(0.001544 9.199e-05 0)
(0.001514 0.0001027 0)
(0.001481 0.0001117 0)
(0.001445 0.0001189 0)
(0.001407 0.0001244 0)
(0.001368 0.0001283 0)
(0.001328 0.0001307 0)
(0.001287 0.0001316 0)
(0.001246 0.0001313 0)
(0.001206 0.0001298 0)
(0.001165 0.0001273 0)
(0.001126 0.0001239 0)
(0.001088 0.0001198 0)
(0.001051 0.0001152 0)
(0.001016 0.0001101 0)
(0.0009822 0.0001047 0)
(0.0009501 9.907e-05 0)
(0.0009197 9.336e-05 0)
(0.0008911 8.762e-05 0)
(0.0008643 8.192e-05 0)
(0.0008391 7.634e-05 0)
(0.0008157 7.09e-05 0)
(0.0007939 6.566e-05 0)
(0.0007737 6.063e-05 0)
(0.000755 5.585e-05 0)
(0.0007378 5.132e-05 0)
(0.000722 4.705e-05 0)
(0.0007074 4.304e-05 0)
(0.0006941 3.93e-05 0)
(0.0006819 3.581e-05 0)
(0.0006708 3.258e-05 0)
(0.0006607 2.958e-05 0)
(0.0006515 2.682e-05 0)
(0.0006431 2.428e-05 0)
(0.0006355 2.194e-05 0)
(0.0006286 1.98e-05 0)
(0.0006224 1.785e-05 0)
(0.0006168 1.606e-05 0)
(0.0006117 1.444e-05 0)
(0.0006072 1.296e-05 0)
(0.000603 1.162e-05 0)
(0.0005994 1.041e-05 0)
(0.000596 9.322e-06 0)
(0.0005931 8.342e-06 0)
(0.0005904 7.467e-06 0)
(0.000588 6.689e-06 0)
(0.0005859 6.004e-06 0)
(0.0005839 5.407e-06 0)
(0.0005822 4.896e-06 0)
(0.0005806 4.467e-06 0)
(0.0005792 4.121e-06 0)
(0.0005779 3.855e-06 0)
(0.0005767 3.669e-06 0)
(0.0005756 3.561e-06 0)
(0.0005745 3.525e-06 0)
(0.0005736 3.551e-06 0)
(0.0005726 3.612e-06 0)
(0.0005717 3.666e-06 0)
(0.00121 0.0001279 0)
(0.001237 0.0003008 0)
(0.001266 0.0003959 0)
(0.001284 0.0004324 0)
(0.001286 0.0004317 0)
(0.001273 0.0004098 0)
(0.001249 0.0003775 0)
(0.001217 0.0003412 0)
(0.001181 0.0003048 0)
(0.001144 0.0002702 0)
(0.001106 0.0002383 0)
(0.001069 0.0002095 0)
(0.001035 0.0001837 0)
(0.001003 0.0001607 0)
(0.0009739 0.0001403 0)
(0.0009475 0.000122 0)
(0.0009238 0.0001057 0)
(0.0009028 9.104e-05 0)
(0.0008844 7.784e-05 0)
(0.0008685 6.587e-05 0)
(0.0008549 5.495e-05 0)
(0.0008436 4.49e-05 0)
(0.0008345 3.559e-05 0)
(0.0008274 2.687e-05 0)
(0.0008223 1.864e-05 0)
(0.0008191 1.079e-05 0)
(0.0008179 3.23e-06 0)
(0.0008184 -4.128e-06 0)
(0.0008208 -1.136e-05 0)
(0.0008249 -1.853e-05 0)
(0.0008309 -2.57e-05 0)
(0.0008387 -3.293e-05 0)
(0.0008484 -4.026e-05 0)
(0.00086 -4.774e-05 0)
(0.0008735 -5.539e-05 0)
(0.000889 -6.324e-05 0)
(0.0009065 -7.131e-05 0)
(0.0009261 -7.959e-05 0)
(0.0009478 -8.808e-05 0)
(0.0009717 -9.675e-05 0)
(0.0009978 -0.0001056 0)
(0.001026 -0.0001145 0)
(0.001057 -0.0001234 0)
(0.00109 -0.0001323 0)
(0.001125 -0.0001409 0)
(0.001162 -0.0001492 0)
(0.001201 -0.000157 0)
(0.001242 -0.0001641 0)
(0.001285 -0.0001702 0)
(0.001329 -0.0001752 0)
(0.001374 -0.0001788 0)
(0.001421 -0.0001808 0)
(0.001467 -0.0001808 0)
(0.001513 -0.0001788 0)
(0.001558 -0.0001743 0)
(0.001602 -0.0001673 0)
(0.001644 -0.0001577 0)
(0.001683 -0.0001454 0)
(0.001718 -0.0001306 0)
(0.00175 -0.0001132 0)
(0.001776 -9.366e-05 0)
(0.001798 -7.228e-05 0)
(0.001814 -4.952e-05 0)
(0.001823 -2.588e-05 0)
(0.001827 -1.918e-06 0)
(0.001825 2.183e-05 0)
(0.001816 4.484e-05 0)
(0.001802 6.668e-05 0)
(0.001782 8.696e-05 0)
(0.001758 0.0001054 0)
(0.001729 0.0001218 0)
(0.001696 0.0001359 0)
(0.001659 0.0001478 0)
(0.00162 0.0001574 0)
(0.001579 0.0001648 0)
(0.001536 0.00017 0)
(0.001493 0.0001731 0)
(0.001448 0.0001744 0)
(0.001403 0.000174 0)
(0.001359 0.0001721 0)
(0.001315 0.0001688 0)
(0.001272 0.0001644 0)
(0.001231 0.000159 0)
(0.001191 0.0001529 0)
(0.001152 0.0001462 0)
(0.001115 0.0001391 0)
(0.00108 0.0001318 0)
(0.001047 0.0001242 0)
(0.001016 0.0001167 0)
(0.0009863 0.0001091 0)
(0.0009588 0.0001018 0)
(0.0009332 9.457e-05 0)
(0.0009093 8.763e-05 0)
(0.0008872 8.098e-05 0)
(0.0008667 7.464e-05 0)
(0.0008478 6.864e-05 0)
(0.0008304 6.297e-05 0)
(0.0008144 5.765e-05 0)
(0.0007998 5.267e-05 0)
(0.0007864 4.804e-05 0)
(0.0007741 4.373e-05 0)
(0.0007629 3.974e-05 0)
(0.0007527 3.606e-05 0)
(0.0007435 3.267e-05 0)
(0.0007351 2.955e-05 0)
(0.0007275 2.669e-05 0)
(0.0007206 2.407e-05 0)
(0.0007143 2.168e-05 0)
(0.0007087 1.951e-05 0)
(0.0007036 1.753e-05 0)
(0.000699 1.573e-05 0)
(0.0006949 1.411e-05 0)
(0.0006912 1.264e-05 0)
(0.0006879 1.132e-05 0)
(0.0006849 1.014e-05 0)
(0.0006823 9.086e-06 0)
(0.0006798 8.156e-06 0)
(0.0006777 7.342e-06 0)
(0.0006758 6.639e-06 0)
(0.000674 6.043e-06 0)
(0.0006724 5.551e-06 0)
(0.000671 5.161e-06 0)
(0.0006697 4.869e-06 0)
(0.0006685 4.672e-06 0)
(0.0006674 4.562e-06 0)
(0.0006663 4.525e-06 0)
(0.0006654 4.539e-06 0)
(0.0006644 4.566e-06 0)
(0.001208 0.0001098 0)
(0.00123 0.0002698 0)
(0.001258 0.0003694 0)
(0.001281 0.0004187 0)
(0.001292 0.0004323 0)
(0.001291 0.0004229 0)
(0.001279 0.0004 0)
(0.00126 0.0003699 0)
(0.001235 0.0003371 0)
(0.001207 0.000304 0)
(0.001177 0.0002721 0)
(0.001147 0.0002423 0)
(0.001117 0.0002148 0)
(0.001089 0.0001896 0)
(0.001063 0.0001668 0)
(0.001039 0.0001461 0)
(0.001017 0.0001272 0)
(0.0009971 0.0001101 0)
(0.0009797 9.455e-05 0)
(0.0009645 8.026e-05 0)
(0.0009516 6.71e-05 0)
(0.0009407 5.49e-05 0)
(0.0009319 4.351e-05 0)
(0.0009251 3.279e-05 0)
(0.0009203 2.262e-05 0)
(0.0009174 1.287e-05 0)
(0.0009165 3.437e-06 0)
(0.0009173 -5.768e-06 0)
(0.0009201 -1.484e-05 0)
(0.0009247 -2.385e-05 0)
(0.0009312 -3.288e-05 0)
(0.0009396 -4.198e-05 0)
(0.00095 -5.123e-05 0)
(0.0009623 -6.066e-05 0)
(0.0009766 -7.031e-05 0)
(0.0009931 -8.022e-05 0)
(0.001012 -9.039e-05 0)
(0.001032 -0.0001008 0)
(0.001055 -0.0001115 0)
(0.001081 -0.0001225 0)
(0.001108 -0.0001336 0)
(0.001138 -0.0001448 0)
(0.001171 -0.0001561 0)
(0.001205 -0.0001672 0)
(0.001242 -0.0001781 0)
(0.001282 -0.0001886 0)
(0.001323 -0.0001984 0)
(0.001367 -0.0002073 0)
(0.001412 -0.0002151 0)
(0.001459 -0.0002215 0)
(0.001507 -0.0002261 0)
(0.001556 -0.0002286 0)
(0.001606 -0.0002287 0)
(0.001655 -0.0002261 0)
(0.001703 -0.0002206 0)
(0.00175 -0.0002119 0)
(0.001795 -0.0001998 0)
(0.001837 -0.0001843 0)
(0.001875 -0.0001655 0)
(0.001909 -0.0001436 0)
(0.001938 -0.0001188 0)
(0.001961 -9.172e-05 0)
(0.001978 -6.284e-05 0)
(0.001989 -3.286e-05 0)
(0.001993 -2.477e-06 0)
(0.00199 2.762e-05 0)
(0.001981 5.677e-05 0)
(0.001965 8.441e-05 0)
(0.001944 0.0001101 0)
(0.001918 0.0001333 0)
(0.001886 0.000154 0)
(0.001851 0.0001719 0)
(0.001812 0.0001869 0)
(0.001771 0.000199 0)
(0.001727 0.0002083 0)
(0.001681 0.0002149 0)
(0.001634 0.0002189 0)
(0.001587 0.0002206 0)
(0.001539 0.00022 0)
(0.001492 0.0002176 0)
(0.001446 0.0002135 0)
(0.0014 0.000208 0)
(0.001356 0.0002012 0)
(0.001313 0.0001936 0)
(0.001272 0.0001852 0)
(0.001233 0.0001762 0)
(0.001196 0.0001669 0)
(0.001161 0.0001574 0)
(0.001128 0.0001479 0)
(0.001097 0.0001384 0)
(0.001067 0.0001291 0)
(0.00104 0.0001201 0)
(0.001015 0.0001113 0)
(0.0009912 0.0001029 0)
(0.0009695 9.493e-05 0)
(0.0009494 8.734e-05 0)
(0.0009309 8.018e-05 0)
(0.0009139 7.345e-05 0)
(0.0008982 6.715e-05 0)
(0.0008839 6.128e-05 0)
(0.0008709 5.582e-05 0)
(0.0008589 5.077e-05 0)
(0.0008481 4.609e-05 0)
(0.0008382 4.179e-05 0)
(0.0008292 3.783e-05 0)
(0.000821 3.419e-05 0)
(0.0008136 3.086e-05 0)
(0.0008069 2.782e-05 0)
(0.0008009 2.505e-05 0)
(0.0007954 2.252e-05 0)
(0.0007905 2.023e-05 0)
(0.000786 1.815e-05 0)
(0.0007821 1.628e-05 0)
(0.0007785 1.459e-05 0)
(0.0007753 1.307e-05 0)
(0.0007724 1.172e-05 0)
(0.0007698 1.052e-05 0)
(0.0007675 9.463e-06 0)
(0.0007654 8.546e-06 0)
(0.0007635 7.761e-06 0)
(0.0007618 7.104e-06 0)
(0.0007603 6.569e-06 0)
(0.0007589 6.152e-06 0)
(0.0007576 5.848e-06 0)
(0.0007565 5.647e-06 0)
(0.0007554 5.537e-06 0)
(0.0007544 5.495e-06 0)
(0.0007535 5.492e-06 0)
(0.001206 9.575e-05 0)
(0.001225 0.0002428 0)
(0.001251 0.0003424 0)
(0.001275 0.0003995 0)
(0.001291 0.0004238 0)
(0.001299 0.000425 0)
(0.001297 0.000411 0)
(0.001288 0.0003878 0)
(0.001272 0.0003596 0)
(0.001253 0.0003293 0)
(0.001231 0.0002988 0)
(0.001207 0.0002692 0)
(0.001184 0.0002411 0)
(0.00116 0.0002147 0)
(0.001138 0.0001903 0)
(0.001117 0.0001677 0)
(0.001097 0.0001469 0)
(0.00108 0.0001278 0)
(0.001064 0.0001101 0)
(0.00105 9.374e-05 0)
(0.001038 7.853e-05 0)
(0.001028 6.432e-05 0)
(0.00102 5.095e-05 0)
(0.001014 3.83e-05 0)
(0.00101 2.621e-05 0)
(0.001007 1.458e-05 0)
(0.001007 3.284e-06 0)
(0.001008 -7.78e-06 0)
(0.001011 -1.871e-05 0)
(0.001016 -2.96e-05 0)
(0.001023 -4.052e-05 0)
(0.001032 -5.156e-05 0)
(0.001043 -6.278e-05 0)
(0.001055 -7.422e-05 0)
(0.00107 -8.595e-05 0)
(0.001087 -9.798e-05 0)
(0.001106 -0.0001103 0)
(0.001128 -0.000123 0)
(0.001152 -0.000136 0)
(0.001178 -0.0001493 0)
(0.001206 -0.0001628 0)
(0.001237 -0.0001765 0)
(0.00127 -0.0001902 0)
(0.001306 -0.0002037 0)
(0.001345 -0.000217 0)
(0.001385 -0.0002298 0)
(0.001428 -0.0002418 0)
(0.001474 -0.0002527 0)
(0.001521 -0.0002623 0)
(0.00157 -0.0002701 0)
(0.00162 -0.0002758 0)
(0.001671 -0.000279 0)
(0.001723 -0.0002793 0)
(0.001774 -0.0002763 0)
(0.001825 -0.0002697 0)
(0.001874 -0.0002592 0)
(0.001922 -0.0002445 0)
(0.001966 -0.0002257 0)
(0.002006 -0.0002028 0)
(0.002042 -0.000176 0)
(0.002073 -0.0001457 0)
(0.002097 -0.0001125 0)
(0.002115 -7.706e-05 0)
(0.002127 -4.027e-05 0)
(0.002131 -2.988e-06 0)
(0.002128 3.39e-05 0)
(0.002118 6.96e-05 0)
(0.002101 0.0001034 0)
(0.002079 0.0001347 0)
(0.002051 0.0001631 0)
(0.002018 0.0001883 0)
(0.001981 0.0002101 0)
(0.00194 0.0002283 0)
(0.001896 0.0002431 0)
(0.00185 0.0002543 0)
(0.001802 0.0002623 0)
(0.001753 0.0002672 0)
(0.001704 0.0002692 0)
(0.001654 0.0002685 0)
(0.001605 0.0002655 0)
(0.001557 0.0002605 0)
(0.001509 0.0002537 0)
(0.001463 0.0002455 0)
(0.001419 0.0002362 0)
(0.001377 0.000226 0)
(0.001336 0.0002151 0)
(0.001298 0.0002038 0)
(0.001261 0.0001922 0)
(0.001227 0.0001806 0)
(0.001195 0.0001691 0)
(0.001164 0.0001578 0)
(0.001136 0.0001468 0)
(0.00111 0.0001362 0)
(0.001086 0.0001259 0)
(0.001063 0.0001162 0)
(0.001042 0.000107 0)
(0.001023 9.824e-05 0)
(0.001006 9.004e-05 0)
(0.0009894 8.236e-05 0)
(0.0009745 7.52e-05 0)
(0.000961 6.855e-05 0)
(0.0009486 6.237e-05 0)
(0.0009373 5.667e-05 0)
(0.000927 5.14e-05 0)
(0.0009176 4.656e-05 0)
(0.0009091 4.211e-05 0)
(0.0009014 3.804e-05 0)
(0.0008944 3.431e-05 0)
(0.0008881 3.091e-05 0)
(0.0008824 2.782e-05 0)
(0.0008773 2.5e-05 0)
(0.0008726 2.245e-05 0)
(0.0008685 2.014e-05 0)
(0.0008647 1.806e-05 0)
(0.0008613 1.619e-05 0)
(0.0008583 1.452e-05 0)
(0.0008556 1.303e-05 0)
(0.0008531 1.172e-05 0)
(0.000851 1.057e-05 0)
(0.000849 9.578e-06 0)
(0.0008472 8.739e-06 0)
(0.0008457 8.044e-06 0)
(0.0008442 7.487e-06 0)
(0.0008429 7.062e-06 0)
(0.0008418 6.759e-06 0)
(0.0008407 6.565e-06 0)
(0.0008397 6.462e-06 0)
(0.0008387 6.428e-06 0)
(0.001205 8.459e-05 0)
(0.001221 0.0002194 0)
(0.001244 0.0003163 0)
(0.001269 0.0003775 0)
(0.001288 0.0004094 0)
(0.001301 0.0004191 0)
(0.001307 0.000413 0)
(0.001305 0.0003965 0)
(0.001298 0.0003734 0)
(0.001287 0.0003467 0)
(0.001272 0.0003184 0)
(0.001255 0.00029 0)
(0.001237 0.0002621 0)
(0.001218 0.0002354 0)
(0.0012 0.0002101 0)
(0.001183 0.0001863 0)
(0.001167 0.0001641 0)
(0.001152 0.0001433 0)
(0.001138 0.0001239 0)
(0.001126 0.0001058 0)
(0.001115 8.881e-05 0)
(0.001107 7.279e-05 0)
(0.0011 5.761e-05 0)
(0.001094 4.314e-05 0)
(0.001091 2.925e-05 0)
(0.001089 1.582e-05 0)
(0.001089 2.712e-06 0)
(0.00109 -1.017e-05 0)
(0.001094 -2.293e-05 0)
(0.001099 -3.568e-05 0)
(0.001106 -4.849e-05 0)
(0.001115 -6.146e-05 0)
(0.001126 -7.465e-05 0)
(0.001139 -8.812e-05 0)
(0.001154 -0.0001019 0)
(0.001171 -0.0001161 0)
(0.001191 -0.0001307 0)
(0.001212 -0.0001457 0)
(0.001236 -0.000161 0)
(0.001263 -0.0001767 0)
(0.001291 -0.0001927 0)
(0.001323 -0.0002088 0)
(0.001356 -0.000225 0)
(0.001393 -0.0002411 0)
(0.001431 -0.0002568 0)
(0.001473 -0.000272 0)
(0.001516 -0.0002863 0)
(0.001562 -0.0002993 0)
(0.00161 -0.0003108 0)
(0.00166 -0.0003202 0)
(0.001711 -0.0003272 0)
(0.001764 -0.0003312 0)
(0.001817 -0.0003318 0)
(0.00187 -0.0003285 0)
(0.001923 -0.0003209 0)
(0.001974 -0.0003087 0)
(0.002023 -0.0002915 0)
(0.002069 -0.0002693 0)
(0.002111 -0.0002421 0)
(0.002149 -0.0002102 0)
(0.002181 -0.0001741 0)
(0.002207 -0.0001344 0)
(0.002226 -9.199e-05 0)
(0.002237 -4.797e-05 0)
(0.002241 -3.381e-06 0)
(0.002238 4.069e-05 0)
(0.002227 8.327e-05 0)
(0.00221 0.0001235 0)
(0.002186 0.0001607 0)
(0.002157 0.0001944 0)
(0.002123 0.0002242 0)
(0.002084 0.00025 0)
(0.002042 0.0002715 0)
(0.001997 0.0002889 0)
(0.001949 0.0003021 0)
(0.0019 0.0003115 0)
(0.00185 0.0003172 0)
(0.001799 0.0003194 0)
(0.001748 0.0003185 0)
(0.001698 0.0003149 0)
(0.001648 0.0003089 0)
(0.0016 0.0003008 0)
(0.001553 0.0002911 0)