/*--------------------------------*- C++ -*----------------------------------*\
  =========                 |
  \\      /  F ield         | OpenFOAM: The Open Source CFD Toolbox
   \\    /   O peration     | Website:  https://openfoam.org
    \\  /    A nd           | Version:  7
     \\/     M anipulation  |
\*---------------------------------------------------------------------------*/
FoamFile
{
    version     2.0;
    format      ascii;
    class       volScalarField;
    location    "2279.99947343801477";
    object      Y.K;
}
// * * * * * * * * * * * * * * * * * * * * * * * * * * * * * * * * * * * * * //

dimensions      [0 0 0 0 0 0 0];

internalField   nonuniform List<scalar> 
4096
(
2.785e-74
2.471e-72
-8.051e-73
2.848e-72
-1.987e-73
-6.49e-73
2.549e-73
8.369e-74
2.791e-73
-1.739e-72
2.861e-71
-4.487e-70
6.93e-69
-9.544e-68
1.297e-66
-1.645e-65
1.992e-64
-2.336e-63
2.56e-62
-2.751e-61
2.843e-60
-2.827e-59
2.732e-58
-2.549e-57
2.305e-56
-2.003e-55
1.677e-54
-1.321e-53
9.921e-53
-7.37e-52
5.383e-51
-3.845e-50
2.668e-49
-1.782e-48
1.132e-47
-6.71e-47
3.571e-46
-1.607e-45
4.482e-45
1.626e-44
-4.184e-43
4.37e-42
-3.741e-41
2.669e-40
-1.756e-39
1.025e-38
-5.56e-38
2.781e-37
-1.291e-36
5.527e-36
-2.218e-35
8.543e-35
-3.28e-34
1.437e-33
-6.276e-33
3.592e-32
-1.668e-31
1.067e-30
-3.512e-30
2.351e-29
-4.577e-29
3.211e-28
-6.738e-29
4.042e-27
1.599e-26
2.743e-26
2.338e-25
8.11e-25
1.721e-24
3.373e-24
2.477e-23
7.112e-23
1.717e-22
1.274e-21
5.684e-21
8.731e-20
1.356e-18
3.616e-18
7.122e-18
1.247e-17
2.05e-17
3.24e-17
4.973e-17
7.458e-17
1.097e-16
1.585e-16
2.256e-16
3.166e-16
4.386e-16
6.003e-16
8.124e-16
1.088e-15
1.443e-15
1.897e-15
2.472e-15
3.196e-15
4.102e-15
5.227e-15
6.617e-15
8.325e-15
1.041e-14
1.295e-14
1.603e-14
1.974e-14
2.421e-14
2.954e-14
3.591e-14
4.348e-14
5.245e-14
6.305e-14
7.553e-14
9.019e-14
1.074e-13
1.274e-13
1.508e-13
1.78e-13
2.095e-13
2.46e-13
2.882e-13
3.367e-13
3.925e-13
4.564e-13
5.293e-13
6.117e-13
7.036e-13
8.029e-13
9.023e-13
9.814e-13
-8.244e-72
4.336e-71
-5.446e-71
6.506e-72
3.205e-71
-2.459e-71
2.545e-72
4.901e-72
1.735e-71
-9.788e-71
1.569e-69
-2.529e-68
3.819e-67
-5.435e-66
7.296e-65
-9.268e-64
1.118e-62
-1.287e-61
1.419e-60
-1.506e-59
1.544e-58
-1.531e-57
1.471e-56
-1.368e-55
1.231e-54
-1.066e-53
8.882e-53
-6.973e-52
5.242e-51
-3.895e-50
2.845e-49
-2.032e-48
1.41e-47
-9.422e-47
5.994e-46
-3.564e-45
1.917e-44
-8.696e-44
2.715e-43
5.48e-43
-1.96e-41
2.108e-40
-1.831e-39
1.307e-38
-8.62e-38
5.076e-37
-2.753e-36
1.38e-35
-6.329e-35
2.699e-34
-1.076e-33
4.149e-33
-1.57e-32
6.651e-32
-2.725e-31
1.592e-30
-6.942e-30
4.804e-29
-1.406e-28
1.118e-27
-1.735e-27
1.56e-26
4.651e-27
2.099e-25
8.164e-25
1.653e-24
1.18e-23
4.063e-23
8.682e-23
1.771e-22
1.124e-21
3.188e-21
7.436e-21
4.675e-20
1.506e-19
1.04e-18
2.786e-18
5.611e-18
9.997e-18
1.664e-17
2.649e-17
4.086e-17
6.15e-17
9.069e-17
1.314e-16
1.874e-16
2.636e-16
3.659e-16
5.019e-16
6.808e-16
9.14e-16
1.215e-15
1.601e-15
2.092e-15
2.712e-15
3.49e-15
4.459e-15
5.66e-15
7.14e-15
8.954e-15
1.117e-14
1.386e-14
1.711e-14
2.103e-14
2.573e-14
3.136e-14
3.806e-14
4.601e-14
5.543e-14
6.656e-14
7.965e-14
9.501e-14
1.13e-13
1.34e-13
1.585e-13
1.869e-13
2.199e-13
2.58e-13
3.021e-13
3.528e-13
4.111e-13
4.779e-13
5.542e-13
6.409e-13
7.388e-13
8.474e-13
9.637e-13
1.076e-12
1.855e-70
-1.289e-69
3.169e-69
-4.05e-69
2.596e-69
-4.149e-70
-4.04e-70
1.462e-70
1.046e-69
-5.242e-69
8.384e-68
-1.355e-66
2.048e-65
-2.909e-64
3.892e-63
-4.92e-62
5.9e-61
-6.746e-60
7.391e-59
-7.794e-58
7.937e-57
-7.824e-56
7.474e-55
-6.915e-54
6.19e-53
-5.338e-52
4.428e-51
-3.469e-50
2.61e-49
-1.942e-48
1.42e-47
-1.015e-46
7.059e-46
-4.731e-45
3.024e-44
-1.813e-43
9.925e-43
-4.603e-42
1.68e-41
1.028e-42
-7.867e-40
9.1e-39
-8.187e-38
5.878e-37
-3.927e-36
2.32e-35
-1.263e-34
6.358e-34
-2.919e-33
1.245e-32
-4.939e-32
1.885e-31
-6.903e-31
2.835e-30
-1.027e-29
6.332e-29
-2.399e-28
1.991e-27
-4.15e-27
5.077e-26
-4.658e-26
7.35e-25
7.43e-25
1.122e-23
3.984e-23
9.868e-23
5.952e-22
1.966e-21
4.199e-21
8.907e-21
4.739e-20
1.298e-19
2.848e-19
1.354e-18
3.305e-18
6.311e-18
1.091e-17
1.781e-17
2.796e-17
4.26e-17
6.338e-17
9.24e-17
1.323e-16
1.866e-16
2.594e-16
3.56e-16
4.831e-16
6.486e-16
8.625e-16
1.137e-15
1.486e-15
1.927e-15
2.482e-15
3.176e-15
4.038e-15
5.104e-15
6.415e-15
8.022e-15
9.983e-15
1.236e-14
1.525e-14
1.872e-14
2.289e-14
2.789e-14
3.385e-14
4.095e-14
4.936e-14
5.931e-14
7.103e-14
8.483e-14
1.01e-13
1.199e-13
1.42e-13
1.678e-13
1.977e-13
2.323e-13
2.724e-13
3.186e-13
3.719e-13
4.331e-13
5.033e-13
5.836e-13
6.753e-13
7.798e-13
8.982e-13
1.032e-12
1.182e-12
1.354e-12
-3.076e-69
2.44e-68
-8.412e-68
1.728e-67
-2.217e-67
1.767e-67
-7.893e-68
1.621e-68
5.506e-68
-2.69e-67
4.249e-66
-6.87e-65
1.036e-63
-1.464e-62
1.945e-61
-2.438e-60
2.896e-59
-3.278e-58
3.555e-57
-3.713e-56
3.747e-55
-3.662e-54
3.47e-53
-3.188e-52
2.836e-51
-2.434e-50
2.01e-49
-1.572e-48
1.185e-47
-8.833e-47
6.474e-46
-4.644e-45
3.241e-44
-2.184e-43
1.408e-42
-8.561e-42
4.801e-41
-2.348e-40
1.014e-39
-1.465e-39
-2.357e-38
3.276e-37
-3.171e-36
2.312e-35
-1.588e-34
9.46e-34
-5.199e-33
2.648e-32
-1.221e-31
5.225e-31
-2.069e-30
7.833e-30
-2.745e-29
1.083e-28
-2.981e-28
2.165e-27
-5.413e-27
7.313e-26
-2.424e-26
2.151e-24
2.336e-25
3.232e-23
6.718e-23
5.789e-22
1.966e-21
5.236e-21
2.721e-20
8.337e-20
1.765e-19
3.796e-19
1.509e-18
3.702e-18
7.09e-18
1.24e-17
2.054e-17
3.265e-17
5.023e-17
7.518e-17
1.099e-16
1.573e-16
2.211e-16
3.056e-16
4.162e-16
5.592e-16
7.426e-16
9.755e-16
1.269e-15
1.638e-15
2.096e-15
2.665e-15
3.366e-15
4.228e-15
5.284e-15
6.571e-15
8.135e-15
1.003e-14
1.232e-14
1.508e-14
1.839e-14
2.236e-14
2.71e-14
3.275e-14
3.947e-14
4.742e-14
5.683e-14
6.793e-14
8.098e-14
9.631e-14
1.143e-13
1.352e-13
1.597e-13
1.882e-13
2.212e-13
2.595e-13
3.037e-13
3.548e-13
4.136e-13
4.811e-13
5.586e-13
6.472e-13
7.485e-13
8.64e-13
9.954e-13
1.144e-12
1.313e-12
1.504e-12
1.722e-12
2.003e-12
4.45e-68
-3.839e-67
1.639e-66
-4.499e-66
8.279e-66
-1.036e-65
8.519e-66
-3.937e-66
3.441e-66
-1.331e-65
2.057e-64
-3.309e-63
4.948e-62
-6.92e-61
9.075e-60
-1.121e-58
1.31e-57
-1.461e-56
1.56e-55
-1.606e-54
1.6e-53
-1.545e-52
1.448e-51
-1.318e-50
1.163e-49
-9.918e-49
8.155e-48
-6.367e-47
4.816e-46
-3.601e-45
2.65e-44
-1.909e-43
1.341e-42
-9.112e-42
5.947e-41
-3.685e-40
2.13e-39
-1.111e-38
5.018e-38
-1.444e-37
-2.426e-37
8.878e-36
-1.008e-34
7.601e-34
-5.519e-33
3.345e-32
-1.869e-31
9.74e-31
-4.535e-30
1.959e-29
-7.789e-29
2.958e-28
-9.852e-28
3.762e-27
-4.483e-27
6.505e-26
1.524e-26
2.424e-24
5.563e-24
8.463e-23
1.104e-22
1.268e-21
4.473e-21
2.69e-20
8.567e-20
2.337e-19
9.485e-19
2.544e-18
5.354e-18
1.014e-17
1.812e-17
3.09e-17
5.062e-17
7.997e-17
1.223e-16
1.818e-16
2.632e-16
3.721e-16
5.151e-16
6.996e-16
9.34e-16
1.228e-15
1.593e-15
2.043e-15
2.592e-15
3.26e-15
4.066e-15
5.039e-15
6.206e-15
7.606e-15
9.28e-15
1.128e-14
1.366e-14
1.65e-14
1.987e-14
2.387e-14
2.861e-14
3.423e-14
4.087e-14
4.871e-14
5.794e-14
6.881e-14
8.158e-14
9.654e-14
1.141e-13
1.345e-13
1.584e-13
1.862e-13
2.185e-13
2.56e-13
2.995e-13
3.496e-13
4.075e-13
4.742e-13
5.509e-13
6.388e-13
7.396e-13
8.547e-13
9.861e-13
1.136e-12
1.306e-12
1.499e-12
1.718e-12
1.965e-12
2.243e-12
2.557e-12
2.914e-12
3.408e-12
-5.987e-67
5.461e-66
-2.705e-65
9.136e-65
-2.167e-64
3.656e-64
-4.27e-64
3.059e-64
1.095e-64
-7.129e-64
9.601e-63
-1.516e-61
2.228e-60
-3.055e-59
3.919e-58
-4.727e-57
5.399e-56
-5.88e-55
6.147e-54
-6.201e-53
6.061e-52
-5.757e-51
5.319e-50
-4.781e-49
4.177e-48
-3.535e-47
2.892e-46
-2.257e-45
1.715e-44
-1.288e-43
9.526e-43
-6.909e-42
4.892e-41
-3.363e-40
2.229e-39
-1.413e-38
8.454e-38
-4.685e-37
2.319e-36
-9.438e-36
2.19e-35
9.054e-35
-2.3e-33
1.92e-32
-1.579e-31
9.9e-31
-5.661e-30
3.083e-29
-1.458e-28
6.415e-28
-2.593e-27
1.014e-26
-3.211e-26
1.236e-25
1.126e-25
2.058e-24
9.916e-24
8.121e-23
5.313e-22
3.018e-21
9.432e-21
5.694e-20
2.178e-19
9.597e-19
2.859e-18
6.687e-18
1.402e-17
2.737e-17
5.042e-17
8.833e-17
1.479e-16
2.378e-16
3.682e-16
5.508e-16
7.985e-16
1.125e-15
1.544e-15
2.071e-15
2.721e-15
3.509e-15
4.451e-15
5.567e-15
6.878e-15
8.408e-15
1.019e-14
1.226e-14
1.465e-14
1.743e-14
2.065e-14
2.439e-14
2.873e-14
3.378e-14
3.965e-14
4.648e-14
5.445e-14
6.373e-14
7.454e-14
8.715e-14
1.018e-13
1.189e-13
1.388e-13
1.62e-13
1.889e-13
2.201e-13
2.563e-13
2.983e-13
3.468e-13
4.028e-13
4.675e-13
5.419e-13
6.275e-13
7.259e-13
8.386e-13
9.677e-13
1.115e-12
1.284e-12
1.475e-12
1.694e-12
1.941e-12
2.222e-12
2.539e-12
2.898e-12
3.302e-12
3.756e-12
4.266e-12
4.837e-12
5.481e-12
6.417e-12
7.731e-66
-7.323e-65
4.044e-64
-1.6e-63
4.62e-63
-9.824e-63
1.502e-62
-1.471e-62
9.462e-63
-1.743e-62
4.083e-61
-6.558e-60
9.38e-59
-1.246e-57
1.544e-56
-1.799e-55
1.986e-54
-2.093e-53
2.123e-52
-2.084e-51
1.988e-50
-1.847e-49
1.675e-48
-1.482e-47
1.279e-46
-1.073e-45
8.733e-45
-6.818e-44
5.208e-43
-3.936e-42
2.931e-41
-2.144e-40
1.534e-39
-1.069e-38
7.215e-38
-4.687e-37
2.907e-36
-1.7e-35
9.218e-35
-4.475e-34
1.831e-33
-4.521e-33
-1.042e-32
2.651e-31
-3.333e-30
2.351e-29
-1.366e-28
8.136e-28
-3.939e-27
1.775e-26
-7.441e-26
3.15e-25
-9.335e-25
3.856e-24
9.184e-24
8.37e-23
6.919e-22
4.546e-21
3.084e-20
1.384e-19
4.675e-19
2.044e-18
6.437e-18
1.615e-17
3.636e-17
7.592e-17
1.487e-16
2.75e-16
4.823e-16
8.055e-16
1.286e-15
1.967e-15
2.896e-15
4.115e-15
5.661e-15
7.564e-15
9.845e-15
1.252e-14
1.559e-14
1.907e-14
2.297e-14
2.731e-14
3.21e-14
3.74e-14
4.327e-14
4.977e-14
5.7e-14
6.508e-14
7.416e-14
8.439e-14
9.597e-14
1.091e-13
1.241e-13
1.413e-13
1.609e-13
1.835e-13
2.094e-13
2.392e-13
2.736e-13
3.131e-13
3.587e-13
4.111e-13
4.715e-13
5.409e-13
6.208e-13
7.126e-13
8.179e-13
9.387e-13
1.077e-12
1.235e-12
1.416e-12
1.623e-12
1.858e-12
2.126e-12
2.43e-12
2.776e-12
3.167e-12
3.61e-12
4.111e-12
4.675e-12
5.31e-12
6.024e-12
6.825e-12
7.722e-12
8.723e-12
9.841e-12
1.109e-11
1.296e-11
-9.721e-65
9.45e-64
-5.67e-63
2.542e-62
-8.622e-62
2.222e-61
-4.254e-61
5.502e-61
-1.671e-62
-1.76e-60
1.9e-59
-2.665e-58
3.631e-57
-4.596e-56
5.422e-55
-6.009e-54
6.327e-53
-6.384e-52
6.223e-51
-5.894e-50
5.447e-49
-4.926e-48
4.365e-47
-3.791e-46
3.223e-45
-2.678e-44
2.168e-43
-1.696e-42
1.305e-41
-9.937e-41
7.466e-40
-5.516e-39
3.996e-38
-2.827e-37
1.946e-36
-1.297e-35
8.322e-35
-5.106e-34
2.969e-33
-1.613e-32
8.018e-32
-3.477e-31
1.311e-30
-1.667e-30
-1.929e-29
2.416e-28
-2.193e-27
1.63e-26
-8.548e-26
3.903e-25
-1.764e-24
8.838e-24
-2.193e-23
1.02e-22
6.809e-22
4.649e-21
3.764e-20
2.193e-19
1.215e-18
4.522e-18
1.352e-17
3.617e-17
8.913e-17
2.04e-16
4.358e-16
8.721e-16
1.64e-15
2.909e-15
4.884e-15
7.79e-15
1.185e-14
1.725e-14
2.412e-14
3.25e-14
4.238e-14
5.365e-14
6.612e-14
7.962e-14
9.395e-14
1.089e-13
1.245e-13
1.406e-13
1.573e-13
1.746e-13
1.929e-13
2.122e-13
2.329e-13
2.553e-13
2.798e-13
3.069e-13
3.371e-13
3.709e-13
4.089e-13
4.52e-13
5.008e-13
5.564e-13
6.197e-13
6.92e-13
7.746e-13
8.689e-13
9.767e-13
1.1e-12
1.241e-12
1.402e-12
1.585e-12
1.795e-12
2.034e-12
2.307e-12
2.617e-12
2.97e-12
3.37e-12
3.825e-12
4.34e-12
4.923e-12
5.583e-12
6.327e-12
7.167e-12
8.112e-12
9.174e-12
1.037e-11
1.17e-11
1.32e-11
1.487e-11
1.673e-11
1.88e-11
2.109e-11
2.362e-11
2.752e-11
1.196e-63
-1.184e-62
7.578e-62
-3.767e-61
1.464e-60
-4.46e-60
1.045e-59
-1.75e-59
1.895e-59
-3.435e-59
6.344e-58
-9.742e-57
1.257e-55
-1.483e-54
1.63e-53
-1.687e-52
1.668e-51
-1.59e-50
1.473e-49
-1.335e-48
1.187e-47
-1.039e-46
8.957e-46
-7.609e-45
6.363e-44
-5.231e-43
4.216e-42
-3.312e-41
2.572e-40
-1.977e-39
1.501e-38
-1.123e-37
8.249e-37
-5.936e-36
4.17e-35
-2.85e-34
1.889e-33
-1.208e-32
7.419e-32
-4.349e-31
2.414e-30
-1.256e-29
5.973e-29
-2.523e-28
8.742e-28
-1.751e-27
-5.585e-27
9.633e-26
-7.282e-25
5.032e-24
-2.918e-23
2.112e-22
-2.454e-22
3.607e-21
3.194e-20
2.339e-19
1.501e-18
6.36e-18
2.181e-17
6.689e-17
1.88e-16
4.873e-16
1.169e-15
2.602e-15
5.387e-15
1.041e-14
1.883e-14
3.202e-14
5.139e-14
7.814e-14
1.131e-13
1.563e-13
2.072e-13
2.645e-13
3.265e-13
3.91e-13
4.558e-13
5.194e-13
5.802e-13
6.375e-13
6.913e-13
7.418e-13
7.899e-13
8.364e-13
8.824e-13
9.292e-13
9.781e-13
1.03e-12
1.087e-12
1.15e-12
1.221e-12
1.301e-12
1.392e-12
1.495e-12
1.613e-12
1.747e-12
1.9e-12
2.075e-12
2.274e-12
2.502e-12
2.761e-12
3.056e-12
3.392e-12
3.774e-12
4.209e-12
4.702e-12
5.261e-12
5.895e-12
6.613e-12
7.425e-12
8.343e-12
9.379e-12
1.055e-11
1.186e-11
1.334e-11
1.501e-11
1.687e-11
1.896e-11
2.13e-11
2.392e-11
2.683e-11
3.008e-11
3.369e-11
3.769e-11
4.213e-11
4.704e-11
5.239e-11
6.078e-11
-1.435e-62
1.439e-61
-9.703e-61
5.262e-60
-2.304e-59
8.15e-59
-2.289e-58
4.759e-58
-3.439e-58
-2.283e-57
2.761e-56
-3.23e-55
3.692e-54
-3.937e-53
3.92e-52
-3.696e-51
3.371e-50
-2.995e-49
2.612e-48
-2.246e-47
1.91e-46
-1.608e-45
1.342e-44
-1.111e-43
9.122e-43
-7.414e-42
5.952e-41
-4.711e-40
3.7e-39
-2.881e-38
2.218e-37
-1.684e-36
1.258e-35
-9.232e-35
6.632e-34
-4.653e-33
3.181e-32
-2.112e-31
1.359e-30
-8.436e-30
5.037e-29
-2.889e-28
1.556e-27
-7.939e-27
3.79e-26
-1.66e-25
6.558e-25
-2.215e-24
4.943e-24
2.039e-24
-1.009e-22
2.774e-21
4.301e-21
1.521e-19
1.31e-18
6.586e-18
2.667e-17
9.626e-17
3.167e-16
9.545e-16
2.641e-15
6.721e-15
1.575e-14
3.41e-14
6.831e-14
1.271e-13
2.208e-13
3.591e-13
5.496e-13
7.949e-13
1.092e-12
1.43e-12
1.796e-12
2.168e-12
2.53e-12
2.863e-12
3.153e-12
3.399e-12
3.592e-12
3.74e-12
3.851e-12
3.931e-12
3.988e-12
4.031e-12
4.068e-12
4.105e-12
4.149e-12
4.205e-12
4.279e-12
4.372e-12
4.491e-12
4.64e-12
4.822e-12
5.039e-12
5.297e-12
5.601e-12
5.955e-12
6.366e-12
6.839e-12
7.383e-12
8.005e-12
8.715e-12
9.523e-12
1.044e-11
1.148e-11
1.266e-11
1.4e-11
1.55e-11
1.72e-11
1.911e-11
2.127e-11
2.369e-11
2.64e-11
2.945e-11
3.286e-11
3.668e-11
4.094e-11
4.57e-11
5.099e-11
5.688e-11
6.343e-11
7.068e-11
7.871e-11
8.759e-11
9.739e-11
1.082e-10
1.198e-10
1.383e-10
1.666e-61
-1.683e-60
1.185e-59
-6.928e-59
3.375e-58
-1.372e-57
4.604e-57
-1.237e-56
2.588e-56
-7.025e-56
6.53e-55
-8.122e-54
8.369e-53
-7.673e-52
6.623e-51
-5.516e-50
4.583e-49
-3.771e-48
3.084e-47
-2.506e-46
2.024e-45
-1.626e-44
1.302e-43
-1.041e-42
8.308e-42
-6.638e-41
5.29e-40
-4.223e-39
3.362e-38
-2.66e-37
2.084e-36
-1.618e-35
1.239e-34
-9.333e-34
6.899e-33
-4.995e-32
3.535e-31
-2.441e-30
1.639e-29
-1.07e-28
6.763e-28
-4.152e-27
2.379e-26
-1.323e-25
6.999e-25
-3.473e-24
1.678e-23
-7.52e-23
3.237e-22
-1.148e-21
4.865e-21
4.931e-20
5.182e-19
4.256e-18
2.268e-17
9.967e-17
3.929e-16
1.41e-15
4.615e-15
1.379e-14
3.764e-14
9.396e-14
2.148e-13
4.511e-13
8.721e-13
1.56e-12
2.592e-12
4.021e-12
5.853e-12
8.035e-12
1.046e-11
1.295e-11
1.538e-11
1.752e-11
1.933e-11
2.062e-11
2.143e-11
2.189e-11
2.184e-11
2.16e-11
2.116e-11
2.057e-11
1.992e-11
1.925e-11
1.86e-11
1.802e-11
1.751e-11
1.711e-11
1.681e-11
1.661e-11
1.656e-11
1.662e-11
1.679e-11
1.71e-11
1.755e-11
1.813e-11
1.887e-11
1.977e-11
2.084e-11
2.21e-11
2.357e-11
2.526e-11
2.719e-11
2.94e-11
3.191e-11
3.476e-11
3.797e-11
4.159e-11
4.567e-11
5.025e-11
5.538e-11
6.114e-11
6.757e-11
7.476e-11
8.277e-11
9.17e-11
1.016e-10
1.127e-10
1.249e-10
1.385e-10
1.535e-10
1.7e-10
1.883e-10
2.084e-10
2.305e-10
2.548e-10
2.808e-10
3.224e-10
-1.84e-60
1.863e-59
-1.358e-58
8.486e-58
-4.553e-57
2.101e-56
-8.24e-56
2.608e-55
-5.237e-55
-1.153e-54
1.92e-53
-1.643e-52
1.164e-51
-8.131e-51
5.766e-50
-4.272e-49
3.494e-48
-2.843e-47
2.283e-46
-1.791e-45
1.368e-44
-1.019e-43
7.438e-43
-5.358e-42
3.843e-41
-2.809e-40
2.077e-39
-1.579e-38
1.229e-37
-9.688e-37
7.646e-36
-6.123e-35
4.853e-34
-3.813e-33
2.906e-32
-2.164e-31
1.573e-30
-1.114e-29
7.656e-29
-5.123e-28
3.314e-27
-2.078e-26
1.241e-25
-7.3e-25
4.058e-24
-2.23e-23
1.179e-22
-5.705e-22
3.449e-21
4.908e-23
1.848e-19
2.045e-18
1.317e-17
6.999e-17
3.343e-16
1.452e-15
5.742e-15
2.063e-14
6.73e-14
1.993e-13
5.357e-13
1.309e-12
2.913e-12
5.917e-12
1.101e-11
1.885e-11
2.989e-11
4.41e-11
6.088e-11
7.913e-11
9.74e-11
1.138e-10
1.278e-10
1.369e-10
1.429e-10
1.426e-10
1.404e-10
1.357e-10
1.291e-10
1.213e-10
1.13e-10
1.048e-10
9.69e-11
8.967e-11
8.318e-11
7.75e-11
7.262e-11
6.852e-11
6.516e-11
6.249e-11
6.046e-11
5.904e-11
5.814e-11
5.784e-11
5.808e-11
5.874e-11
5.992e-11
6.161e-11
6.382e-11
6.657e-11
6.989e-11
7.381e-11
7.838e-11
8.365e-11
8.968e-11
9.653e-11
1.043e-10
1.131e-10
1.229e-10
1.34e-10
1.464e-10
1.602e-10
1.756e-10
1.928e-10
2.118e-10
2.33e-10
2.565e-10
2.825e-10
3.112e-10
3.429e-10
3.779e-10
4.163e-10
4.586e-10
5.049e-10
5.556e-10
6.112e-10
6.7e-10
7.653e-10
1.883e-59
-1.902e-58
1.426e-57
-9.443e-57
5.543e-56
-2.904e-55
1.364e-54
-5.74e-54
2.139e-53
-6.758e-53
1.567e-52
-9.162e-53
-7.707e-52
-9.881e-51
2.862e-49
-3.69e-48
3.967e-47
-3.717e-46
3.153e-45
-2.475e-44
1.817e-43
-1.253e-42
8.1e-42
-4.871e-41
2.651e-40
-1.303e-39
4.305e-39
8.822e-40
-1.754e-37
2.134e-36
-1.947e-35
1.514e-34
-1.086e-33
7.868e-33
-5.468e-32
3.618e-31
-2.284e-30
1.357e-29
-8.143e-29
4.048e-28
-2.031e-27
7.474e-27
-1.396e-26
-6.668e-26
1.655e-24
-1.385e-23
1.317e-22
-2.261e-22
3.798e-20
4.116e-19
4.412e-18
3.095e-17
1.827e-16
9.738e-16
4.719e-15
2.076e-14
8.268e-14
2.976e-13
9.665e-13
2.832e-12
7.484e-12
1.786e-11
3.857e-11
7.557e-11
1.348e-10
2.203e-10
3.321e-10
4.645e-10
6.063e-10
7.451e-10
8.656e-10
9.519e-10
1.011e-09
1.009e-09
9.886e-10
9.437e-10
8.8e-10
8.055e-10
7.27e-10
6.498e-10
5.773e-10
5.114e-10
4.532e-10
4.026e-10
3.595e-10
3.23e-10
2.926e-10
2.674e-10
2.468e-10
2.301e-10
2.168e-10
2.065e-10
1.988e-10
1.934e-10
1.9e-10
1.886e-10
1.892e-10
1.913e-10
1.95e-10
2.003e-10
2.073e-10
2.16e-10
2.265e-10
2.388e-10
2.532e-10
2.696e-10
2.883e-10
3.095e-10
3.334e-10
3.602e-10
3.902e-10
4.236e-10
4.609e-10
5.022e-10
5.48e-10
5.988e-10
6.548e-10
7.167e-10
7.848e-10
8.598e-10
9.421e-10
1.032e-09
1.131e-09
1.239e-09
1.357e-09
1.486e-09
1.621e-09
1.841e-09
-1.696e-58
1.705e-57
-1.304e-56
9.039e-56
-5.686e-55
3.267e-54
-1.726e-53
8.437e-53
-3.821e-52
1.579e-51
-5.546e-51
2.769e-51
1.147e-49
-1.68e-48
1.831e-47
-1.718e-46
1.477e-45
-1.192e-44
9.156e-44
-6.735e-43
4.767e-42
-3.254e-41
2.145e-40
-1.365e-39
8.37e-39
-4.922e-38
2.751e-37
-1.456e-36
7.411e-36
-3.538e-35
1.529e-34
-6.283e-34
2.158e-33
1.655e-34
-1.238e-31
1.548e-30
-1.451e-29
1.198e-28
-9.152e-28
6.613e-27
-4.566e-26
3.031e-25
-1.93e-24
1.21e-23
-6.696e-23
4.104e-22
-1.466e-21
6.936e-20
1.01e-18
8.563e-18
6.161e-17
4.031e-16
2.41e-15
1.311e-14
6.465e-14
2.879e-13
1.155e-12
4.159e-12
1.343e-11
3.888e-11
1.008e-10
2.344e-10
4.897e-10
9.22e-10
1.57e-09
2.44e-09
3.484e-09
4.605e-09
5.668e-09
6.59e-09
7.183e-09
7.42e-09
7.308e-09
6.984e-09
6.471e-09
5.838e-09
5.156e-09
4.48e-09
3.847e-09
3.28e-09
2.786e-09
2.366e-09
2.015e-09
1.724e-09
1.486e-09
1.292e-09
1.135e-09
1.007e-09
9.05e-10
8.229e-10
7.573e-10
7.056e-10
6.654e-10
6.349e-10
6.126e-10
5.98e-10
5.883e-10
5.875e-10
5.906e-10
5.985e-10
6.116e-10
6.296e-10
6.526e-10
6.808e-10
7.142e-10
7.532e-10
7.98e-10
8.491e-10
9.069e-10
9.719e-10
1.045e-09
1.126e-09
1.216e-09
1.316e-09
1.427e-09
1.549e-09
1.683e-09
1.832e-09
1.994e-09
2.173e-09
2.368e-09
2.582e-09
2.815e-09
3.069e-09
3.344e-09
3.645e-09
3.959e-09
4.472e-09
1.323e-57
-1.317e-56
1.022e-55
-7.356e-55
4.908e-54
-3.048e-53
1.772e-52
-9.756e-52
5.205e-51
-2.805e-50
1.647e-49
-1.035e-48
7.449e-48
-5.906e-47
4.729e-46
-3.727e-45
2.858e-44
-2.126e-43
1.534e-42
-1.076e-41
7.352e-41
-4.898e-40
3.185e-39
-2.023e-38
1.255e-37
-7.609e-37
4.507e-36
-2.635e-35
1.546e-34
-9.131e-34
5.397e-33
-3.392e-32
2.076e-31
-1.253e-30
7.573e-30
-4.63e-29
2.839e-28
-1.741e-27
1.065e-26
-6.468e-26
3.888e-25
-2.302e-24
1.348e-23
-7.416e-23
5.028e-22
-2.046e-21
8.12e-20
1.309e-18
1.229e-17
9.925e-17
7.315e-16
4.93e-15
3.026e-14
1.683e-13
8.444e-13
3.806e-12
1.535e-11
5.529e-11
1.774e-10
5.062e-10
1.284e-09
2.901e-09
5.84e-09
1.052e-08
1.703e-08
2.505e-08
3.375e-08
4.201e-08
4.876e-08
5.373e-08
5.38e-08
5.238e-08
4.907e-08
4.433e-08
3.884e-08
3.32e-08
2.785e-08
2.304e-08
1.889e-08
1.541e-08
1.256e-08
1.027e-08
8.43e-09
6.975e-09
5.826e-09
4.919e-09
4.204e-09
3.639e-09
3.193e-09
2.84e-09
2.56e-09
2.34e-09
2.168e-09
2.034e-09
1.932e-09
1.858e-09
1.806e-09
1.774e-09
1.761e-09
1.767e-09
1.786e-09
1.819e-09
1.866e-09
1.928e-09
2.005e-09
2.096e-09
2.202e-09
2.324e-09
2.463e-09
2.62e-09
2.797e-09
2.993e-09
3.212e-09
3.454e-09
3.722e-09
4.017e-09
4.341e-09
4.697e-09
5.088e-09
5.514e-09
5.98e-09
6.488e-09
7.04e-09
7.64e-09
8.29e-09
8.997e-09
9.729e-09
1.093e-08
-8.302e-57
8.185e-56
-6.411e-55
4.784e-54
-3.384e-53
2.255e-52
-1.397e-51
7.88e-51
-3.855e-50
1.429e-49
4.399e-50
-5.53e-48
7.224e-47
-7.041e-46
5.991e-45
-4.71e-44
3.511e-43
-2.517e-42
1.749e-41
-1.185e-40
7.856e-40
-5.1e-39
3.244e-38
-2.021e-37
1.231e-36
-7.29e-36
4.197e-35
-2.357e-34
1.289e-33
-6.826e-33
3.303e-32
-2.08e-31
1.06e-30
-2.199e-30
-1.059e-30
8.042e-29
-9.164e-28
7.919e-27
-6.03e-26
4.244e-25
-2.819e-24
1.79e-23
-1.08e-22
6.625e-22
-2.404e-21
7.447e-20
1.36e-18
1.424e-17
1.29e-16
1.07e-15
8.141e-15
5.651e-14
3.559e-13
2.022e-12
1.031e-11
4.698e-11
1.904e-10
6.846e-10
2.177e-09
6.112e-09
1.514e-08
3.307e-08
6.388e-08
1.096e-07
1.677e-07
2.324e-07
2.944e-07
3.449e-07
3.801e-07
3.784e-07
3.641e-07
3.353e-07
2.965e-07
2.533e-07
2.105e-07
1.711e-07
1.369e-07
1.083e-07
8.509e-08
6.675e-08
5.244e-08
4.141e-08
3.294e-08
2.646e-08
2.151e-08
1.771e-08
1.479e-08
1.253e-08
1.077e-08
9.406e-09
8.336e-09
7.498e-09
6.841e-09
6.329e-09
5.934e-09
5.635e-09
5.415e-09
5.263e-09
5.169e-09
5.124e-09
5.139e-09
5.188e-09
5.278e-09
5.408e-09
5.577e-09
5.786e-09
6.035e-09
6.325e-09
6.658e-09
7.037e-09
7.462e-09
7.938e-09
8.468e-09
9.054e-09
9.701e-09
1.041e-08
1.12e-08
1.205e-08
1.299e-08
1.401e-08
1.512e-08
1.633e-08
1.765e-08
1.907e-08
2.06e-08
2.227e-08
2.398e-08
2.68e-08
3.941e-56
-3.292e-55
2.442e-54
-1.947e-53
1.617e-52
-1.354e-51
1.116e-50
-8.94e-50
6.929e-49
-5.2e-48
3.79e-47
-2.693e-46
1.875e-45
-1.282e-44
8.643e-44
-5.756e-43
3.797e-42
-2.484e-41
1.614e-40
-1.043e-39
6.708e-39
-4.295e-38
2.738e-37
-1.739e-36
1.1e-35
-6.934e-35
4.351e-34
-2.716e-33
1.686e-32
-1.04e-31
6.373e-31
-3.876e-30
2.338e-29
-1.397e-28
8.271e-28
-4.844e-27
2.803e-26
-1.602e-25
9.025e-25
-5.007e-24
2.733e-23
-1.456e-22
7.881e-22
-3.551e-21
3.752e-20
1.072e-18
1.3e-17
1.326e-16
1.237e-15
1.061e-14
8.332e-14
5.95e-13
3.839e-12
2.225e-11
1.151e-10
5.293e-10
2.152e-09
7.705e-09
2.422e-08
6.669e-08
1.606e-07
3.379e-07
6.227e-07
1.011e-06
1.456e-06
1.892e-06
2.253e-06
2.504e-06
2.488e-06
2.379e-06
2.166e-06
1.886e-06
1.58e-06
1.283e-06
1.015e-06
7.89e-07
6.048e-07
4.599e-07
3.484e-07
2.641e-07
2.011e-07
1.542e-07
1.194e-07
9.362e-08
7.44e-08
6e-08
4.915e-08
4.092e-08
3.463e-08
2.978e-08
2.603e-08
2.312e-08
2.084e-08
1.907e-08
1.769e-08
1.663e-08
1.583e-08
1.525e-08
1.485e-08
1.461e-08
1.451e-08
1.456e-08
1.471e-08
1.497e-08
1.533e-08
1.58e-08
1.638e-08
1.706e-08
1.786e-08
1.876e-08
1.979e-08
2.094e-08
2.221e-08
2.363e-08
2.519e-08
2.691e-08
2.879e-08
3.085e-08
3.31e-08
3.555e-08
3.821e-08
4.109e-08
4.421e-08
4.758e-08
5.121e-08
5.514e-08
5.916e-08
6.579e-08
3.852e-55
-3.771e-54
2.991e-53
-2.285e-52
1.676e-51
-1.182e-50
8.057e-50
-5.332e-49
3.445e-48
-2.188e-47
1.373e-46
-8.564e-46
5.332e-45
-3.322e-44
2.075e-43
-1.299e-42
8.153e-42
-5.122e-41
3.22e-40
-2.024e-39
1.271e-38
-7.989e-38
5.024e-37
-3.165e-36
2.001e-35
-1.273e-34
8.1e-34
-5.149e-33
3.266e-32
-2.066e-31
1.303e-30
-8.177e-30
5.108e-29
-3.172e-28
1.957e-27
-1.198e-26
7.272e-26
-4.373e-25
2.602e-24
-1.531e-23
8.913e-23
-5.021e-22
3.136e-21
-1.3e-20
4.394e-19
8.915e-18
1.062e-16
1.112e-15
1.073e-14
9.507e-14
7.689e-13
5.636e-12
3.718e-11
2.192e-10
1.148e-09
5.307e-09
2.156e-08
7.658e-08
2.37e-07
6.368e-07
1.482e-06
2.985e-06
5.216e-06
7.971e-06
1.075e-05
1.307e-05
1.484e-05
1.478e-05
1.413e-05
1.28e-05
1.105e-05
9.137e-06
7.297e-06
5.666e-06
4.305e-06
3.218e-06
2.381e-06
1.751e-06
1.287e-06
9.488e-07
7.04e-07
5.274e-07
3.999e-07
3.075e-07
2.401e-07
1.906e-07
1.539e-07
1.264e-07
1.057e-07
8.988e-08
7.776e-08
6.839e-08
6.112e-08
5.545e-08
5.105e-08
4.764e-08
4.503e-08
4.309e-08
4.169e-08
4.078e-08
4.018e-08
4.012e-08
4.032e-08
4.079e-08
4.156e-08
4.26e-08
4.393e-08
4.553e-08
4.741e-08
4.957e-08
5.203e-08
5.479e-08
5.786e-08
6.127e-08
6.504e-08
6.917e-08
7.369e-08
7.864e-08
8.402e-08
8.986e-08
9.62e-08
1.031e-07
1.105e-07
1.184e-07
1.27e-07
1.363e-07
1.457e-07
1.612e-07
-1.223e-54
1.212e-53
-9.694e-53
7.452e-52
-5.49e-51
3.878e-50
-2.629e-49
1.711e-48
-1.07e-47
6.424e-47
-3.706e-46
2.052e-45
-1.089e-44
5.526e-44
-2.671e-43
1.224e-42
-5.302e-42
2.189e-41
-9.053e-41
4.345e-40
-2.883e-39
2.504e-38
-2.358e-37
2.174e-36
-1.912e-35
1.614e-34
-1.267e-33
9.422e-33
-6.744e-32
4.69e-31
-3.188e-30
2.126e-29
-1.395e-28
9.019e-28
-5.756e-27
3.629e-26
-2.262e-25
1.394e-24
-8.494e-24
5.123e-23
-3.036e-22
1.875e-21
-6.88e-21
2.267e-19
5.068e-18
6.627e-17
7.71e-16
8.313e-15
8.276e-14
7.555e-13
6.275e-12
4.706e-11
3.161e-10
1.888e-09
9.954e-09
4.603e-08
1.857e-07
6.5e-07
1.965e-06
5.116e-06
1.142e-05
2.183e-05
3.593e-05
5.141e-05
6.466e-05
7.49e-05
7.631e-05
7.335e-05
6.665e-05
5.743e-05
4.728e-05
3.748e-05
2.88e-05
2.158e-05
1.587e-05
1.152e-05
8.288e-06
5.944e-06
4.268e-06
3.081e-06
2.243e-06
1.652e-06
1.233e-06
9.351e-07
7.212e-07
5.661e-07
4.526e-07
3.685e-07
3.056e-07
2.581e-07
2.218e-07
1.939e-07
1.722e-07
1.554e-07
1.424e-07
1.322e-07
1.244e-07
1.185e-07
1.141e-07
1.111e-07
1.092e-07
1.082e-07
1.084e-07
1.093e-07
1.108e-07
1.132e-07
1.162e-07
1.199e-07
1.244e-07
1.295e-07
1.354e-07
1.42e-07
1.494e-07
1.576e-07
1.666e-07
1.765e-07
1.873e-07
1.992e-07
2.12e-07
2.259e-07
2.41e-07
2.573e-07
2.748e-07
2.936e-07
3.137e-07
3.355e-07
3.575e-07
3.937e-07
5.649e-54
-5.167e-53
3.963e-52
-3.048e-51
2.33e-50
-1.763e-49
1.316e-48
-9.659e-48
6.963e-47
-4.925e-46
3.418e-45
-2.328e-44
1.558e-43
-1.027e-42
6.666e-42
-4.273e-41
2.708e-40
-1.7e-39
1.058e-38
-6.534e-38
4.011e-37
-2.449e-36
1.489e-35
-9.011e-35
5.434e-34
-3.264e-33
1.951e-32
-1.16e-31
6.867e-31
-4.047e-30
2.376e-29
-1.389e-28
8.091e-28
-4.696e-27
2.716e-26
-1.565e-25
8.992e-25
-5.148e-24
2.939e-23
-1.667e-22
9.704e-22
-4.313e-21
6.761e-20
2.154e-18
3.178e-17
4.097e-16
4.907e-15
5.455e-14
5.59e-13
5.237e-12
4.45e-11
3.399e-10
2.313e-09
1.391e-08
7.328e-08
3.36e-07
1.333e-06
4.547e-06
1.327e-05
3.305e-05
6.99e-05
0.0001257
0.0001938
0.0002585
0.0003072
0.000327
0.0003171
0.000291
0.0002529
0.0002095
0.0001668
0.0001283
9.604e-05
7.029e-05
5.058e-05
3.597e-05
2.541e-05
1.792e-05
1.267e-05
9.022e-06
6.488e-06
4.727e-06
3.496e-06
2.63e-06
2.014e-06
1.572e-06
1.25e-06
1.013e-06
8.37e-07
7.044e-07
6.035e-07
5.26e-07
4.661e-07
4.195e-07
3.833e-07
3.551e-07
3.332e-07
3.166e-07
3.042e-07
2.953e-07
2.897e-07
2.857e-07
2.858e-07
2.872e-07
2.905e-07
2.957e-07
3.027e-07
3.114e-07
3.219e-07
3.341e-07
3.481e-07
3.639e-07
3.816e-07
4.012e-07
4.228e-07
4.465e-07
4.724e-07
5.005e-07
5.31e-07
5.641e-07
5.997e-07
6.381e-07
6.792e-07
7.234e-07
7.705e-07
8.21e-07
8.72e-07
9.559e-07
1.357e-53
-1.341e-52
1.084e-51
-8.513e-51
6.474e-50
-4.768e-49
3.403e-48
-2.358e-47
1.589e-46
-1.044e-45
6.704e-45
-4.221e-44
2.615e-43
-1.599e-42
9.695e-42
-5.846e-41
3.52e-40
-2.123e-39
1.286e-38
-7.84e-38
4.819e-37
-2.987e-36
1.867e-35
-1.176e-34
7.465e-34
-4.766e-33
3.028e-32
-1.91e-31
1.197e-30
-7.459e-30
4.625e-29
-2.856e-28
1.756e-27
-1.077e-26
6.585e-26
-4.017e-25
2.446e-24
-1.487e-23
9.039e-23
-5.457e-22
3.466e-21
-1.313e-20
4.521e-19
1.134e-17
1.669e-16
2.208e-15
2.721e-14
3.107e-13
3.264e-12
3.126e-11
2.704e-10
2.092e-09
1.433e-08
8.603e-08
4.486e-07
2.016e-06
7.755e-06
2.537e-05
7.028e-05
0.0001645
0.0003246
0.0005451
0.0007825
0.0009752
0.001096
0.001079
0.001012
0.0008974
0.0007581
0.0006143
0.0004805
0.0003645
0.0002695
0.0001951
0.000139
9.792e-05
6.858e-05
4.797e-05
3.368e-05
2.383e-05
1.705e-05
1.237e-05
9.118e-06
6.843e-06
5.232e-06
4.078e-06
3.242e-06
2.628e-06
2.171e-06
1.828e-06
1.566e-06
1.366e-06
1.211e-06
1.09e-06
9.96e-07
9.226e-07
8.656e-07
8.22e-07
7.892e-07
7.655e-07
7.499e-07
7.396e-07
7.376e-07
7.404e-07
7.476e-07
7.594e-07
7.758e-07
7.964e-07
8.214e-07
8.506e-07
8.84e-07
9.218e-07
9.64e-07
1.011e-06
1.062e-06
1.119e-06
1.18e-06
1.247e-06
1.319e-06
1.396e-06
1.48e-06
1.57e-06
1.666e-06
1.768e-06
1.877e-06
1.993e-06
2.109e-06
2.3e-06
-4.259e-53
3.952e-52
-3.061e-51
2.363e-50
-1.803e-49
1.357e-48
-1.005e-47
7.312e-47
-5.224e-46
3.663e-45
-2.521e-44
1.704e-43
-1.132e-42
7.396e-42
-4.761e-41
3.023e-40
-1.896e-39
1.176e-38
-7.22e-38
4.395e-37
-2.655e-36
1.594e-35
-9.511e-35
5.648e-34
-3.34e-33
1.969e-32
-1.154e-31
6.743e-31
-3.928e-30
2.284e-29
-1.326e-28
7.691e-28
-4.462e-27
2.59e-26
-1.506e-25
8.77e-25
-5.123e-24
3.004e-23
-1.764e-22
1.073e-21
-4.86e-21
9.707e-20
3.241e-18
5.268e-17
7.623e-16
1.032e-14
1.304e-13
1.524e-12
1.635e-11
1.593e-10
1.395e-09
1.087e-08
7.437e-08
4.418e-07
2.254e-06
9.786e-06
3.589e-05
0.0001103
0.0002838
0.0006122
0.001112
0.001745
0.002313
0.0027
0.002772
0.002672
0.002448
0.002138
0.001792
0.001448
0.001133
0.0008613
0.0006381
0.0004629
0.0003303
0.000233
0.0001633
0.0001143
8.029e-05
5.687e-05
4.075e-05
2.963e-05
2.191e-05
1.649e-05
1.266e-05
9.906e-06
7.907e-06
6.436e-06
5.339e-06
4.513e-06
3.882e-06
3.397e-06
3.021e-06
2.728e-06
2.499e-06
2.32e-06
2.181e-06
2.074e-06
1.994e-06
1.935e-06
1.897e-06
1.871e-06
1.865e-06
1.872e-06
1.889e-06
1.917e-06
1.956e-06
2.006e-06
2.065e-06
2.135e-06
2.215e-06
2.306e-06
2.406e-06
2.517e-06
2.639e-06
2.772e-06
2.916e-06
3.072e-06
3.241e-06
3.421e-06
3.615e-06
3.821e-06
4.04e-06
4.274e-06
4.52e-06
4.782e-06
5.043e-06
5.467e-06
-6.49e-53
6.384e-52
-5.171e-51
4.104e-50
-3.174e-49
2.39e-48
-1.753e-47
1.253e-46
-8.735e-46
5.952e-45
-3.97e-44
2.599e-43
-1.673e-42
1.061e-41
-6.652e-41
4.13e-40
-2.545e-39
1.559e-38
-9.519e-38
5.797e-37
-3.527e-36
2.146e-35
-1.307e-34
7.975e-34
-4.877e-33
2.988e-32
-1.827e-31
1.112e-30
-6.748e-30
4.087e-29
-2.473e-28
1.496e-27
-9.057e-27
5.495e-26
-3.343e-25
2.042e-24
-1.253e-23
7.745e-23
-4.793e-22
3.152e-21
-1.201e-20
4.53e-19
1.251e-17
2.035e-16
3.008e-15
4.166e-14
5.376e-13
6.408e-12
6.99e-11
6.901e-10
6.093e-09
4.75e-08
3.224e-07
1.878e-06
9.262e-06
3.828e-05
0.0001313
0.0003711
0.0008671
0.001692
0.002831
0.004188
0.00512
0.00542
0.005308
0.005037
0.00462
0.004064
0.003432
0.002809
0.00223
0.001719
0.001292
0.0009486
0.0006846
0.0004877
0.0003449
0.0002435
0.0001724
0.0001231
8.895e-05
6.522e-05
4.863e-05
3.693e-05
2.859e-05
2.257e-05
1.817e-05
1.491e-05
1.247e-05
1.062e-05
9.202e-06
8.105e-06
7.252e-06