/*--------------------------------*- C++ -*----------------------------------*\
  =========                 |
  \\      /  F ield         | OpenFOAM: The Open Source CFD Toolbox
   \\    /   O peration     | Website:  https://openfoam.org
    \\  /    A nd           | Version:  7
     \\/     M anipulation  |
\*---------------------------------------------------------------------------*/
FoamFile
{
    version     2.0;
    format      ascii;
    class       volScalarField;
    location    "419.999473411148244";
    object      p;
}
// * * * * * * * * * * * * * * * * * * * * * * * * * * * * * * * * * * * * * //

dimensions      [0 2 -2 0 0 0 0];

internalField   nonuniform List<scalar> 
4096
(
0.0006683
0.0004974
0.0004132
0.000371
0.0003477
0.0003338
0.0003249
0.0003188
0.0003145
0.0003112
0.0003087
0.0003067
0.000305
0.0003037
0.0003025
0.0003015
0.0003006
0.0002998
0.0002991
0.0002985
0.0002979
0.0002973
0.0002967
0.0002962
0.0002957
0.0002952
0.0002947
0.0002942
0.0002937
0.0002931
0.0002926
0.000292
0.0002914
0.0002908
0.0002901
0.0002893
0.0002884
0.0002875
0.0002864
0.0002853
0.0002839
0.0002824
0.0002807
0.0002788
0.0002766
0.0002741
0.0002713
0.0002682
0.0002646
0.0002607
0.0002563
0.0002515
0.0002461
0.0002403
0.000234
0.0002272
0.0002199
0.0002121
0.0002039
0.0001953
0.0001864
0.0001772
0.0001678
0.0001583
0.0001488
0.0001393
0.00013
0.0001209
0.0001121
0.0001036
9.55e-05
8.784e-05
8.064e-05
7.39e-05
6.764e-05
6.187e-05
5.656e-05
5.172e-05
4.732e-05
4.334e-05
3.977e-05
3.657e-05
3.371e-05
3.117e-05
2.891e-05
2.691e-05
2.514e-05
2.357e-05
2.218e-05
2.095e-05
1.984e-05
1.886e-05
1.797e-05
1.717e-05
1.643e-05
1.575e-05
1.512e-05
1.453e-05
1.397e-05
1.344e-05
1.292e-05
1.242e-05
1.194e-05
1.146e-05
1.098e-05
1.052e-05
1.005e-05
9.584e-06
9.119e-06
8.652e-06
8.184e-06
7.713e-06
7.24e-06
6.763e-06
6.283e-06
5.8e-06
5.312e-06
4.821e-06
4.326e-06
3.827e-06
3.325e-06
2.82e-06
2.314e-06
1.808e-06
1.308e-06
8.208e-07
3.646e-07
3.903e-08
0.0005238
0.0004601
0.0004103
0.0003783
0.0003573
0.0003431
0.0003331
0.0003257
0.0003203
0.0003161
0.0003127
0.0003101
0.0003079
0.0003061
0.0003045
0.0003032
0.000302
0.000301
0.0003001
0.0002992
0.0002984
0.0002977
0.000297
0.0002963
0.0002957
0.000295
0.0002944
0.0002938
0.0002931
0.0002924
0.0002918
0.0002911
0.0002903
0.0002895
0.0002886
0.0002877
0.0002867
0.0002856
0.0002844
0.000283
0.0002815
0.0002798
0.000278
0.0002759
0.0002735
0.0002709
0.000268
0.0002647
0.0002611
0.0002571
0.0002527
0.0002478
0.0002425
0.0002368
0.0002306
0.000224
0.0002169
0.0002094
0.0002015
0.0001933
0.0001848
0.000176
0.0001671
0.000158
0.000149
0.00014
0.0001311
0.0001224
0.000114
0.0001059
9.813e-05
9.075e-05
8.376e-05
7.721e-05
7.108e-05
6.54e-05
6.014e-05
5.531e-05
5.09e-05
4.687e-05
4.322e-05
3.992e-05
3.695e-05
3.428e-05
3.188e-05
2.973e-05
2.781e-05
2.608e-05
2.454e-05
2.315e-05
2.189e-05
2.076e-05
1.973e-05
1.879e-05
1.792e-05
1.712e-05
1.638e-05
1.568e-05
1.501e-05
1.439e-05
1.378e-05
1.32e-05
1.264e-05
1.209e-05
1.156e-05
1.103e-05
1.051e-05
1e-05
9.492e-06
8.986e-06
8.482e-06
7.98e-06
7.478e-06
6.976e-06
6.473e-06
5.969e-06
5.465e-06
4.958e-06
4.45e-06
3.941e-06
3.431e-06
2.92e-06
2.409e-06
1.901e-06
1.399e-06
9.077e-07
4.367e-07
6.888e-08
0.0004403
0.0004187
0.0003932
0.0003725
0.000357
0.0003453
0.0003363
0.0003293
0.0003237
0.0003193
0.0003156
0.0003127
0.0003102
0.000308
0.0003062
0.0003047
0.0003033
0.000302
0.0003009
0.0002999
0.000299
0.0002981
0.0002972
0.0002964
0.0002956
0.0002949
0.0002941
0.0002933
0.0002926
0.0002918
0.000291
0.0002901
0.0002892
0.0002883
0.0002873
0.0002862
0.0002851
0.0002838
0.0002824
0.0002809
0.0002792
0.0002774
0.0002754
0.0002732
0.0002707
0.0002679
0.0002649
0.0002616
0.0002579
0.0002538
0.0002494
0.0002446
0.0002394
0.0002337
0.0002277
0.0002212
0.0002143
0.0002071
0.0001995
0.0001916
0.0001834
0.000175
0.0001665
0.0001578
0.0001492
0.0001406
0.0001321
0.0001238
0.0001157
0.0001079
0.0001004
9.327e-05
8.65e-05
8.011e-05
7.412e-05
6.852e-05
6.333e-05
5.853e-05
5.411e-05
5.005e-05
4.635e-05
4.298e-05
3.991e-05
3.714e-05
3.463e-05
3.235e-05
3.03e-05
2.844e-05
2.676e-05
2.523e-05
2.384e-05
2.258e-05
2.142e-05
2.035e-05
1.937e-05
1.845e-05
1.76e-05
1.68e-05
1.604e-05
1.532e-05
1.464e-05
1.398e-05
1.334e-05
1.273e-05
1.213e-05
1.155e-05
1.098e-05
1.042e-05
9.87e-06
9.325e-06
8.786e-06
8.252e-06
7.722e-06
7.194e-06
6.668e-06
6.145e-06
5.622e-06
5.1e-06
4.579e-06
4.058e-06
3.538e-06
3.018e-06
2.5e-06
1.985e-06
1.473e-06
9.689e-07
4.746e-07
7.362e-08
0.0003956
0.0003885
0.0003752
0.000362
0.0003512
0.0003424
0.0003353
0.0003294
0.0003245
0.0003204
0.0003169
0.000314
0.0003114
0.0003093
0.0003073
0.0003056
0.0003041
0.0003028
0.0003015
0.0003004
0.0002993
0.0002983
0.0002974
0.0002965
0.0002956
0.0002947
0.0002938
0.000293
0.0002921
0.0002912
0.0002902
0.0002893
0.0002883
0.0002872
0.0002861
0.0002849
0.0002836
0.0002822
0.0002807
0.0002791
0.0002773
0.0002754
0.0002733
0.0002709
0.0002683
0.0002655
0.0002624
0.000259
0.0002553
0.0002512
0.0002468
0.000242
0.0002368
0.0002313
0.0002253
0.000219
0.0002123
0.0002052
0.0001979
0.0001902
0.0001823
0.0001742
0.000166
0.0001576
0.0001493
0.000141
0.0001328
0.0001248
0.000117
0.0001094
0.0001022
9.522e-05
8.862e-05
8.238e-05
7.65e-05
7.1e-05
6.586e-05
6.11e-05
5.669e-05
5.263e-05
4.889e-05
4.548e-05
4.236e-05
3.951e-05
3.691e-05
3.455e-05
3.24e-05
3.044e-05
2.865e-05
2.702e-05
2.553e-05
2.415e-05
2.289e-05
2.172e-05
2.064e-05
1.963e-05
1.869e-05
1.78e-05
1.696e-05
1.616e-05
1.541e-05
1.468e-05
1.398e-05
1.331e-05
1.266e-05
1.203e-05
1.141e-05
1.081e-05
1.022e-05
9.641e-06
9.07e-06
8.507e-06
7.95e-06
7.399e-06
6.853e-06
6.31e-06
5.771e-06
5.234e-06
4.699e-06
4.167e-06
3.636e-06
3.106e-06
2.578e-06
2.052e-06
1.529e-06
1.009e-06
4.919e-07
6.974e-08
0.0003687
0.0003677
0.0003608
0.0003522
0.0003444
0.0003378
0.0003323
0.0003276
0.0003236
0.0003201
0.000317
0.0003143
0.0003119
0.0003097
0.0003079
0.0003062
0.0003046
0.0003032
0.0003019
0.0003007
0.0002996
0.0002985
0.0002974
0.0002965
0.0002955
0.0002945
0.0002936
0.0002926
0.0002916
0.0002906
0.0002896
0.0002886
0.0002875
0.0002863
0.0002851
0.0002838
0.0002824
0.000281
0.0002794
0.0002776
0.0002758
0.0002737
0.0002715
0.0002691
0.0002665
0.0002636
0.0002604
0.000257
0.0002532
0.0002492
0.0002448
0.00024
0.0002349
0.0002294
0.0002235
0.0002173
0.0002108
0.0002039
0.0001967
0.0001892
0.0001815
0.0001736
0.0001656
0.0001574
0.0001493
0.0001413
0.0001333
0.0001255
0.0001179
0.0001105
0.0001035
9.668e-05
9.022e-05
8.41e-05
7.832e-05
7.289e-05
6.781e-05
6.308e-05
5.87e-05
5.464e-05
5.09e-05
4.746e-05
4.431e-05
4.141e-05
3.877e-05
3.634e-05
3.412e-05
3.209e-05
3.023e-05
2.852e-05
2.694e-05
2.549e-05
2.414e-05
2.289e-05
2.173e-05
2.064e-05
1.963e-05
1.867e-05
1.776e-05
1.69e-05
1.608e-05
1.53e-05
1.455e-05
1.383e-05
1.313e-05
1.245e-05
1.18e-05
1.116e-05
1.054e-05
9.925e-06
9.326e-06
8.737e-06
8.157e-06
7.585e-06
7.02e-06
6.46e-06
5.906e-06
5.355e-06
4.808e-06
4.264e-06
3.723e-06
3.183e-06
2.645e-06
2.108e-06
1.572e-06
1.038e-06
5.025e-07
6.529e-08
0.0003513
0.0003528
0.0003495
0.0003438
0.0003381
0.0003331
0.0003288
0.000325
0.0003217
0.0003188
0.0003162
0.0003138
0.0003116
0.0003097
0.0003079
0.0003062
0.0003047
0.0003033
0.000302
0.0003008
0.0002996
0.0002985
0.0002974
0.0002964
0.0002953
0.0002943
0.0002933
0.0002923
0.0002912
0.0002902
0.0002891
0.000288
0.0002868
0.0002856
0.0002843
0.0002829
0.0002815
0.0002799
0.0002782
0.0002765
0.0002745
0.0002724
0.0002702
0.0002677
0.000265
0.0002621
0.0002589
0.0002555
0.0002517
0.0002477
0.0002433
0.0002385
0.0002335
0.000228
0.0002222
0.0002161
0.0002096
0.0002029
0.0001958
0.0001884
0.0001809
0.0001731
0.0001652
0.0001573
0.0001493
0.0001414
0.0001336
0.000126
0.0001185
0.0001113
0.0001044
9.771e-05
9.136e-05
8.532e-05
7.962e-05
7.426e-05
6.923e-05
6.454e-05
6.018e-05
5.614e-05
5.241e-05
4.896e-05
4.579e-05
4.288e-05
4.02e-05
3.774e-05
3.548e-05
3.34e-05
3.148e-05
2.972e-05
2.808e-05
2.657e-05
2.516e-05
2.385e-05
2.263e-05
2.149e-05
2.041e-05
1.939e-05
1.843e-05
1.752e-05
1.665e-05
1.582e-05
1.503e-05
1.426e-05
1.353e-05
1.282e-05
1.213e-05
1.146e-05
1.081e-05
1.017e-05
9.547e-06
8.937e-06
8.337e-06
7.747e-06
7.165e-06
6.591e-06
6.023e-06
5.461e-06
4.903e-06
4.349e-06
3.797e-06
3.248e-06
2.701e-06
2.154e-06
1.608e-06
1.061e-06
5.109e-07
6.209e-08
0.0003394
0.0003419
0.0003406
0.000337
0.0003328
0.0003288
0.0003253
0.0003222
0.0003195
0.0003171
0.0003149
0.0003128
0.0003109
0.0003092
0.0003075
0.000306
0.0003046
0.0003032
0.0003019
0.0003007
0.0002996
0.0002984
0.0002973
0.0002962
0.0002952
0.0002941
0.0002931
0.000292
0.0002909
0.0002898
0.0002887
0.0002875
0.0002863
0.000285
0.0002836
0.0002822
0.0002807
0.0002791
0.0002774
0.0002756
0.0002736
0.0002715
0.0002692
0.0002667
0.000264
0.0002611
0.0002579
0.0002544
0.0002507
0.0002466
0.0002423
0.0002376
0.0002325
0.0002271
0.0002214
0.0002153
0.0002089
0.0002022
0.0001952
0.0001879
0.0001804
0.0001728
0.000165
0.0001571
0.0001493
0.0001414
0.0001337
0.0001262
0.0001189
0.0001118
0.0001049
9.833e-05
9.206e-05
8.61e-05
8.046e-05
7.514e-05
7.016e-05
6.55e-05
6.117e-05
5.715e-05
5.343e-05
5e-05
4.683e-05
4.392e-05
4.123e-05
3.875e-05
3.647e-05
3.437e-05
3.242e-05
3.062e-05
2.895e-05
2.74e-05
2.595e-05
2.46e-05
2.334e-05
2.215e-05
2.103e-05
1.997e-05
1.897e-05
1.802e-05
1.711e-05
1.625e-05
1.542e-05
1.462e-05
1.385e-05
1.311e-05
1.24e-05
1.17e-05
1.103e-05
1.037e-05
9.728e-06
9.1e-06
8.484e-06
7.88e-06
7.285e-06
6.698e-06
6.12e-06
5.547e-06
4.98e-06
4.418e-06
3.859e-06
3.302e-06
2.747e-06
2.192e-06
1.638e-06
1.081e-06
5.191e-07
6.079e-08
0.0003308
0.0003335
0.0003334
0.0003312
0.0003282
0.000325
0.0003222
0.0003196
0.0003173
0.0003152
0.0003133
0.0003116
0.0003099
0.0003084
0.0003069
0.0003055
0.0003042
0.0003029
0.0003017
0.0003005
0.0002994
0.0002983
0.0002972
0.0002961
0.000295
0.0002939
0.0002928
0.0002918
0.0002906
0.0002895
0.0002883
0.0002871
0.0002859
0.0002846
0.0002832
0.0002817
0.0002802
0.0002786
0.0002768
0.000275
0.000273
0.0002709
0.0002686
0.0002661
0.0002634
0.0002605
0.0002573
0.0002538
0.0002501
0.0002461
0.0002417
0.0002371
0.000232
0.0002267
0.0002209
0.0002149
0.0002085
0.0002018
0.0001948
0.0001876
0.0001802
0.0001725
0.0001648
0.000157
0.0001491
0.0001414
0.0001337
0.0001262
0.0001189
0.0001119
0.0001051
9.859e-05
9.236e-05
8.644e-05
8.084e-05
7.556e-05
7.061e-05
6.599e-05
6.169e-05
5.77e-05
5.4e-05
5.059e-05
4.745e-05
4.454e-05
4.187e-05
3.94e-05
3.712e-05
3.501e-05
3.306e-05
3.124e-05
2.956e-05
2.798e-05
2.651e-05
2.514e-05
2.385e-05
2.263e-05
2.148e-05
2.04e-05
1.937e-05
1.839e-05
1.745e-05
1.656e-05
1.571e-05
1.489e-05
1.41e-05
1.334e-05
1.26e-05
1.189e-05
1.12e-05
1.052e-05
9.865e-06
9.224e-06
8.596e-06
7.98e-06
7.375e-06
6.78e-06
6.193e-06
5.613e-06
5.04e-06
4.471e-06
3.906e-06
3.344e-06
2.783e-06
2.223e-06
1.662e-06
1.098e-06
5.277e-07
6.171e-08
0.0003243
0.000327
0.0003276
0.0003263
0.0003242
0.0003218
0.0003194
0.0003172
0.0003152
0.0003135
0.0003118
0.0003103
0.0003089
0.0003075
0.0003062
0.0003049
0.0003037
0.0003025
0.0003014
0.0003002
0.0002991
0.000298
0.000297
0.0002959
0.0002948
0.0002938
0.0002927
0.0002916
0.0002904
0.0002893
0.0002881
0.0002869
0.0002856
0.0002843
0.0002829
0.0002815
0.0002799
0.0002783
0.0002765
0.0002747
0.0002727
0.0002706
0.0002683
0.0002658
0.0002631
0.0002602
0.0002571
0.0002537
0.00025
0.000246
0.0002417
0.000237
0.000232
0.0002266
0.0002209
0.0002148
0.0002084
0.0002018
0.0001948
0.0001875
0.0001801
0.0001724
0.0001647
0.0001568
0.000149
0.0001412
0.0001335
0.000126
0.0001188
0.0001118
0.000105
9.848e-05
9.227e-05
8.637e-05
8.078e-05
7.552e-05
7.06e-05
6.601e-05
6.174e-05
5.778e-05
5.413e-05
5.075e-05
4.764e-05
4.478e-05
4.213e-05
3.969e-05
3.743e-05
3.533e-05
3.339e-05
3.158e-05
2.989e-05
2.832e-05
2.685e-05
2.546e-05
2.416e-05
2.293e-05
2.177e-05
2.067e-05
1.962e-05
1.863e-05
1.768e-05
1.677e-05
1.59e-05
1.506e-05
1.426e-05
1.348e-05
1.274e-05
1.201e-05
1.131e-05
1.062e-05
9.956e-06
9.306e-06
8.67e-06
8.047e-06
7.435e-06
6.834e-06
6.242e-06
5.657e-06
5.079e-06
4.507e-06
3.938e-06
3.373e-06
2.809e-06
2.246e-06
1.681e-06
1.112e-06
5.372e-07
6.507e-08
0.0003192
0.0003218
0.0003228
0.0003222
0.0003207
0.0003189
0.0003169
0.0003151
0.0003134
0.0003118
0.0003104
0.000309
0.0003078
0.0003065
0.0003054
0.0003042
0.0003031
0.000302
0.0003009
0.0002999
0.0002988
0.0002978
0.0002967
0.0002957
0.0002947
0.0002936
0.0002925
0.0002914
0.0002903
0.0002892
0.000288
0.0002868
0.0002855
0.0002842
0.0002828
0.0002814
0.0002798
0.0002782
0.0002765
0.0002747
0.0002727
0.0002706
0.0002684
0.0002659
0.0002633
0.0002604
0.0002573
0.000254
0.0002503
0.0002463
0.000242
0.0002374
0.0002324
0.000227
0.0002213
0.0002152
0.0002087
0.000202
0.000195
0.0001877
0.0001802
0.0001724
0.0001646
0.0001567
0.0001487
0.0001409
0.0001332
0.0001257
0.0001184
0.0001113
0.0001045
9.8e-05
9.177e-05
8.586e-05
8.027e-05
7.502e-05
7.012e-05
6.555e-05
6.132e-05
5.741e-05
5.381e-05
5.049e-05
4.743e-05
4.462e-05
4.202e-05
3.962e-05
3.74e-05
3.534e-05
3.343e-05
3.164e-05
2.998e-05
2.842e-05
2.695e-05
2.558e-05
2.428e-05
2.305e-05
2.189e-05
2.078e-05
1.973e-05
1.873e-05
1.778e-05
1.686e-05
1.599e-05
1.515e-05
1.434e-05
1.355e-05
1.28e-05
1.207e-05
1.136e-05
1.067e-05
9.998e-06
9.344e-06
8.704e-06
8.078e-06
7.463e-06
6.86e-06
6.265e-06
5.679e-06
5.099e-06
4.526e-06
3.956e-06
3.39e-06
2.825e-06
2.261e-06
1.695e-06
1.125e-06
5.481e-07
7.102e-08
0.0003152
0.0003176
0.0003187
0.0003186
0.0003177
0.0003163
0.0003147
0.0003132
0.0003117
0.0003103
0.000309
0.0003078
0.0003067
0.0003056
0.0003046
0.0003035
0.0003025
0.0003015
0.0003005
0.0002995
0.0002985
0.0002975
0.0002965
0.0002955
0.0002945
0.0002935
0.0002924
0.0002914
0.0002903
0.0002892
0.000288
0.0002868
0.0002855
0.0002842
0.0002829
0.0002815
0.00028
0.0002784
0.0002767
0.0002749
0.000273
0.0002709
0.0002687
0.0002664
0.0002638
0.000261
0.000258
0.0002547
0.0002511
0.0002471
0.0002429
0.0002382
0.0002332
0.0002278
0.0002221
0.0002159
0.0002094
0.0002026
0.0001955
0.0001881
0.0001804
0.0001726
0.0001646
0.0001565
0.0001484
0.0001405
0.0001326
0.000125
0.0001177
0.0001105
0.0001037
9.711e-05
9.084e-05
8.489e-05
7.929e-05
7.404e-05
6.915e-05
6.462e-05
6.043e-05
5.658e-05
5.305e-05
4.98e-05
4.682e-05
4.407e-05
4.155e-05
3.921e-05
3.705e-05
3.505e-05
3.318e-05
3.144e-05
2.981e-05
2.828e-05
2.685e-05
2.549e-05
2.421e-05
2.3e-05
2.185e-05
2.075e-05
1.971e-05
1.871e-05
1.776e-05
1.685e-05
1.598e-05
1.514e-05
1.433e-05
1.355e-05
1.279e-05
1.206e-05
1.135e-05
1.066e-05
9.992e-06
9.338e-06
8.698e-06
8.072e-06
7.459e-06
6.856e-06
6.263e-06
5.677e-06
5.099e-06
4.527e-06
3.959e-06
3.395e-06
2.832e-06
2.269e-06
1.705e-06
1.136e-06
5.603e-07
7.966e-08
0.0003119
0.0003141
0.0003154
0.0003156
0.000315
0.000314
0.0003128
0.0003115
0.0003102
0.000309
0.0003078
0.0003068
0.0003057
0.0003047
0.0003038
0.0003028
0.0003019
0.000301
0.0003001
0.0002991
0.0002982
0.0002973
0.0002963
0.0002954
0.0002944
0.0002934
0.0002924
0.0002914
0.0002903
0.0002892
0.0002881
0.0002869
0.0002857
0.0002845
0.0002831
0.0002817
0.0002803
0.0002788
0.0002771
0.0002754
0.0002736
0.0002716
0.0002695
0.0002672
0.0002647
0.000262
0.000259
0.0002558
0.0002523
0.0002484
0.0002442
0.0002396
0.0002346
0.0002292
0.0002234
0.0002172
0.0002106
0.0002036
0.0001963
0.0001888
0.000181
0.0001729
0.0001647
0.0001564
0.0001481
0.0001399
0.0001319
0.0001241
0.0001166
0.0001094
0.0001024
9.576e-05
8.942e-05
8.342e-05
7.779e-05
7.253e-05
6.766e-05
6.317e-05
5.905e-05
5.528e-05
5.184e-05
4.868e-05
4.58e-05
4.315e-05
4.072e-05
3.847e-05
3.64e-05
3.447e-05
3.267e-05
3.099e-05
2.941e-05
2.793e-05
2.653e-05
2.521e-05
2.396e-05
2.278e-05
2.165e-05
2.058e-05
1.955e-05
1.857e-05
1.763e-05
1.674e-05
1.587e-05
1.504e-05
1.424e-05
1.346e-05
1.272e-05
1.199e-05
1.129e-05
1.06e-05
9.938e-06
9.288e-06
8.653e-06
8.032e-06
7.422e-06
6.823e-06
6.234e-06
5.653e-06
5.079e-06
4.511e-06
3.948e-06
3.387e-06
2.829e-06
2.27e-06
1.71e-06
1.146e-06
5.741e-07
9.104e-08
0.0003092
0.0003112
0.0003125
0.0003129
0.0003127
0.000312
0.0003111
0.00031
0.0003089
0.0003078
0.0003068
0.0003058
0.0003049
0.000304
0.0003031
0.0003022
0.0003014
0.0003005
0.0002997
0.0002988
0.0002979
0.0002971
0.0002962
0.0002953
0.0002943
0.0002934
0.0002924
0.0002915
0.0002904
0.0002894
0.0002883
0.0002872
0.000286
0.0002848
0.0002835
0.0002822
0.0002808
0.0002793
0.0002778
0.0002761
0.0002744
0.0002725
0.0002705
0.0002683
0.0002659
0.0002633
0.0002605
0.0002574
0.000254
0.0002502
0.0002461
0.0002416
0.0002366
0.0002312
0.0002253
0.000219
0.0002123
0.0002051
0.0001976
0.0001898
0.0001818
0.0001735
0.000165
0.0001563
0.0001477
0.0001392
0.0001309
0.0001229
0.0001152
0.0001078
0.0001007
9.387e-05
8.743e-05
8.137e-05
7.571e-05
7.045e-05
6.562e-05
6.119e-05
5.716e-05
5.35e-05
5.017e-05
4.714e-05
4.438e-05
4.186e-05
3.955e-05
3.741e-05
3.544e-05
3.36e-05
3.189e-05
3.029e-05
2.878e-05
2.736e-05
2.602e-05
2.475e-05
2.355e-05
2.24e-05
2.131e-05
2.026e-05
1.927e-05
1.831e-05
1.74e-05
1.652e-05
1.567e-05
1.486e-05
1.407e-05
1.331e-05
1.257e-05
1.186e-05
1.117e-05
1.049e-05
9.837e-06
9.196e-06
8.57e-06
7.956e-06
7.354e-06
6.763e-06
6.181e-06
5.607e-06
5.04e-06
4.478e-06
3.922e-06
3.368e-06
2.816e-06
2.265e-06
1.711e-06
1.154e-06
5.894e-07
1.051e-07
0.0003069
0.0003088
0.0003101
0.0003107
0.0003107
0.0003102
0.0003095
0.0003086
0.0003077
0.0003068
0.0003058
0.000305
0.0003041
0.0003033
0.0003025
0.0003017
0.0003009
0.0003001
0.0002993
0.0002985
0.0002977
0.0002969
0.0002961
0.0002952
0.0002943
0.0002935
0.0002925
0.0002916
0.0002906
0.0002896
0.0002886
0.0002875
0.0002864
0.0002853
0.0002841
0.0002828
0.0002815
0.0002801
0.0002787
0.0002771
0.0002754
0.0002737
0.0002718
0.0002697
0.0002675
0.0002651
0.0002624
0.0002595
0.0002562
0.0002526
0.0002486
0.0002441
0.0002392
0.0002338
0.0002279
0.0002215
0.0002146
0.0002073
0.0001995
0.0001915
0.0001831
0.0001744
0.0001654
0.0001563
0.0001472
0.0001382
0.0001295
0.0001212
0.0001133
0.0001056
9.827e-05
9.132e-05
8.478e-05
7.866e-05
7.297e-05
6.774e-05
6.297e-05
5.865e-05
5.474e-05
5.122e-05
4.805e-05
4.518e-05
4.258e-05
4.021e-05
3.804e-05
3.605e-05
3.42e-05
3.248e-05
3.087e-05
2.937e-05
2.795e-05
2.66e-05
2.533e-05
2.412e-05
2.297e-05
2.188e-05
2.083e-05
1.983e-05
1.887e-05
1.794e-05
1.706e-05
1.621e-05
1.539e-05
1.459e-05
1.383e-05
1.309e-05
1.237e-05
1.167e-05
1.1e-05
1.034e-05
9.693e-06
9.065e-06
8.45e-06
7.848e-06
7.257e-06
6.676e-06
6.104e-06
5.54e-06
4.982e-06
4.43e-06
3.882e-06
3.338e-06
2.795e-06
2.253e-06
1.709e-06
1.161e-06
6.062e-07
1.218e-07
0.000305
0.0003067
0.000308
0.0003087
0.0003089
0.0003086
0.0003081
0.0003074
0.0003066
0.0003058
0.000305
0.0003042
0.0003034
0.0003027
0.0003019
0.0003012
0.0003005
0.0002998
0.000299
0.0002983
0.0002975
0.0002968
0.000296
0.0002952
0.0002944
0.0002936
0.0002927
0.0002918
0.0002909
0.00029
0.000289
0.000288
0.000287
0.0002859
0.0002848
0.0002836
0.0002824
0.0002811
0.0002797
0.0002783
0.0002768
0.0002751
0.0002734
0.0002715
0.0002694
0.0002672
0.0002647
0.0002619
0.0002589
0.0002555
0.0002516
0.0002473
0.0002425
0.0002372
0.0002313
0.0002249
0.0002179
0.0002103
0.0002023
0.0001939
0.0001851
0.0001759
0.0001662
0.0001563
0.0001465
0.0001369
0.0001276
0.0001188
0.0001106
0.0001026
9.504e-05
8.794e-05
8.132e-05
7.517e-05
6.95e-05
6.433e-05
5.967e-05
5.55e-05
5.177e-05
4.844e-05
4.547e-05
4.281e-05
4.04e-05
3.822e-05
3.623e-05
3.44e-05
3.27e-05
3.112e-05
2.963e-05
2.824e-05
2.692e-05
2.567e-05
2.447e-05
2.334e-05
2.226e-05
2.122e-05
2.023e-05
1.927e-05
1.836e-05
1.748e-05
1.663e-05
1.581e-05
1.502e-05
1.426e-05
1.352e-05
1.28e-05
1.211e-05
1.143e-05
1.078e-05
1.013e-05
9.509e-06
8.897e-06
8.298e-06
7.71e-06
7.133e-06
6.565e-06
6.005e-06
5.453e-06
4.907e-06
4.367e-06
3.83e-06
3.297e-06
2.766e-06
2.234e-06
1.702e-06
1.166e-06
6.244e-07
1.408e-07
0.0003034
0.000305
0.0003063
0.000307
0.0003073
0.0003072
0.0003069
0.0003063
0.0003057
0.000305
0.0003043
0.0003036
0.0003029
0.0003022
0.0003015
0.0003008
0.0003001
0.0002995
0.0002988
0.0002981
0.0002974
0.0002967
0.000296
0.0002953
0.0002945
0.0002937
0.0002929
0.0002921
0.0002913
0.0002904
0.0002895
0.0002886
0.0002876
0.0002866
0.0002856
0.0002845
0.0002834
0.0002822
0.000281
0.0002796
0.0002783
0.0002768
0.0002752
0.0002735
0.0002717
0.0002696
0.0002674
0.0002649
0.0002621
0.0002589
0.0002553
0.0002512
0.0002466
0.0002414
0.0002357
0.0002293
0.0002223
0.0002146
0.0002062
0.0001974
0.0001882
0.0001783
0.0001675
0.0001565
0.0001457
0.000135
0.0001248
0.0001154
0.0001068
9.851e-05
9.069e-05
8.35e-05
7.689e-05
7.078e-05
6.519e-05
6.016e-05
5.569e-05
5.173e-05
4.824e-05
4.517e-05
4.245e-05
4.004e-05
3.787e-05
3.591e-05
3.413e-05
3.249e-05
3.096e-05
2.954e-05
2.819e-05
2.692e-05
2.572e-05
2.457e-05
2.347e-05
2.242e-05
2.141e-05
2.044e-05
1.951e-05
1.862e-05
1.775e-05
1.692e-05
1.611e-05
1.534e-05
1.458e-05
1.386e-05
1.315e-05
1.246e-05
1.18e-05
1.115e-05
1.051e-05
9.893e-06
9.288e-06
8.696e-06
8.115e-06
7.545e-06
6.984e-06
6.432e-06
5.887e-06
5.349e-06
4.817e-06
4.29e-06
3.767e-06
3.247e-06
2.729e-06
2.211e-06
1.692e-06
1.171e-06
6.44e-07
1.621e-07
0.000302
0.0003035
0.0003047
0.0003055
0.0003059
0.000306
0.0003058
0.0003054
0.0003049
0.0003043
0.0003037
0.000303
0.0003024
0.0003018
0.0003011
0.0003005
0.0002999
0.0002993
0.0002986
0.000298
0.0002974
0.0002967
0.000296
0.0002954
0.0002947
0.000294
0.0002932
0.0002925
0.0002917
0.0002909
0.0002901
0.0002892
0.0002884
0.0002874
0.0002865
0.0002855
0.0002845
0.0002834
0.0002823
0.0002812
0.0002799
0.0002787
0.0002773
0.0002758
0.0002742
0.0002724
0.0002704
0.0002682
0.0002658
0.0002629
0.0002596
0.0002559
0.0002516
0.0002467
0.0002411
0.0002349
0.0002281
0.0002205
0.0002119
0.0002028
0.0001933
0.0001824
0.0001699
0.0001569
0.0001443
0.0001319
0.0001203
0.0001102
0.0001013
9.285e-05
8.488e-05
7.778e-05
7.134e-05
6.539e-05
5.999e-05
5.519e-05
5.1e-05
4.735e-05
4.418e-05
4.142e-05
3.902e-05
3.69e-05
3.502e-05
3.333e-05
3.178e-05
3.035e-05
2.902e-05
2.777e-05
2.659e-05
2.546e-05
2.438e-05
2.334e-05
2.234e-05
2.138e-05
2.046e-05
1.957e-05
1.87e-05
1.787e-05
1.706e-05
1.628e-05
1.553e-05
1.48e-05
1.409e-05
1.34e-05
1.273e-05
1.207e-05
1.144e-05
1.082e-05
1.021e-05
9.617e-06
9.036e-06
8.466e-06
7.906e-06
7.356e-06
6.814e-06
6.279e-06
5.752e-06
5.23e-06
4.714e-06
4.202e-06
3.694e-06
3.189e-06
2.685e-06
2.183e-06
1.679e-06
1.174e-06
6.646e-07
1.852e-07
0.0003008
0.0003023
0.0003035
0.0003043
0.0003047
0.0003049
0.0003048
0.0003045
0.0003041
0.0003036
0.0003031
0.0003026
0.000302
0.0003014
0.0003008
0.0003003
0.0002997
0.0002991
0.0002985
0.000298
0.0002974
0.0002968
0.0002962
0.0002955
0.0002949
0.0002942
0.0002936
0.0002929
0.0002922
0.0002915
0.0002907
0.00029
0.0002892
0.0002883
0.0002875
0.0002866
0.0002857
0.0002848
0.0002838
0.0002828
0.0002818
0.0002807
0.0002795
0.0002783
0.0002769
0.0002754
0.0002738
0.0002719
0.0002698
0.0002674
0.0002646
0.0002612
0.0002574
0.0002529
0.0002477
0.000242
0.0002357
0.0002284
0.00022
0.0002109
0.0002016
0.0001899
0.0001744
0.0001578
0.000142
0.0001265
0.0001127
0.0001021
9.34e-05
8.502e-05
7.72e-05
7.052e-05
6.455e-05
5.895e-05
5.386e-05
4.943e-05
4.563e-05
4.239e-05
3.962e-05
3.726e-05
3.523e-05
3.346e-05
3.19e-05
3.05e-05
2.922e-05
2.804e-05
2.692e-05
2.586e-05
2.484e-05
2.386e-05
2.292e-05
2.2e-05
2.111e-05
2.025e-05
1.942e-05
1.861e-05
1.782e-05
1.705e-05
1.631e-05
1.559e-05
1.489e-05
1.42e-05
1.354e-05
1.289e-05
1.226e-05
1.165e-05
1.104e-05
1.046e-05
9.879e-06
9.313e-06
8.758e-06
8.213e-06
7.676e-06
7.147e-06
6.626e-06
6.111e-06
5.602e-06
5.098e-06
4.599e-06
4.104e-06
3.613e-06
3.124e-06
2.637e-06
2.15e-06
1.664e-06
1.177e-06
6.861e-07
2.099e-07
0.0002998
0.0003012
0.0003023
0.0003032
0.0003037
0.0003039
0.0003039
0.0003038
0.0003035
0.0003031
0.0003026
0.0003022
0.0003016
0.0003011
0.0003006
0.0003001
0.0002995
0.000299
0.0002985
0.000298
0.0002974
0.0002969
0.0002963
0.0002957
0.0002952
0.0002946
0.000294
0.0002934
0.0002927
0.0002921
0.0002914
0.0002907
0.00029
0.0002893
0.0002886
0.0002878
0.000287
0.0002863
0.0002854
0.0002846
0.0002837
0.0002828
0.0002819
0.0002809
0.0002798
0.0002787
0.0002774
0.0002759
0.0002743
0.0002723
0.00027
0.0002672
0.0002639
0.00026
0.0002555
0.0002505
0.0002452
0.0002389
0.000231
0.0002223
0.0002152
0.0002032
0.0001816
0.0001582
0.0001389
0.0001182
0.0001
8.918e-05
8.251e-05
7.465e-05
6.721e-05
6.153e-05
5.654e-05
5.152e-05
4.69e-05
4.297e-05
3.968e-05
3.694e-05
3.466e-05
3.275e-05
3.115e-05
2.978e-05
2.859e-05
2.751e-05
2.652e-05
2.559e-05
2.47e-05
2.384e-05
2.3e-05
2.218e-05
2.137e-05
2.058e-05
1.981e-05
1.905e-05
1.831e-05
1.758e-05
1.688e-05
1.618e-05
1.551e-05
1.485e-05
1.42e-05
1.357e-05
1.295e-05
1.235e-05
1.176e-05
1.119e-05
1.062e-05
1.007e-05
9.523e-06
8.987e-06
8.46e-06
7.941e-06
7.429e-06
6.923e-06
6.424e-06
5.93e-06
5.441e-06
4.956e-06
4.476e-06
3.999e-06
3.525e-06
3.053e-06
2.583e-06
2.115e-06
1.647e-06
1.178e-06
7.083e-07
2.358e-07
0.000299
0.0003003
0.0003014
0.0003022
0.0003028
0.0003031
0.0003032
0.0003031
0.0003029
0.0003026
0.0003022
0.0003018
0.0003014
0.0003009
0.0003004
0.0002999
0.0002995
0.000299
0.0002985
0.000298
0.0002975
0.000297
0.0002965
0.000296
0.0002955
0.0002949
0.0002944
0.0002939
0.0002933
0.0002927
0.0002921
0.0002916
0.0002909
0.0002903
0.0002897
0.0002891
0.0002884
0.0002877
0.0002871
0.0002864
0.0002857
0.000285
0.0002843
0.0002836
0.0002828
0.000282
0.0002811
0.0002801
0.0002789
0.0002774
0.0002757
0.0002735
0.0002709
0.0002677
0.000264
0.0002601
0.0002566
0.0002527
0.0002434
0.0002327
0.000233
0.0002348
0.0001866
0.0001521
0.0001441
0.0001075
7.141e-05
7.288e-05
7.326e-05
6.339e-05
5.417e-05
5.082e-05
4.755e-05
4.336e-05
3.932e-05
3.6e-05
3.333e-05
3.116e-05
2.941e-05
2.802e-05
2.689e-05
2.596e-05
2.515e-05
2.442e-05
2.373e-05
2.307e-05
2.241e-05
2.176e-05
2.11e-05
2.044e-05
1.978e-05
1.912e-05
1.846e-05
1.781e-05
1.716e-05
1.652e-05
1.589e-05
1.527e-05
1.467e-05
1.407e-05
1.348e-05
1.291e-05
1.234e-05
1.179e-05
1.124e-05
1.071e-05
1.018e-05
9.661e-06
9.15e-06
8.646e-06
8.148e-06
7.656e-06
7.17e-06
6.689e-06
6.212e-06
5.74e-06
5.272e-06
4.808e-06
4.346e-06
3.888e-06
3.432e-06
2.979e-06
2.527e-06
2.077e-06
1.628e-06
1.18e-06
7.308e-07
2.624e-07
0.0002983
0.0002995
0.0003006
0.0003014
0.000302
0.0003024
0.0003025
0.0003025
0.0003024
0.0003022
0.0003019
0.0003015
0.0003011
0.0003007
0.0003003
0.0002999
0.0002994
0.000299
0.0002985
0.0002981
0.0002976
0.0002972
0.0002967
0.0002963
0.0002958
0.0002953
0.0002949
0.0002944
0.0002939
0.0002934
0.0002929
0.0002924
0.0002919
0.0002914
0.0002908
0.0002903
0.0002898
0.0002893
0.0002887
0.0002882
0.0002877
0.0002872
0.0002867
0.0002863
0.0002858
0.0002853
0.0002848
0.0002843
0.0002836
0.0002827
0.0002815
0.00028
0.000278
0.0002755
0.0002725
0.0002696
0.0002679
0.0002682
0.0002638
0.0002263
0.0001838
0.000198
0.0001617
0.0001451
0.0001538
0.0001324
0.000108
0.0001186
8.116e-05
4.389e-05
3.891e-05
4.058e-05
3.887e-05
3.517e-05
3.149e-05
2.88e-05
2.677e-05
2.52e-05
2.404e-05
2.319e-05
2.257e-05
2.21e-05
2.169e-05
2.132e-05
2.094e-05
2.054e-05
2.012e-05
1.966e-05
1.919e-05
1.868e-05
1.816e-05
1.763e-05
1.709e-05
1.654e-05
1.599e-05
1.544e-05
1.489e-05
1.435e-05
1.381e-05
1.328e-05
1.275e-05
1.223e-05
1.172e-05
1.121e-05
1.071e-05
1.022e-05
9.728e-06
9.245e-06
8.768e-06
8.296e-06
7.828e-06
7.364e-06
6.905e-06
6.448e-06
5.996e-06
5.546e-06
5.099e-06
4.655e-06
4.213e-06
3.774e-06
3.337e-06
2.902e-06
2.469e-06
2.038e-06
1.608e-06
1.18e-06
7.533e-07
2.893e-07
0.0002977
0.0002989
0.0002999
0.0003007
0.0003013
0.0003017
0.000302
0.000302
0.000302
0.0003018
0.0003016
0.0003013
0.000301
0.0003006
0.0003002
0.0002998
0.0002994
0.000299
0.0002986
0.0002982
0.0002978
0.0002974
0.000297
0.0002966
0.0002962
0.0002958
0.0002953
0.0002949
0.0002945
0.0002941
0.0002937
0.0002933
0.0002928
0.0002924
0.000292
0.0002916
0.0002912
0.0002908
0.0002904
0.00029
0.0002897
0.0002894
0.0002891
0.0002889
0.0002887
0.0002886
0.0002885
0.0002883
0.0002881
0.0002878
0.0002872
0.0002862
0.0002848
0.0002829
0.00028
0.0002757
0.0002753
0.0002711
0.0002371
0.0001808
0.0001515
0.0001103
2.144e-05
0.0001256
0.0001887
0.0002552
0.0001734
0.0001487
0.0001221
7.735e-05
3.819e-05
3.549e-05
3.469e-05
2.726e-05
2.356e-05
2.154e-05
2.02e-05
1.927e-05
1.87e-05
1.843e-05
1.834e-05
1.832e-05
1.832e-05
1.829e-05
1.821e-05
1.807e-05
1.787e-05
1.761e-05
1.73e-05
1.695e-05
1.657e-05
1.616e-05
1.573e-05
1.528e-05
1.482e-05
1.436e-05
1.389e-05
1.342e-05
1.295e-05
1.248e-05
1.201e-05
1.155e-05
1.109e-05
1.063e-05
1.017e-05
9.722e-06
9.273e-06
8.827e-06
8.385e-06
7.944e-06
7.506e-06
7.071e-06
6.638e-06
6.207e-06
5.778e-06
5.35e-06
4.925e-06
4.501e-06
4.079e-06
3.659e-06
3.241e-06
2.825e-06
2.41e-06
1.998e-06
1.588e-06
1.18e-06
7.755e-07
3.162e-07
0.0002972
0.0002983
0.0002993
0.0003002
0.0003008
0.0003012
0.0003015
0.0003016
0.0003016
0.0003015
0.0003013
0.0003011
0.0003008
0.0003005
0.0003002
0.0002998
0.0002994
0.0002991
0.0002987
0.0002984
0.000298
0.0002976
0.0002973
0.0002969
0.0002965
0.0002962
0.0002958
0.0002955
0.0002951
0.0002948
0.0002944
0.0002941
0.0002938
0.0002934
0.0002931
0.0002928
0.0002925
0.0002922
0.000292
0.0002918
0.0002916
0.0002915
0.0002914
0.0002914
0.0002915
0.0002917
0.0002919
0.0002922
0.0002924
0.0002926
0.0002925
0.0002921
0.0002913
0.0002898
0.0002874
0.0002829
0.0002681
0.0002337
0.0001418
-0.0001544
5.939e-05
8.447e-05
8.879e-05
0.000133
0.0001751
0.0002092
0.0002129
0.0002362
0.0003682
0.0001755
7.791e-05
6.163e-05
2.541e-05
1.76e-05
1.521e-05
1.438e-05
1.389e-05
1.359e-05
1.364e-05
1.393e-05
1.434e-05
1.477e-05
1.515e-05
1.544e-05
1.563e-05
1.572e-05
1.572e-05
1.564e-05
1.549e-05
1.528e-05
1.502e-05
1.473e-05
1.44e-05
1.405e-05
1.368e-05
1.33e-05
1.291e-05
1.251e-05
1.211e-05
1.17e-05
1.129e-05
1.088e-05
1.047e-05
1.006e-05
9.648e-06
9.237e-06
8.826e-06
8.416e-06
8.007e-06
7.598e-06
7.19e-06
6.782e-06
6.375e-06
5.969e-06
5.563e-06
5.157e-06
4.753e-06
4.349e-06
3.947e-06
3.546e-06
3.146e-06
2.748e-06
2.352e-06
1.958e-06
1.568e-06
1.18e-06
7.97e-07
3.424e-07
0.0002968
0.0002979
0.0002989
0.0002997
0.0003003
0.0003008
0.0003011
0.0003012
0.0003013
0.0003012
0.0003011
0.0003009
0.0003007
0.0003004
0.0003001
0.0002998
0.0002995
0.0002992
0.0002988