/*--------------------------------*- C++ -*----------------------------------*\
  =========                 |
  \\      /  F ield         | OpenFOAM: The Open Source CFD Toolbox
   \\    /   O peration     | Website:  https://openfoam.org
    \\  /    A nd           | Version:  7
     \\/     M anipulation  |
\*---------------------------------------------------------------------------*/
FoamFile
{
    version     2.0;
    format      ascii;
    class       surfaceScalarField;
    location    "419.999473411148244";
    object      phi;
}
// * * * * * * * * * * * * * * * * * * * * * * * * * * * * * * * * * * * * * //

dimensions      [0 3 -1 0 0 0 0];

internalField   nonuniform List<scalar> 
8032
(
6.857e-10
2.518e-10
4.804e-10
2.053e-10
3.48e-10
1.324e-10
2.642e-10
8.372e-11
2.101e-10
5.414e-11
1.738e-10
3.635e-11
1.483e-10
2.547e-11
1.297e-10
1.861e-11
1.156e-10
1.409e-11
1.046e-10
1.097e-11
9.589e-11
8.733e-12
8.882e-11
7.063e-12
8.304e-11
5.779e-12
7.828e-11
4.764e-12
7.434e-11
3.944e-12
7.107e-11
3.268e-12
6.837e-11
2.701e-12
6.615e-11
2.216e-12
6.435e-11
1.796e-12
6.293e-11
1.425e-12
6.184e-11
1.093e-12
6.105e-11
7.907e-13
6.053e-11
5.113e-13
6.029e-11
2.488e-13
6.029e-11
-1.623e-15
6.053e-11
-2.442e-13
6.101e-11
-4.825e-13
6.173e-11
-7.196e-13
6.269e-11
-9.583e-13
6.389e-11
-1.201e-12
6.534e-11
-1.45e-12
6.705e-11
-1.707e-12
6.902e-11
-1.974e-12
7.128e-11
-2.252e-12
7.382e-11
-2.541e-12
7.666e-11
-2.843e-12
7.982e-11
-3.158e-12
8.33e-11
-3.485e-12
8.713e-11
-3.823e-12
9.13e-11
-4.171e-12
9.582e-11
-4.526e-12
1.007e-10
-4.886e-12
1.06e-10
-5.247e-12
1.116e-10
-5.603e-12
1.175e-10
-5.95e-12
1.238e-10
-6.279e-12
1.304e-10
-6.584e-12
1.372e-10
-6.855e-12
1.443e-10
-7.084e-12
1.516e-10
-7.259e-12
1.589e-10
-7.372e-12
1.664e-10
-7.411e-12
1.737e-10
-7.367e-12
1.81e-10
-7.231e-12
1.879e-10
-6.995e-12
1.946e-10
-6.654e-12
2.008e-10
-6.204e-12
2.065e-10
-5.644e-12
2.114e-10
-4.978e-12
2.156e-10
-4.213e-12
2.19e-10
-3.36e-12
2.214e-10
-2.435e-12
2.229e-10
-1.457e-12
2.233e-10
-4.488e-13
2.228e-10
5.65e-13
2.212e-10
1.559e-12
2.187e-10
2.511e-12
2.153e-10
3.401e-12
2.111e-10
4.212e-12
2.062e-10
4.933e-12
2.006e-10
5.557e-12
1.945e-10
6.08e-12
1.88e-10
6.502e-12
1.812e-10
6.823e-12
1.741e-10
7.049e-12
1.67e-10
7.185e-12
1.597e-10
7.238e-12
1.525e-10
7.215e-12
1.454e-10
7.125e-12
1.384e-10
6.976e-12
1.316e-10
6.778e-12
1.251e-10
6.539e-12
1.188e-10
6.267e-12
1.129e-10
5.971e-12
1.072e-10
5.658e-12
1.019e-10
5.334e-12
9.686e-11
5.006e-12
9.218e-11
4.677e-12
8.783e-11
4.353e-12
8.379e-11
4.037e-12
8.006e-11
3.731e-12
7.662e-11
3.438e-12
7.346e-11
3.158e-12
7.057e-11
2.893e-12
6.793e-11
2.644e-12
6.552e-11
2.411e-12
6.332e-11
2.193e-12
6.133e-11
1.991e-12
5.953e-11
1.804e-12
5.789e-11
1.632e-12
5.642e-11
1.473e-12
5.509e-11
1.328e-12
5.39e-11
1.195e-12
5.283e-11
1.073e-12
5.186e-11
9.627e-13
5.1e-11
8.622e-13
5.023e-11
7.711e-13
4.954e-11
6.885e-13
4.893e-11
6.14e-13
4.838e-11
5.467e-13
4.789e-11
4.862e-13
4.746e-11
4.319e-13
4.708e-11
3.834e-13
4.674e-11
3.401e-13
4.644e-11
3.019e-13
4.617e-11
2.683e-13
4.593e-11
2.392e-13
4.571e-11
2.145e-13
4.552e-11
1.941e-13
4.534e-11
1.784e-13
4.517e-11
1.675e-13
4.501e-11
1.624e-13
4.485e-11
1.644e-13
4.467e-11
1.763e-13
4.447e-11
2.03e-13
4.422e-11
2.533e-13
4.388e-11
3.364e-13
4.372e-13
9.523e-10
2.37e-10
8.501e-10
3.075e-10
7.275e-10
2.551e-10
6.183e-10
1.929e-10
5.294e-10
1.43e-10
4.594e-10
1.064e-10
4.044e-10
8.042e-11
3.61e-10
6.199e-11
3.264e-10
4.873e-11
2.984e-10
3.896e-11
2.755e-10
3.16e-11
2.567e-10
2.59e-11
2.411e-10
2.141e-11
2.281e-10
1.779e-11
2.172e-10
1.482e-11
2.081e-10
1.234e-11
2.006e-10
1.024e-11
1.944e-10
8.427e-12
1.893e-10
6.847e-12
1.853e-10
5.446e-12
1.822e-10
4.186e-12
1.8e-10
3.036e-12
1.785e-10
1.969e-12
1.778e-10
9.656e-13
1.778e-10
7.139e-15
1.785e-10
-9.213e-13
1.798e-10
-1.833e-12
1.818e-10
-2.739e-12
1.845e-10
-3.651e-12
1.879e-10
-4.576e-12
1.92e-10
-5.522e-12
1.968e-10
-6.497e-12
2.023e-10
-7.505e-12
2.086e-10
-8.551e-12
2.157e-10
-9.639e-12
2.236e-10
-1.077e-11
2.324e-10
-1.194e-11
2.421e-10
-1.316e-11
2.527e-10
-1.441e-11
2.642e-10
-1.57e-11
2.767e-10
-1.7e-11
2.901e-10
-1.832e-11
3.045e-10
-1.964e-11
3.198e-10
-2.093e-11
3.36e-10
-2.218e-11
3.531e-10
-2.336e-11
3.71e-10
-2.444e-11
3.895e-10
-2.54e-11
4.086e-10
-2.619e-11
4.281e-10
-2.679e-11
4.479e-10
-2.715e-11
4.677e-10
-2.724e-11
4.874e-10
-2.703e-11
5.067e-10
-2.649e-11
5.252e-10
-2.558e-11
5.429e-10
-2.43e-11
5.593e-10
-2.262e-11
5.742e-10
-2.056e-11
5.874e-10
-1.812e-11
5.985e-10
-1.533e-11
6.073e-10
-1.223e-11
6.138e-10
-8.873e-12
6.177e-10
-5.333e-12
6.189e-10
-1.686e-12
6.175e-10
1.981e-12
6.135e-10
5.582e-12
6.069e-10
9.038e-12
5.981e-10
1.228e-11
5.87e-10
1.524e-11
5.741e-10
1.789e-11
5.594e-10
2.02e-11
5.434e-10
2.215e-11
5.261e-10
2.373e-11
5.08e-10
2.496e-11
4.892e-10
2.584e-11
4.7e-10
2.639e-11
4.506e-10
2.664e-11
4.312e-10
2.661e-11
4.12e-10
2.634e-11
3.931e-10
2.584e-11
3.747e-10
2.516e-11
3.569e-10
2.433e-11
3.398e-10
2.337e-11
3.235e-10
2.231e-11
3.08e-10
2.119e-11
2.933e-10
2.002e-11
2.795e-10
1.883e-11
2.665e-10
1.763e-11
2.544e-10
1.644e-11
2.432e-10
1.528e-11
2.328e-10
1.415e-11
2.231e-10
1.306e-11
2.143e-10
1.203e-11
2.061e-10
1.104e-11
1.987e-10
1.011e-11
1.918e-10
9.234e-12
1.856e-10
8.417e-12
1.799e-10
7.657e-12
1.748e-10
6.951e-12
1.701e-10
6.299e-12
1.659e-10
5.697e-12
1.621e-10
5.145e-12
1.586e-10
4.638e-12
1.555e-10
4.175e-12
1.528e-10
3.752e-12
1.502e-10
3.368e-12
1.48e-10
3.018e-12
1.46e-10
2.701e-12
1.442e-10
2.414e-12
1.426e-10
2.154e-12
1.411e-10
1.92e-12
1.399e-10
1.71e-12
1.387e-10
1.522e-12
1.377e-10
1.354e-12
1.368e-10
1.205e-12
1.36e-10
1.074e-12
1.353e-10
9.605e-13
1.346e-10
8.634e-13
1.34e-10
7.828e-13
1.335e-10
7.192e-13
1.33e-10
6.735e-13
1.325e-10
6.474e-13
1.32e-10
6.439e-13
1.315e-10
6.674e-13
1.31e-10
7.246e-13
1.305e-10
8.231e-13
1.298e-10
9.614e-13
1.092e-12
9.779e-10
1.966e-10
9.637e-10
3.217e-10
9.013e-10
3.174e-10
8.213e-10
2.729e-10
7.411e-10
2.232e-10
6.683e-10
1.792e-10
6.051e-10
1.436e-10
5.514e-10
1.157e-10
5.062e-10
9.397e-11
4.682e-10
7.7e-11
4.361e-10
6.36e-11
4.092e-10
5.288e-11
3.864e-10
4.419e-11
3.671e-10
3.703e-11
3.509e-10
3.105e-11
3.373e-10
2.6e-11
3.258e-10
2.166e-11
3.164e-10
1.79e-11
3.086e-10
1.458e-11
3.024e-10
1.162e-11
2.977e-10
8.946e-12
2.942e-10
6.492e-12
2.92e-10
4.208e-12
2.909e-10
2.054e-12
2.909e-10
-8.086e-15
2.92e-10
-2.008e-12
2.941e-10
-3.973e-12
2.973e-10
-5.926e-12
3.016e-10
-7.89e-12
3.069e-10
-9.881e-12
3.133e-10
-1.192e-11
3.208e-10
-1.401e-11
3.294e-10
-1.617e-11
3.393e-10
-1.841e-11
3.504e-10
-2.073e-11
3.628e-10
-2.314e-11
3.764e-10
-2.563e-11
3.915e-10
-2.821e-11
4.08e-10
-3.086e-11
4.258e-10
-3.357e-11
4.452e-10
-3.633e-11
4.659e-10
-3.91e-11
4.881e-10
-4.185e-11
5.118e-10
-4.455e-11
5.367e-10
-4.714e-11
5.63e-10
-4.959e-11
5.903e-10
-5.183e-11
6.187e-10
-5.378e-11
6.479e-10
-5.54e-11
6.777e-10
-5.659e-11
7.079e-10
-5.729e-11
7.381e-10
-5.742e-11
7.68e-10
-5.692e-11
7.972e-10
-5.572e-11
8.254e-10
-5.377e-11
8.521e-10
-5.103e-11
8.77e-10
-4.748e-11
8.995e-10
-4.313e-11
9.194e-10
-3.8e-11
9.362e-10
-3.214e-11
9.497e-10
-2.565e-11
9.594e-10
-1.864e-11
9.653e-10
-1.124e-11
9.673e-10
-3.622e-12
9.652e-10
4.041e-12
9.592e-10
1.157e-11
9.495e-10
1.881e-11
9.361e-10
2.56e-11
9.196e-10
3.183e-11
9e-10
3.741e-11
8.779e-10
4.229e-11
8.537e-10
4.643e-11
8.276e-10
4.981e-11
8.001e-10
5.245e-11
7.715e-10
5.437e-11
7.423e-10
5.561e-11
7.128e-10
5.621e-11
6.832e-10
5.623e-11
6.538e-10
5.572e-11
6.249e-10
5.474e-11
5.967e-10
5.338e-11
5.693e-10
5.168e-11
5.43e-10
4.971e-11
5.178e-10
4.753e-11
4.937e-10
4.52e-11
4.71e-10
4.276e-11
4.495e-10
4.027e-11
4.294e-10
3.776e-11
4.106e-10
3.527e-11
3.93e-10
3.282e-11
3.768e-10
3.044e-11
3.617e-10
2.814e-11
3.478e-10
2.594e-11
3.35e-10
2.384e-11
3.232e-10
2.186e-11
3.124e-10
2e-11
3.026e-10
1.826e-11
2.936e-10
1.663e-11
2.855e-10
1.512e-11
2.78e-10
1.372e-11
2.713e-10
1.242e-11
2.652e-10
1.123e-11
2.597e-10
1.014e-11
2.548e-10
9.142e-12
2.503e-10
8.228e-12
2.463e-10
7.395e-12
2.426e-10
6.637e-12
2.394e-10
5.948e-12
2.365e-10
5.324e-12
2.339e-10
4.759e-12
2.315e-10
4.25e-12
2.295e-10
3.791e-12
2.276e-10
3.38e-12
2.259e-10
3.013e-12
2.245e-10
2.686e-12
2.231e-10
2.398e-12
2.22e-10
2.147e-12
2.209e-10
1.932e-12
2.199e-10
1.751e-12
2.19e-10
1.606e-12
2.182e-10
1.498e-12
2.174e-10
1.427e-12
2.167e-10
1.399e-12
2.159e-10
1.415e-12
2.152e-10
1.481e-12
2.144e-10
1.596e-12
2.136e-10
1.745e-12
1.866e-12
9.752e-10
1.589e-10
9.931e-10
3.038e-10
9.729e-10
3.376e-10
9.271e-10
3.188e-10
8.694e-10
2.809e-10
8.09e-10
2.396e-10
7.511e-10
2.015e-10
6.982e-10
1.686e-10
6.511e-10
1.411e-10
6.097e-10
1.184e-10
5.737e-10
9.959e-11
5.426e-10
8.403e-11
5.157e-10
7.103e-11
4.927e-10
6.008e-11
4.73e-10
5.076e-11
4.562e-10
4.276e-11
4.421e-10
3.58e-11
4.303e-10
2.969e-11
4.206e-10
2.426e-11
4.129e-10
1.937e-11
4.069e-10
1.493e-11
4.026e-10
1.082e-11
3.998e-10
6.986e-12
3.985e-10
3.354e-12
3.986e-10
-1.318e-13
4.001e-10
-3.52e-12
4.03e-10
-6.854e-12
4.072e-10
-1.017e-11
4.129e-10
-1.351e-11
4.199e-10
-1.689e-11
4.283e-10
-2.034e-11
4.382e-10
-2.389e-11
4.495e-10
-2.754e-11
4.625e-10
-3.133e-11
4.77e-10
-3.525e-11
4.931e-10
-3.931e-11
5.11e-10
-4.351e-11
5.306e-10
-4.784e-11
5.521e-10
-5.228e-11
5.753e-10
-5.682e-11
6.004e-10
-6.141e-11
6.273e-10
-6.603e-11
6.561e-10
-7.06e-11
6.866e-10
-7.508e-11
7.189e-10
-7.938e-11
7.527e-10
-8.341e-11
7.879e-10
-8.708e-11
8.244e-10
-9.029e-11
8.619e-10
-9.291e-11
9.002e-10
-9.483e-11
9.388e-10
-9.592e-11
9.775e-10
-9.607e-11
1.016e-09
-9.515e-11
1.053e-09
-9.308e-11
1.089e-09
-8.977e-11
1.123e-09
-8.515e-11
1.155e-09
-7.92e-11
1.184e-09
-7.193e-11
1.209e-09
-6.336e-11
1.231e-09
-5.361e-11
1.248e-09
-4.281e-11
1.26e-09
-3.113e-11
1.268e-09
-1.883e-11
1.27e-09
-6.161e-12
1.268e-09
6.585e-12
1.26e-09
1.912e-11
1.248e-09
3.116e-11
1.231e-09
4.248e-11
1.21e-09
5.288e-11
1.185e-09
6.222e-11
1.157e-09
7.039e-11
1.126e-09
7.734e-11
1.093e-09
8.306e-11
1.058e-09
8.754e-11
1.021e-09
9.084e-11
9.839e-10
9.3e-11
9.46e-10
9.409e-11
9.081e-10
9.421e-11
8.703e-10
9.346e-11
8.331e-10
9.193e-11
7.968e-10
8.973e-11
7.615e-10
8.697e-11
7.275e-10
8.375e-11
6.948e-10
8.017e-11
6.637e-10
7.632e-11
6.342e-10
7.23e-11
6.063e-10
6.817e-11
5.8e-10
6.399e-11
5.555e-10
5.984e-11
5.325e-10
5.575e-11
5.112e-10
5.176e-11
4.914e-10
4.791e-11
4.732e-10
4.421e-11
4.563e-10
4.069e-11
4.408e-10
3.736e-11
4.266e-10
3.421e-11
4.136e-10
3.126e-11
4.017e-10
2.851e-11
3.909e-10
2.595e-11
3.81e-10
2.357e-11
3.721e-10
2.138e-11
3.64e-10
1.935e-11
3.566e-10
1.749e-11
3.5e-10
1.579e-11
3.44e-10
1.423e-11
3.386e-10
1.28e-11
3.337e-10
1.15e-11
3.293e-10
1.032e-11
3.254e-10
9.251e-12
3.219e-10
8.281e-12
3.187e-10
7.405e-12
3.159e-10
6.615e-12
3.134e-10
5.905e-12
3.111e-10
5.271e-12
3.091e-10
4.706e-12
3.073e-10
4.206e-12
3.057e-10
3.769e-12
3.042e-10
3.391e-12
3.029e-10
3.072e-12
3.017e-10
2.811e-12
3.006e-10
2.608e-12
2.995e-10
2.465e-12
2.986e-10
2.383e-12
2.976e-10
2.364e-12
2.967e-10
2.408e-12
2.958e-10
2.508e-12
2.949e-10
2.638e-12
2.738e-12
9.668e-10
1.296e-10
9.945e-10
2.761e-10
9.981e-10
3.34e-10
9.784e-10
3.384e-10
9.431e-10
3.162e-10
8.994e-10
2.832e-10
8.53e-10
2.48e-10
8.071e-10
2.145e-10
7.638e-10
1.844e-10
7.24e-10
1.581e-10
6.882e-10
1.354e-10
6.563e-10
1.159e-10
6.282e-10
9.914e-11
6.036e-10
8.467e-11
5.823e-10
7.211e-11
5.639e-10
6.112e-11
5.483e-10
5.144e-11
5.351e-10
4.283e-11
5.243e-10
3.51e-11
5.156e-10
2.808e-11
5.089e-10
2.164e-11
5.04e-10
1.566e-11
5.01e-10
1.003e-11
4.997e-10
4.687e-12
5e-10
-4.628e-13
5.019e-10
-5.483e-12
5.055e-10
-1.043e-11
5.107e-10
-1.536e-11
5.175e-10
-2.032e-11
5.26e-10
-2.535e-11
5.361e-10
-3.049e-11
5.48e-10
-3.576e-11
5.617e-10
-4.119e-11
5.772e-10
-4.681e-11
5.945e-10
-5.262e-11
6.138e-10
-5.863e-11
6.352e-10
-6.484e-11
6.586e-10
-7.123e-11
6.841e-10
-7.778e-11
7.117e-10
-8.445e-11
7.415e-10
-9.121e-11
7.734e-10
-9.797e-11
8.075e-10
-1.047e-10
8.436e-10
-1.112e-10
8.817e-10
-1.175e-10
9.217e-10
-1.234e-10
9.633e-10
-1.287e-10
1.006e-09
-1.333e-10
1.05e-09
-1.371e-10
1.095e-09
-1.398e-10
1.141e-09
-1.413e-10
1.186e-09
-1.415e-10
1.231e-09
-1.401e-10
1.275e-09
-1.37e-10
1.317e-09
-1.32e-10
1.357e-09
-1.252e-10
1.395e-09
-1.164e-10
1.429e-09
-1.057e-10
1.458e-09
-9.316e-11
1.484e-09
-7.884e-11
1.504e-09
-6.298e-11
1.518e-09
-4.586e-11
1.527e-09
-2.78e-11
1.53e-09
-9.21e-12
1.528e-09
9.497e-12
1.519e-09
2.789e-11
1.504e-09
4.558e-11
1.485e-09
6.221e-11
1.46e-09
7.749e-11
1.431e-09
9.123e-11
1.398e-09
1.033e-10
1.362e-09
1.135e-10
1.323e-09
1.22e-10
1.282e-09
1.287e-10
1.239e-09
1.336e-10
1.195e-09
1.369e-10
1.151e-09
1.386e-10
1.106e-09
1.389e-10
1.061e-09
1.379e-10
1.018e-09
1.358e-10
9.746e-10
1.327e-10
9.329e-10
1.287e-10
8.926e-10
1.24e-10
8.539e-10
1.188e-10
8.17e-10
1.133e-10
7.819e-10
1.074e-10
7.487e-10
1.013e-10
7.175e-10
9.524e-11
6.882e-10
8.915e-11
6.608e-10
8.314e-11
6.353e-10
7.727e-11
6.116e-10
7.159e-11
5.897e-10
6.614e-11
5.694e-10
6.093e-11
5.508e-10
5.599e-11
5.337e-10
5.134e-11
5.18e-10
4.696e-11
5.036e-10
4.287e-11
4.905e-10
3.906e-11
4.786e-10
3.552e-11
4.677e-10
3.224e-11
4.578e-10
2.922e-11
4.489e-10
2.644e-11
4.408e-10
2.389e-11
4.335e-10
2.155e-11
4.268e-10
1.941e-11
4.209e-10
1.746e-11
4.155e-10
1.569e-11
4.107e-10
1.408e-11
4.064e-10
1.262e-11
4.025e-10
1.129e-11
3.99e-10
1.01e-11
3.959e-10
9.028e-12
3.931e-10
8.066e-12
3.906e-10
7.209e-12
3.883e-10
6.449e-12
3.863e-10
5.781e-12
3.845e-10
5.201e-12
3.829e-10
4.707e-12
3.814e-10
4.295e-12
3.8e-10
3.966e-12
3.788e-10
3.719e-12
3.776e-10
3.555e-12
3.765e-10
3.471e-12
3.754e-10
3.464e-12
3.744e-10
3.521e-12
3.734e-10
3.614e-12
3.689e-12
9.592e-10
1.079e-10
9.877e-10
2.477e-10
1.003e-09
3.187e-10
1.001e-09
3.408e-10
9.833e-10
3.336e-10
9.555e-10
3.11e-10
9.218e-10
2.817e-10
8.856e-10
2.507e-10
8.492e-10
2.208e-10
8.141e-10
1.932e-10
7.813e-10
1.682e-10
7.513e-10
1.46e-10
7.241e-10
1.263e-10
6.999e-10
1.089e-10
6.785e-10
9.348e-11
6.599e-10
7.975e-11
6.438e-10
6.746e-11
6.303e-10
5.639e-11
6.19e-10
4.634e-11
6.1e-10
3.713e-11
6.03e-10
2.86e-11
5.981e-10
2.062e-11
5.95e-10
1.308e-11
5.938e-10
5.874e-12
5.945e-10
-1.099e-12
5.969e-10
-7.917e-12
6.011e-10
-1.466e-11
6.071e-10
-2.138e-11
6.15e-10
-2.815e-11
6.246e-10
-3.503e-11
6.362e-10
-4.204e-11
6.497e-10
-4.925e-11
6.652e-10
-5.667e-11
6.827e-10
-6.433e-11
7.023e-10
-7.226e-11
7.241e-10
-8.044e-11
7.482e-10
-8.889e-11
7.745e-10
-9.758e-11
8.032e-10
-1.065e-10
8.343e-10
-1.155e-10
8.678e-10
-1.247e-10
9.036e-10
-1.338e-10
9.418e-10
-1.429e-10
9.823e-10
-1.517e-10
1.025e-09
-1.601e-10
1.07e-09
-1.68e-10
1.116e-09
-1.752e-10
1.164e-09
-1.814e-10
1.214e-09
-1.864e-10
1.264e-09
-1.901e-10
1.314e-09
-1.921e-10
1.365e-09
-1.922e-10
1.415e-09
-1.902e-10
1.464e-09
-1.859e-10
1.511e-09
-1.792e-10
1.556e-09
-1.699e-10
1.598e-09
-1.58e-10
1.635e-09
-1.435e-10
1.669e-09
-1.265e-10
1.697e-09
-1.071e-10
1.72e-09
-8.558e-11
1.736e-09
-6.237e-11
1.746e-09
-3.789e-11
1.75e-09
-1.267e-11
1.746e-09
1.27e-11
1.737e-09
3.765e-11
1.721e-09
6.163e-11
1.699e-09
8.417e-11
1.671e-09
1.049e-10
1.639e-09
1.235e-10
1.602e-09
1.399e-10
1.562e-09
1.539e-10
1.519e-09
1.654e-10
1.473e-09
1.745e-10
1.425e-09
1.813e-10
1.376e-09
1.859e-10
1.326e-09
1.883e-10
1.277e-09
1.888e-10
1.227e-09
1.876e-10
1.178e-09
1.848e-10
1.13e-09
1.807e-10
1.083e-09
1.754e-10
1.038e-09
1.692e-10
9.945e-10
1.622e-10
9.531e-10
1.547e-10
9.136e-10
1.468e-10
8.763e-10
1.387e-10
8.411e-10
1.304e-10
8.081e-10
1.222e-10
7.771e-10
1.141e-10
7.483e-10
1.061e-10
7.215e-10
9.839e-11
6.967e-10
9.098e-11
6.737e-10
8.389e-11
6.525e-10
7.716e-11
6.331e-10
7.081e-11
6.152e-10
6.483e-11
5.988e-10
5.924e-11
5.839e-10
5.402e-11
5.702e-10
4.918e-11
5.578e-10
4.468e-11
5.464e-10
4.054e-11
5.362e-10
3.671e-11
5.269e-10
3.32e-11
5.184e-10
2.998e-11
5.108e-10
2.703e-11
5.039e-10
2.434e-11
4.977e-10
2.189e-11
4.921e-10
1.966e-11
4.871e-10
1.764e-11
4.826e-10
1.581e-11
4.785e-10
1.415e-11
4.749e-10
1.266e-11
4.717e-10
1.132e-11
4.687e-10
1.013e-11
4.661e-10
9.065e-12
4.638e-10
8.128e-12
4.617e-10
7.31e-12
4.598e-10
6.607e-12
4.58e-10
6.014e-12
4.565e-10
5.53e-12
4.551e-10
5.151e-12
4.537e-10
4.876e-12
4.525e-10
4.7e-12
4.513e-10
4.616e-12
4.503e-10
4.61e-12
4.492e-10
4.652e-12
4.697e-12
9.536e-10
9.177e-11
9.796e-10
2.217e-10
9.999e-10
2.984e-10
1.008e-09
3.326e-10
1.004e-09
3.38e-10
9.89e-10
3.256e-10
9.672e-10
3.035e-10
9.409e-10
2.77e-10
9.126e-10
2.492e-10
8.838e-10
2.219e-10
8.558e-10
1.963e-10
8.292e-10
1.726e-10
8.046e-10
1.509e-10
7.821e-10
1.313e-10
7.62e-10
1.136e-10
7.442e-10
9.753e-11
7.288e-10
8.292e-11
7.156e-10
6.958e-11
7.046e-10
5.732e-11
6.957e-10
4.597e-11
6.89e-10
3.538e-11
6.842e-10
2.539e-11
6.814e-10
1.589e-11
6.805e-10
6.751e-12
6.815e-10
-2.124e-12
6.845e-10
-1.084e-11
6.893e-10
-1.947e-11
6.96e-10
-2.81e-11
7.047e-10
-3.681e-11
7.153e-10
-4.565e-11
7.279e-10
-5.469e-11
7.426e-10
-6.396e-11
7.595e-10
-7.352e-11
7.785e-10
-8.338e-11
7.998e-10
-9.357e-11
8.235e-10
-1.041e-10
8.495e-10
-1.149e-10
8.78e-10
-1.261e-10
9.091e-10
-1.375e-10
9.426e-10
-1.491e-10
9.787e-10
-1.608e-10
1.017e-09
-1.725e-10
1.059e-09
-1.841e-10
1.102e-09
-1.953e-10
1.148e-09
-2.061e-10
1.196e-09
-2.162e-10
1.246e-09
-2.253e-10
1.298e-09
-2.332e-10
1.351e-09
-2.395e-10
1.405e-09
-2.441e-10
1.46e-09
-2.466e-10
1.514e-09
-2.467e-10
1.568e-09
-2.441e-10
1.621e-09
-2.386e-10
1.672e-09
-2.3e-10
1.72e-09
-2.181e-10
1.765e-09
-2.029e-10
1.806e-09
-1.843e-10
1.842e-09
-1.624e-10
1.872e-09
-1.376e-10
1.897e-09
-1.1e-10
1.914e-09
-8.025e-11
1.925e-09
-4.883e-11
1.929e-09
-1.645e-11
1.926e-09
1.613e-11
1.915e-09
4.816e-11
1.898e-09
7.893e-11
1.874e-09
1.078e-10
1.845e-09
1.344e-10
1.81e-09
1.583e-10
1.771e-09
1.793e-10
1.727e-09
1.972e-10
1.681e-09
2.12e-10
1.631e-09
2.238e-10
1.58e-09
2.326e-10
1.527e-09
2.385e-10
1.474e-09
2.418e-10
1.42e-09
2.425e-10
1.367e-09
2.411e-10
1.314e-09
2.376e-10
1.262e-09
2.324e-10
1.212e-09
2.258e-10
1.163e-09
2.179e-10
1.116e-09
2.091e-10
1.072e-09
1.995e-10
1.029e-09
1.894e-10
9.885e-10
1.791e-10
9.504e-10
1.685e-10
9.146e-10
1.58e-10
8.811e-10
1.476e-10
8.498e-10
1.374e-10
8.207e-10
1.275e-10
7.937e-10
1.18e-10
7.687e-10
1.089e-10
7.456e-10
1.002e-10
7.243e-10
9.206e-11
7.048e-10
8.436e-11
6.869e-10
7.714e-11
6.705e-10
7.041e-11
6.556e-10
6.415e-11
6.419e-10
5.834e-11
6.295e-10
5.297e-11
6.182e-10
4.801e-11
6.079e-10
4.346e-11
5.986e-10
3.928e-11
5.902e-10
3.545e-11
5.826e-10
3.195e-11
5.757e-10
2.876e-11
5.695e-10
2.585e-11
5.64e-10
2.322e-11
5.59e-10
2.082e-11
5.544e-10
1.866e-11
5.504e-10
1.671e-11
5.468e-10
1.495e-11
5.435e-10
1.338e-11
5.406e-10
1.198e-11
5.38e-10
1.075e-11
5.356e-10
9.661e-12
5.335e-10
8.721e-12
5.316e-10
7.921e-12
5.299e-10
7.254e-12
5.283e-10
6.719e-12
5.269e-10
6.308e-12
5.256e-10
6.018e-12
5.243e-10
5.837e-12
5.232e-10
5.751e-12
5.221e-10
5.733e-12
5.745e-12
9.498e-10
7.944e-11
9.726e-10
1.989e-10
9.943e-10
2.768e-10
1.008e-09
3.186e-10
1.013e-09
3.336e-10
1.008e-09
3.302e-10
9.962e-10
3.154e-10
9.792e-10
2.94e-10
9.589e-10
2.695e-10
9.369e-10
2.439e-10
9.144e-10
2.188e-10
8.923e-10
1.947e-10
8.712e-10
1.72e-10
8.515e-10
1.51e-10
8.335e-10
1.316e-10
8.174e-10
1.136e-10
8.033e-10
9.707e-11
7.911e-10
8.175e-11
7.81e-10
6.75e-11
7.728e-10
5.416e-11
7.665e-10
4.16e-11
7.623e-10
2.967e-11
7.599e-10
1.824e-11
7.595e-10
7.188e-12
7.61e-10
-3.6e-12
7.643e-10
-1.423e-11
7.697e-10
-2.479e-11
7.77e-10
-3.539e-11
7.862e-10
-4.608e-11
7.975e-10
-5.696e-11
8.109e-10
-6.809e-11
8.265e-10
-7.951e-11
8.443e-10
-9.128e-11
8.643e-10
-1.034e-10
8.867e-10
-1.16e-10
9.116e-10
-1.289e-10
9.389e-10
-1.423e-10
9.688e-10
-1.56e-10
1.001e-09
-1.7e-10
1.036e-09
-1.842e-10
1.074e-09
-1.986e-10
1.115e-09
-2.129e-10
1.158e-09
-2.271e-10
1.203e-09
-2.409e-10
1.251e-09
-2.541e-10
1.302e-09
-2.665e-10
1.354e-09
-2.776e-10
1.408e-09
-2.872e-10
1.464e-09
-2.951e-10
1.52e-09
-3.006e-10
1.577e-09
-3.037e-10
1.634e-09
-3.038e-10
1.691e-09
-3.006e-10
1.746e-09
-2.938e-10
1.799e-09
-2.832e-10
1.85e-09
-2.686e-10
1.897e-09
-2.499e-10
1.94e-09
-2.271e-10
1.977e-09
-2.003e-10
2.009e-09
-1.697e-10
2.035e-09
-1.358e-10
2.054e-09
-9.913e-11
2.066e-09
-6.038e-11
2.07e-09
-2.043e-11
2.066e-09
1.977e-11
2.055e-09
5.926e-11
2.037e-09
9.716e-11
2.012e-09
1.327e-10
1.981e-09
1.654e-10
1.944e-09
1.947e-10
1.903e-09
2.205e-10
1.858e-09
2.425e-10
1.809e-09
2.608e-10
1.758e-09
2.753e-10
1.704e-09
2.861e-10
1.649e-09
2.935e-10
1.593e-09
2.976e-10
1.537e-09
2.987e-10
1.481e-09
2.97e-10
1.426e-09
2.929e-10
1.372e-09
2.866e-10
1.319e-09
2.785e-10
1.268e-09
2.689e-10
1.219e-09
2.581e-10
1.172e-09
2.464e-10
1.127e-09
2.341e-10
1.085e-09
2.214e-10
1.045e-09
2.085e-10
1.007e-09
1.956e-10
9.723e-10
1.828e-10
9.394e-10
1.703e-10
9.087e-10
1.581e-10
8.803e-10
1.464e-10
8.54e-10
1.352e-10
8.296e-10
1.246e-10
8.072e-10
1.145e-10
7.866e-10
1.05e-10
7.676e-10
9.608e-11
7.503e-10
8.776e-11
7.344e-10
8.001e-11
7.199e-10
7.282e-11
7.067e-10
6.617e-11
6.947e-10
6.003e-11
6.838e-10
5.438e-11
6.738e-10
4.919e-11
6.649e-10
4.443e-11
6.567e-10
4.008e-11
6.494e-10
3.61e-11
6.428e-10
3.248e-11
6.368e-10
2.919e-11
6.314e-10
2.62e-11
6.266e-10
2.35e-11
6.222e-10
2.106e-11
6.183e-10
1.886e-11
6.148e-10
1.689e-11
6.117e-10
1.513e-11
6.088e-10
1.357e-11
6.063e-10
1.219e-11
6.04e-10
1.099e-11
6.02e-10
9.962e-12
6.002e-10
9.094e-12
5.985e-10
8.381e-12
5.97e-10
7.816e-12
5.956e-10
7.393e-12
5.944e-10
7.1e-12
5.932e-10
6.921e-12
5.921e-10
6.836e-12
6.813e-12
9.472e-10
6.973e-11
9.67e-10
1.791e-10
9.883e-10
2.555e-10
1.005e-09
3.016e-10
1.015e-09
3.235e-10
1.018e-09
3.275e-10
1.014e-09
3.192e-10
1.005e-09
3.031e-10
9.922e-10
2.824e-10
9.767e-10
2.594e-10
9.599e-10
2.356e-10
9.427e-10
2.119e-10
9.256e-10
1.891e-10
9.093e-10
1.673e-10
8.941e-10
1.468e-10
8.803e-10
1.275e-10
8.68e-10
1.094e-10
8.573e-10
9.241e-11
8.484e-10
7.644e-11
8.412e-10
6.134e-11
8.358e-10
4.699e-11
8.322e-10
3.324e-11
8.305e-10
1.999e-11
8.306e-10
7.092e-12
8.325e-10
-5.554e-12
8.364e-10
-1.806e-11
8.421e-10
-3.054e-11
8.498e-10
-4.308e-11
8.595e-10
-5.577e-11
8.712e-10
-6.869e-11
8.851e-10
-8.192e-11
9.011e-10
-9.551e-11
9.193e-10
-1.095e-10
9.398e-10
-1.24e-10
9.628e-10
-1.389e-10
9.881e-10
-1.543e-10
1.016e-09
-1.702e-10
1.047e-09
-1.865e-10
1.08e-09
-2.031e-10
1.116e-09
-2.201e-10
1.154e-09
-2.371e-10
1.195e-09
-2.542e-10
1.239e-09
-2.71e-10
1.286e-09
-2.874e-10
1.335e-09
-3.031e-10
1.386e-09
-3.177e-10
1.439e-09
-3.31e-10
1.494e-09
-3.424e-10
1.551e-09
-3.517e-10
1.609e-09
-3.583e-10
1.667e-09
-3.619e-10
1.725e-09
-3.62e-10
1.783e-09
-3.582e-10
1.839e-09
-3.502e-10
1.894e-09
-3.377e-10
1.946e-09
-3.203e-10
1.994e-09
-2.981e-10
2.038e-09
-2.71e-10
2.077e-09
-2.391e-10
2.11e-09
-2.028e-10
2.136e-09
-1.624e-10
2.156e-09
-1.186e-10
2.168e-09
-7.228e-11
2.172e-09
-2.45e-11
2.168e-09
2.357e-11
2.156e-09
7.076e-11
2.137e-09
1.16e-10
2.112e-09
1.583e-10
2.08e-09
1.972e-10
2.043e-09
2.32e-10
2.001e-09
2.626e-10
1.954e-09
2.888e-10
1.905e-09
3.105e-10
1.852e-09
3.278e-10
1.798e-09
3.408e-10
1.741e-09
3.496e-10
1.684e-09
3.546e-10
1.627e-09
3.56e-10
1.57e-09
3.54e-10
1.514e-09
3.492e-10
1.459e-09
3.418e-10
1.405e-09
3.323e-10
1.353e-09
3.209e-10
1.303e-09
3.082e-10
1.255e-09
2.944e-10
1.209e-09
2.798e-10
1.166e-09
2.647e-10
1.125e-09
2.494e-10
1.087e-09
2.34e-10
1.051e-09
2.188e-10
1.017e-09
2.04e-10
9.855e-10
1.895e-10
9.564e-10
1.756e-10
9.294e-10
1.622e-10
9.044e-10
1.495e-10
8.814e-10
1.375e-10
8.602e-10
1.262e-10
8.407e-10
1.156e-10
8.228e-10
1.056e-10
8.065e-10
9.636e-11
7.916e-10
8.777e-11
7.779e-10
7.98e-11
7.655e-10
7.245e-11
7.542e-10
6.568e-11
7.439e-10
5.945e-11
7.346e-10
5.374e-11
7.262e-10
4.851e-11
7.186e-10
4.373e-11
7.117e-10
3.938e-11
7.055e-10
3.541e-11
6.999e-10
3.181e-11
6.948e-10
2.855e-11
6.903e-10
2.56e-11
6.862e-10
2.294e-11
6.825e-10
2.055e-11
6.792e-10
1.841e-11
6.763e-10
1.651e-11
6.737e-10
1.483e-11
6.713e-10
1.336e-11
6.692e-10
1.209e-11
6.673e-10
1.1e-11
6.655e-10
1.01e-11
6.64e-10
9.363e-12
6.626e-10
8.794e-12
6.613e-10
8.377e-12
6.601e-10
8.098e-12
6.59e-10
7.94e-12
7.88e-12
9.454e-10
6.184e-11
9.626e-10
1.618e-10
9.828e-10
2.353e-10
1.001e-09
2.833e-10
1.015e-09
3.098e-10
1.023e-09
3.196e-10
1.025e-09
3.17e-10
1.022e-09
3.058e-10
1.016e-09
2.89e-10
1.006e-09
2.688e-10
9.949e-10
2.469e-10
9.825e-10
2.244e-10
9.697e-10
2.019e-10
9.57e-10
1.8e-10
9.448e-10
1.589e-10
9.336e-10
1.387e-10
9.235e-10
1.195e-10
9.146e-10
1.013e-10
9.072e-10
8.387e-11
9.013e-10
6.726e-11
8.969e-10
5.133e-11
8.942e-10
3.595e-11
8.932e-10
2.102e-11
8.939e-10
6.414e-12
8.963e-10
-7.985e-12
9.005e-10
-2.229e-11
9.066e-10
-3.66e-11
9.145e-10
-5.102e-11
9.244e-10
-6.564e-11
9.363e-10
-8.056e-11
9.502e-10
-9.585e-11
9.662e-10
-1.116e-10
9.845e-10
-1.278e-10
1.005e-09
-1.445e-10
1.028e-09
-1.618e-10
1.053e-09
-1.796e-10
1.081e-09
-1.98e-10
1.111e-09
-2.169e-10
1.144e-09
-2.361e-10
1.18e-09
-2.557e-10
1.218e-09
-2.755e-10
1.259e-09
-2.952e-10
1.303e-09
-3.147e-10
1.349e-09
-3.337e-10
1.398e-09
-3.518e-10
1.449e-09
-3.688e-10
1.502e-09
-3.841e-10
1.557e-09
-3.974e-10
1.614e-09
-4.081e-10
1.671e-09
-4.158e-10
1.729e-09
-4.2e-10
1.788e-09
-4.202e-10
1.845e-09
-4.158e-10
1.902e-09
-4.066e-10
1.956e-09
-3.921e-10
2.008e-09
-3.721e-10
2.056e-09
-3.464e-10
2.1e-09
-3.15e-10
2.139e-09
-2.781e-10
2.172e-09
-2.36e-10
2.199e-09
-1.891e-10
2.219e-09
-1.382e-10
2.23e-09
-8.423e-11
2.234e-09
-2.851e-11
2.231e-09
2.753e-11
2.219e-09
8.247e-11
2.2e-09
1.35e-10
2.174e-09
1.841e-10
2.142e-09
2.29e-10
2.105e-09
2.693e-10
2.063e-09
3.047e-10
2.017e-09
3.349e-10
1.967e-09
3.6e-10
1.915e-09
3.801e-10
1.861e-09
3.951e-10
1.805e-09
4.055e-10
1.748e-09
4.113e-10
1.691e-09
4.13e-10
1.634e-09
4.109e-10
1.578e-09
4.054e-10
1.523e-09
3.969e-10
1.469e-09
3.859e-10
1.417e-09
3.728e-10
1.367e-09
3.581e-10
1.32e-09
3.421e-10
1.274e-09
3.253e-10
1.231e-09
3.078e-10
1.19e-09
2.901e-10
1.152e-09
2.723e-10
1.116e-09
2.548e-10
1.082e-09
2.376e-10
1.051e-09
2.208e-10
1.022e-09
2.047e-10
9.949e-10
1.892e-10
9.699e-10
1.745e-10
9.469e-10
1.606e-10
9.256e-10
1.474e-10
9.061e-10
1.351e-10
8.882e-10
1.235e-10
8.718e-10
1.128e-10
8.568e-10
1.028e-10
8.431e-10
9.351e-11
8.306e-10
8.495e-11
8.192e-10
7.706e-11
8.088e-10
6.98e-11
7.994e-10
6.313e-11
7.909e-10
5.703e-11
7.832e-10
5.145e-11
7.762e-10
4.635e-11
7.699e-10
4.171e-11
7.642e-10
3.75e-11
7.591e-10
3.367e-11
7.545e-10
3.021e-11
7.504e-10
2.709e-11
7.466e-10
2.427e-11
7.433e-10
2.175e-11
7.403e-10
1.951e-11
7.376e-10
1.751e-11
7.352e-10
1.576e-11
7.331e-10
1.424e-11
7.311e-10
1.293e-11
7.294e-10
1.182e-11
7.279e-10
1.091e-11
7.265e-10
1.019e-11
7.252e-10
9.642e-12
7.24e-10
9.258e-12
7.23e-10
9.025e-12
8.927e-12
9.441e-10
5.525e-11
9.592e-10
1.466e-10
9.781e-10
2.164e-10
9.967e-10
2.647e-10
1.012e-09
2.942e-10
1.024e-09
3.081e-10
1.031e-09
3.101e-10
1.033e-09
3.032e-10
1.032e-09
2.902e-10
1.028e-09
2.73e-10
1.021e-09
2.533e-10
1.014e-09
2.322e-10
1.005e-09
2.106e-10
9.958e-10
1.89e-10
9.868e-10
1.678e-10
9.783e-10
1.472e-10
9.705e-10
1.273e-10
9.637e-10
1.081e-10
9.58e-10
8.961e-11
9.534e-10
7.177e-11
9.503e-10
5.451e-11
9.485e-10
3.772e-11
9.482e-10
2.13e-11
9.495e-10
5.15e-12
9.523e-10
-1.085e-11
9.569e-10
-2.681e-11
9.631e-10
-4.283e-11
9.711e-10
-5.902e-11
9.81e-10
-7.548e-11
9.927e-10
-9.229e-11
1.006e-09
-1.095e-10
1.022e-09
-1.273e-10
1.04e-09
-1.456e-10
1.06e-09
-1.645e-10
1.082e-09
-1.841e-10
1.107e-09
-2.043e-10
1.134e-09
-2.251e-10
1.164e-09
-2.464e-10
1.196e-09
-2.682e-10
1.23e-09
-2.904e-10
1.268e-09
-3.128e-10
1.307e-09
-3.351e-10
1.35e-09
-3.572e-10
1.395e-09
-3.787e-10
1.442e-09
-3.993e-10
1.492e-09
-4.185e-10
1.544e-09
-4.358e-10
1.597e-09
-4.509e-10
1.652e-09
-4.631e-10
1.708e-09
-4.719e-10
1.765e-09
-4.766e-10
1.822e-09
-4.768e-10
1.878e-09
-4.719e-10
1.933e-09
-4.615e-10
1.986e-09
-4.451e-10
2.036e-09
-4.225e-10
2.083e-09
-3.935e-10
2.126e-09
-3.58e-10
2.164e-09
-3.162e-10
2.197e-09
-2.685e-10
2.223e-09
-2.153e-10
2.242e-09
-1.574e-10
2.254e-09
-9.59e-11
2.257e-09
-3.232e-11
2.253e-09
3.16e-11
2.242e-09
9.416e-11
2.223e-09
1.538e-10
2.198e-09
2.094e-10
2.166e-09
2.601e-10
2.13e-09
3.056e-10
2.089e-09
3.454e-10
2.045e-09
3.796e-10
1.997e-09
4.08e-10
1.946e-09
4.307e-10
1.893e-09
4.479e-10
1.839e-09
4.597e-10
1.784e-09
4.665e-10
1.728e-09
4.685e-10
1.673e-09
4.662e-10
1.618e-09
4.601e-10
1.565e-09
4.505e-10
1.513e-09
4.381e-10
1.462e-09
4.234e-10
1.413e-09
4.067e-10
1.367e-09
3.887e-10
1.323e-09
3.696e-10
1.281e-09
3.498e-10
1.241e-09
3.298e-10
1.204e-09
3.097e-10
1.168e-09
2.898e-10
1.136e-09
2.703e-10
1.105e-09
2.513e-10
1.077e-09
2.331e-10
1.051e-09
2.156e-10
1.026e-09
1.989e-10
1.004e-09
1.831e-10
9.829e-10
1.682e-10
9.638e-10
1.542e-10
9.463e-10
1.411e-10
9.302e-10
1.288e-10
9.155e-10
1.175e-10
9.021e-10
1.07e-10
8.898e-10
9.721e-11
8.786e-10
8.823e-11
8.685e-10
7.997e-11
8.592e-10
7.237e-11
8.508e-10
6.542e-11
8.432e-10
5.905e-11
8.363e-10
5.324e-11
8.301e-10
4.794e-11
8.245e-10
4.312e-11
8.194e-10
3.874e-11
8.149e-10
3.477e-11
8.108e-10
3.119e-11
8.071e-10
2.796e-11
8.038e-10
2.506e-11
8.008e-10
2.247e-11
7.981e-10
2.017e-11
7.958e-10
1.814e-11
7.936e-10
1.636e-11
7.917e-10
1.482e-11
7.901e-10
1.352e-11
7.885e-10
1.243e-11
7.872e-10
1.155e-11
7.86e-10
1.087e-11
7.848e-10
1.038e-11
7.838e-10
1.007e-11
9.931e-12
9.431e-10
4.964e-11
9.566e-10
1.332e-10
9.741e-10
1.989e-10
9.925e-10
2.464e-10
1.009e-09
2.774e-10
1.023e-09
2.943e-10
1.033e-09
2.999e-10
1.04e-09
2.967e-10
1.043e-09
2.87e-10
1.043e-09
2.727e-10
1.041e-09
2.553e-10
1.038e-09
2.36e-10
1.033e-09
2.155e-10
1.027e-09
1.946e-10
1.021e-09
1.737e-10
1.015e-09
1.53e-10
1.01e-09
1.327e-10
1.005e-09
1.129e-10
1.001e-09
9.361e-11
9.982e-10
7.483e-11
9.962e-10
5.649e-11
9.954e-10
3.852e-11
9.959e-10
2.083e-11
9.977e-10
3.335e-12
1.001e-09
-1.408e-11
1.006e-09
-3.153e-11
1.012e-09
-4.91e-11
1.02e-09
-6.691e-11
1.029e-09
-8.505e-11
1.041e-09
-1.036e-10
1.054e-09
-1.227e-10
1.069e-09
-1.423e-10
1.086e-09
-1.626e-10
1.105e-09
-1.836e-10
1.126e-09
-2.053e-10
1.15e-09
-2.277e-10
1.175e-09
-2.507e-10
1.203e-09
-2.744e-10
1.234e-09
-2.987e-10
1.267e-09
-3.233e-10
1.302e-09
-3.481e-10
1.34e-09
-3.73e-10
1.38e-09
-3.975e-10
1.423e-09
-4.214e-10
1.468e-09
-4.443e-10
1.515e-09
-4.656e-10
1.564e-09
-4.85e-10
1.615e-09
-5.017e-10
1.667e-09
-5.153e-10
1.72e-09
-5.25e-10
1.774e-09
-5.303e-10
1.828e-09
-5.305e-10
1.881e-09
-5.25e-10
1.933e-09