/*--------------------------------*- C++ -*----------------------------------*\
  =========                 |
  \\      /  F ield         | OpenFOAM: The Open Source CFD Toolbox
   \\    /   O peration     | Website:  https://openfoam.org
    \\  /    A nd           | Version:  7
     \\/     M anipulation  |
\*---------------------------------------------------------------------------*/
FoamFile
{
    version     2.0;
    format      ascii;
    class       volVectorField;
    location    "419.999473411148244";
    object      U;
}
// * * * * * * * * * * * * * * * * * * * * * * * * * * * * * * * * * * * * * //

dimensions      [0 1 -1 0 0 0 0];

internalField   nonuniform List<vector> 
4096
(
(0.001039 0.0001611 0)
(0.0007463 0.0001314 0)
(0.0005301 8.474e-05 0)
(0.0003918 5.358e-05 0)
(0.0003036 3.465e-05 0)
(0.0002457 2.326e-05 0)
(0.0002061 1.63e-05 0)
(0.0001779 1.191e-05 0)
(0.000157 9.017e-06 0)
(0.0001409 7.023e-06 0)
(0.0001283 5.589e-06 0)
(0.0001182 4.52e-06 0)
(0.00011 3.698e-06 0)
(0.0001032 3.049e-06 0)
(9.767e-05 2.524e-06 0)
(9.306e-05 2.092e-06 0)
(8.924e-05 1.729e-06 0)
(8.609e-05 1.418e-06 0)
(8.352e-05 1.149e-06 0)
(8.146e-05 9.121e-07 0)
(7.985e-05 6.995e-07 0)
(7.865e-05 5.061e-07 0)
(7.781e-05 3.272e-07 0)
(7.733e-05 1.592e-07 0)
(7.717e-05 -1.039e-09 0)
(7.732e-05 -1.563e-07 0)
(7.779e-05 -3.088e-07 0)
(7.856e-05 -4.605e-07 0)
(7.963e-05 -6.133e-07 0)
(8.101e-05 -7.687e-07 0)
(8.271e-05 -9.281e-07 0)
(8.473e-05 -1.093e-06 0)
(8.709e-05 -1.263e-06 0)
(8.979e-05 -1.441e-06 0)
(9.286e-05 -1.626e-06 0)
(9.631e-05 -1.82e-06 0)
(0.0001001 -2.021e-06 0)
(0.0001044 -2.23e-06 0)
(0.0001091 -2.447e-06 0)
(0.0001142 -2.669e-06 0)
(0.0001198 -2.897e-06 0)
(0.0001258 -3.127e-06 0)
(0.0001323 -3.358e-06 0)
(0.0001392 -3.586e-06 0)
(0.0001466 -3.808e-06 0)
(0.0001544 -4.019e-06 0)
(0.0001627 -4.214e-06 0)
(0.0001713 -4.387e-06 0)
(0.0001802 -4.534e-06 0)
(0.0001894 -4.646e-06 0)
(0.0001987 -4.718e-06 0)
(0.0002082 -4.743e-06 0)
(0.0002176 -4.715e-06 0)
(0.000227 -4.628e-06 0)
(0.0002361 -4.477e-06 0)
(0.0002448 -4.258e-06 0)
(0.0002531 -3.97e-06 0)
(0.0002606 -3.612e-06 0)
(0.0002674 -3.186e-06 0)
(0.0002733 -2.696e-06 0)
(0.0002782 -2.151e-06 0)
(0.0002819 -1.558e-06 0)
(0.0002844 -9.325e-07 0)
(0.0002856 -2.872e-07 0)
(0.0002855 3.616e-07 0)
(0.0002842 9.98e-07 0)
(0.0002816 1.607e-06 0)
(0.0002778 2.177e-06 0)
(0.0002729 2.696e-06 0)
(0.000267 3.157e-06 0)
(0.0002603 3.557e-06 0)
(0.0002529 3.891e-06 0)
(0.0002448 4.161e-06 0)
(0.0002363 4.367e-06 0)
(0.0002274 4.512e-06 0)
(0.0002183 4.599e-06 0)
(0.0002091 4.632e-06 0)
(0.0001998 4.618e-06 0)
(0.0001907 4.56e-06 0)
(0.0001816 4.465e-06 0)
(0.0001728 4.338e-06 0)
(0.0001643 4.185e-06 0)
(0.0001561 4.011e-06 0)
(0.0001483 3.821e-06 0)
(0.0001408 3.621e-06 0)
(0.0001338 3.414e-06 0)
(0.0001272 3.204e-06 0)
(0.000121 2.993e-06 0)
(0.0001152 2.786e-06 0)
(0.0001098 2.584e-06 0)
(0.0001049 2.388e-06 0)
(0.0001003 2.2e-06 0)
(9.605e-05 2.021e-06 0)
(9.218e-05 1.852e-06 0)
(8.864e-05 1.692e-06 0)
(8.54e-05 1.543e-06 0)
(8.246e-05 1.404e-06 0)
(7.978e-05 1.274e-06 0)
(7.735e-05 1.155e-06 0)
(7.515e-05 1.044e-06 0)
(7.316e-05 9.428e-07 0)
(7.137e-05 8.498e-07 0)
(6.976e-05 7.646e-07 0)
(6.83e-05 6.869e-07 0)
(6.7e-05 6.161e-07 0)
(6.583e-05 5.518e-07 0)
(6.479e-05 4.935e-07 0)
(6.385e-05 4.407e-07 0)
(6.302e-05 3.929e-07 0)
(6.228e-05 3.499e-07 0)
(6.162e-05 3.112e-07 0)
(6.103e-05 2.764e-07 0)
(6.051e-05 2.454e-07 0)
(6.004e-05 2.177e-07 0)
(5.963e-05 1.932e-07 0)
(5.927e-05 1.717e-07 0)
(5.894e-05 1.531e-07 0)
(5.865e-05 1.373e-07 0)
(5.839e-05 1.243e-07 0)
(5.815e-05 1.142e-07 0)
(5.793e-05 1.072e-07 0)
(5.772e-05 1.039e-07 0)
(5.751e-05 1.052e-07 0)
(5.729e-05 1.128e-07 0)
(5.705e-05 1.3e-07 0)
(5.676e-05 1.621e-07 0)
(5.638e-05 2.153e-07 0)
(5.589e-05 2.798e-07 0)
(0.001209 0.0003128 0)
(0.001154 0.0003282 0)
(0.00101 0.000248 0)
(0.0008613 0.000177 0)
(0.0007345 0.0001262 0)
(0.0006328 9.135e-05 0)
(0.0005528 6.777e-05 0)
(0.0004899 5.159e-05 0)
(0.00044 4.02e-05 0)
(0.0003999 3.196e-05 0)
(0.0003673 2.581e-05 0)
(0.0003406 2.11e-05 0)
(0.0003186 1.74e-05 0)
(0.0003002 1.443e-05 0)
(0.000285 1.201e-05 0)
(0.0002722 9.988e-06 0)
(0.0002616 8.279e-06 0)
(0.0002528 6.812e-06 0)
(0.0002456 5.531e-06 0)
(0.0002398 4.398e-06 0)
(0.0002352 3.379e-06 0)
(0.0002318 2.449e-06 0)
(0.0002294 1.587e-06 0)
(0.000228 7.772e-07 0)
(0.0002276 3.53e-09 0)
(0.000228 -7.459e-07 0)
(0.0002293 -1.482e-06 0)
(0.0002314 -2.214e-06 0)
(0.0002345 -2.95e-06 0)
(0.0002383 -3.697e-06 0)
(0.0002431 -4.462e-06 0)
(0.0002488 -5.251e-06 0)
(0.0002554 -6.067e-06 0)
(0.000263 -6.914e-06 0)
(0.0002715 -7.795e-06 0)
(0.0002811 -8.712e-06 0)
(0.0002918 -9.665e-06 0)
(0.0003037 -1.065e-05 0)
(0.0003166 -1.167e-05 0)
(0.0003308 -1.271e-05 0)
(0.0003461 -1.378e-05 0)
(0.0003627 -1.485e-05 0)
(0.0003805 -1.592e-05 0)
(0.0003995 -1.698e-05 0)
(0.0004197 -1.8e-05 0)
(0.0004411 -1.897e-05 0)
(0.0004634 -1.986e-05 0)
(0.0004867 -2.064e-05 0)
(0.0005108 -2.129e-05 0)
(0.0005355 -2.179e-05 0)
(0.0005607 -2.209e-05 0)
(0.000586 -2.218e-05 0)
(0.0006113 -2.201e-05 0)
(0.0006362 -2.158e-05 0)
(0.0006604 -2.085e-05 0)
(0.0006836 -1.981e-05 0)
(0.0007054 -1.845e-05 0)
(0.0007255 -1.677e-05 0)
(0.0007434 -1.478e-05 0)
(0.0007589 -1.251e-05 0)
(0.0007717 -9.976e-06 0)
(0.0007815 -7.237e-06 0)
(0.0007881 -4.345e-06 0)
(0.0007914 -1.366e-06 0)
(0.0007913 1.629e-06 0)
(0.0007878 4.571e-06 0)
(0.000781 7.392e-06 0)
(0.0007712 1.003e-05 0)
(0.0007584 1.245e-05 0)
(0.0007431 1.461e-05 0)
(0.0007254 1.648e-05 0)
(0.0007058 1.807e-05 0)
(0.0006845 1.935e-05 0)
(0.0006618 2.034e-05 0)
(0.0006382 2.105e-05 0)
(0.0006139 2.149e-05 0)
(0.0005892 2.168e-05 0)
(0.0005643 2.165e-05 0)
(0.0005396 2.142e-05 0)
(0.0005153 2.1e-05 0)
(0.0004914 2.044e-05 0)
(0.0004683 1.975e-05 0)
(0.0004459 1.897e-05 0)
(0.0004245 1.81e-05 0)
(0.0004041 1.718e-05 0)
(0.0003848 1.623e-05 0)
(0.0003666 1.525e-05 0)
(0.0003494 1.428e-05 0)
(0.0003334 1.331e-05 0)
(0.0003185 1.236e-05 0)
(0.0003046 1.144e-05 0)
(0.0002918 1.056e-05 0)
(0.0002799 9.717e-06 0)
(0.000269 8.917e-06 0)
(0.0002591 8.162e-06 0)
(0.0002499 7.453e-06 0)
(0.0002416 6.791e-06 0)
(0.000234 6.175e-06 0)
(0.000227 5.603e-06 0)
(0.0002208 5.075e-06 0)
(0.0002151 4.589e-06 0)
(0.0002099 4.142e-06 0)
(0.0002053 3.733e-06 0)
(0.0002011 3.359e-06 0)
(0.0001973 3.018e-06 0)
(0.0001939 2.707e-06 0)
(0.0001909 2.425e-06 0)
(0.0001882 2.169e-06 0)
(0.0001857 1.938e-06 0)
(0.0001835 1.729e-06 0)
(0.0001816 1.54e-06 0)
(0.0001799 1.371e-06 0)
(0.0001783 1.219e-06 0)
(0.0001769 1.084e-06 0)
(0.0001757 9.646e-07 0)
(0.0001746 8.593e-07 0)
(0.0001736 7.678e-07 0)
(0.0001728 6.898e-07 0)
(0.000172 6.253e-07 0)
(0.0001712 5.745e-07 0)
(0.0001706 5.382e-07 0)
(0.0001699 5.183e-07 0)
(0.0001693 5.173e-07 0)
(0.0001687 5.4e-07 0)
(0.000168 5.937e-07 0)
(0.0001673 6.889e-07 0)
(0.0001666 8.306e-07 0)
(0.0001658 9.787e-07 0)
(0.001226 0.0002775 0)
(0.001243 0.0004027 0)
(0.001194 0.0003664 0)
(0.001102 0.0002981 0)
(0.001 0.0002343 0)
(0.0009021 0.0001828 0)
(0.000815 0.0001434 0)
(0.0007402 0.0001137 0)
(0.0006769 9.133e-05 0)
(0.0006236 7.422e-05 0)
(0.0005788 6.093e-05 0)
(0.000541 5.042e-05 0)
(0.0005092 4.198e-05 0)
(0.0004823 3.508e-05 0)
(0.0004596 2.936e-05 0)
(0.0004404 2.453e-05 0)
(0.0004244 2.041e-05 0)
(0.000411 1.685e-05 0)
(0.0004 1.371e-05 0)
(0.0003911 1.092e-05 0)
(0.0003841 8.405e-06 0)
(0.0003788 6.097e-06 0)
(0.0003752 3.953e-06 0)
(0.0003731 1.932e-06 0)
(0.0003724 -6.06e-10 0)
(0.0003731 -1.875e-06 0)
(0.0003751 -3.716e-06 0)
(0.0003785 -5.546e-06 0)
(0.0003833 -7.386e-06 0)
(0.0003894 -9.252e-06 0)
(0.0003969 -1.116e-05 0)
(0.0004058 -1.312e-05 0)
(0.0004161 -1.515e-05 0)
(0.000428 -1.725e-05 0)
(0.0004414 -1.944e-05 0)
(0.0004564 -2.17e-05 0)
(0.0004731 -2.405e-05 0)
(0.0004915 -2.648e-05 0)
(0.0005117 -2.898e-05 0)
(0.0005336 -3.153e-05 0)
(0.0005574 -3.413e-05 0)
(0.0005831 -3.675e-05 0)
(0.0006106 -3.935e-05 0)
(0.0006399 -4.19e-05 0)
(0.000671 -4.437e-05 0)
(0.0007038 -4.669e-05 0)
(0.0007381 -4.881e-05 0)
(0.0007738 -5.068e-05 0)
(0.0008107 -5.222e-05 0)
(0.0008484 -5.336e-05 0)
(0.0008868 -5.404e-05 0)
(0.0009254 -5.419e-05 0)
(0.0009639 -5.373e-05 0)
(0.001002 -5.261e-05 0)
(0.001038 -5.078e-05 0)
(0.001074 -4.821e-05 0)
(0.001107 -4.486e-05 0)
(0.001137 -4.076e-05 0)
(0.001164 -3.591e-05 0)
(0.001188 -3.038e-05 0)
(0.001207 -2.424e-05 0)
(0.001222 -1.761e-05 0)
(0.001232 -1.061e-05 0)
(0.001237 -3.397e-06 0)
(0.001237 3.854e-06 0)
(0.001232 1.098e-05 0)
(0.001222 1.782e-05 0)
(0.001207 2.424e-05 0)
(0.001188 3.013e-05 0)
(0.001165 3.54e-05 0)
(0.001138 3.999e-05 0)
(0.001108 4.389e-05 0)
(0.001076 4.707e-05 0)
(0.001042 4.954e-05 0)
(0.001006 5.134e-05 0)
(0.0009689 5.248e-05 0)
(0.0009313 5.303e-05 0)
(0.0008934 5.302e-05 0)
(0.0008556 5.251e-05 0)
(0.0008183 5.158e-05 0)
(0.0007818 5.026e-05 0)
(0.0007462 4.864e-05 0)
(0.0007119 4.677e-05 0)
(0.0006789 4.47e-05 0)
(0.0006474 4.249e-05 0)
(0.0006174 4.018e-05 0)
(0.0005891 3.782e-05 0)
(0.0005625 3.545e-05 0)
(0.0005376 3.31e-05 0)
(0.0005143 3.078e-05 0)
(0.0004927 2.854e-05 0)
(0.0004726 2.637e-05 0)
(0.000454 2.43e-05 0)
(0.0004369 2.233e-05 0)
(0.0004212 2.046e-05 0)
(0.0004068 1.871e-05 0)
(0.0003936 1.707e-05 0)
(0.0003816 1.554e-05 0)
(0.0003706 1.412e-05 0)
(0.0003606 1.281e-05 0)
(0.0003516 1.16e-05 0)
(0.0003434 1.048e-05 0)
(0.000336 9.459e-06 0)
(0.0003293 8.523e-06 0)
(0.0003232 7.667e-06 0)
(0.0003178 6.888e-06 0)
(0.0003129 6.179e-06 0)
(0.0003085 5.535e-06 0)
(0.0003046 4.952e-06 0)
(0.000301 4.425e-06 0)
(0.0002979 3.949e-06 0)
(0.000295 3.521e-06 0)
(0.0002925 3.137e-06 0)
(0.0002903 2.795e-06 0)
(0.0002883 2.49e-06 0)
(0.0002865 2.222e-06 0)
(0.0002849 1.989e-06 0)
(0.0002834 1.789e-06 0)
(0.0002821 1.622e-06 0)
(0.0002809 1.488e-06 0)
(0.0002798 1.39e-06 0)
(0.0002788 1.328e-06 0)
(0.0002778 1.307e-06 0)
(0.0002769 1.333e-06 0)
(0.0002759 1.412e-06 0)
(0.0002749 1.548e-06 0)
(0.0002739 1.732e-06 0)
(0.0002729 1.893e-06 0)
(0.001224 0.0002275 0)
(0.00126 0.0004003 0)
(0.001258 0.0004192 0)
(0.001216 0.0003787 0)
(0.00115 0.0003226 0)
(0.001074 0.000268 0)
(0.0009985 0.0002209 0)
(0.0009276 0.0001819 0)
(0.0008636 0.0001504 0)
(0.0008069 0.000125 0)
(0.0007574 0.0001044 0)
(0.0007144 8.762e-05 0)
(0.0006773 7.374e-05 0)
(0.0006454 6.215e-05 0)
(0.000618 5.236e-05 0)
(0.0005947 4.4e-05 0)
(0.0005749 3.678e-05 0)
(0.0005583 3.045e-05 0)
(0.0005446 2.486e-05 0)
(0.0005334 1.984e-05 0)
(0.0005246 1.528e-05 0)
(0.000518 1.108e-05 0)
(0.0005135 7.165e-06 0)
(0.0005109 3.461e-06 0)
(0.0005101 -8.95e-08 0)
(0.0005112 -3.538e-06 0)
(0.000514 -6.929e-06 0)
(0.0005185 -1.03e-05 0)
(0.0005249 -1.369e-05 0)
(0.0005329 -1.713e-05 0)
(0.0005428 -2.064e-05 0)
(0.0005545 -2.425e-05 0)
(0.0005681 -2.798e-05 0)
(0.0005837 -3.183e-05 0)
(0.0006012 -3.583e-05 0)
(0.0006209 -3.997e-05 0)
(0.0006427 -4.425e-05 0)
(0.0006667 -4.867e-05 0)
(0.0006929 -5.321e-05 0)
(0.0007215 -5.785e-05 0)
(0.0007525 -6.255e-05 0)
(0.0007857 -6.728e-05 0)
(0.0008214 -7.197e-05 0)
(0.0008593 -7.656e-05 0)
(0.0008995 -8.097e-05 0)
(0.0009418 -8.512e-05 0)
(0.000986 -8.89e-05 0)
(0.001032 -9.221e-05 0)
(0.001079 -9.492e-05 0)
(0.001128 -9.691e-05 0)
(0.001177 -9.805e-05 0)
(0.001226 -9.823e-05 0)
(0.001276 -9.733e-05 0)
(0.001324 -9.523e-05 0)
(0.001371 -9.186e-05 0)
(0.001416 -8.716e-05 0)
(0.001458 -8.108e-05 0)
(0.001497 -7.363e-05 0)
(0.001531 -6.487e-05 0)
(0.001561 -5.488e-05 0)
(0.001586 -4.381e-05 0)
(0.001605 -3.185e-05 0)
(0.001618 -1.924e-05 0)
(0.001624 -6.261e-06 0)
(0.001624 6.801e-06 0)
(0.001618 1.964e-05 0)
(0.001605 3.198e-05 0)
(0.001586 4.357e-05 0)
(0.001562 5.422e-05 0)
(0.001533 6.376e-05 0)
(0.001499 7.212e-05 0)
(0.001461 7.921e-05 0)
(0.00142 8.504e-05 0)
(0.001376 8.96e-05 0)
(0.001331 9.294e-05 0)
(0.001283 9.511e-05 0)
(0.001235 9.619e-05 0)
(0.001187 9.628e-05 0)
(0.001138 9.547e-05 0)
(0.00109 9.387e-05 0)
(0.001043 9.159e-05 0)
(0.0009973 8.873e-05 0)
(0.0009529 8.541e-05 0)
(0.0009102 8.173e-05 0)
(0.0008694 7.777e-05 0)
(0.0008306 7.364e-05 0)
(0.0007939 6.94e-05 0)
(0.0007592 6.513e-05 0)
(0.0007267 6.087e-05 0)
(0.0006963 5.669e-05 0)
(0.000668 5.261e-05 0)
(0.0006417 4.867e-05 0)
(0.0006173 4.49e-05 0)
(0.0005949 4.13e-05 0)
(0.0005742 3.79e-05 0)
(0.0005552 3.47e-05 0)
(0.0005377 3.169e-05 0)
(0.0005218 2.889e-05 0)
(0.0005073 2.628e-05 0)
(0.000494 2.386e-05 0)
(0.000482 2.163e-05 0)
(0.0004711 1.957e-05 0)
(0.0004612 1.769e-05 0)
(0.0004522 1.595e-05 0)
(0.0004441 1.437e-05 0)
(0.0004368 1.292e-05 0)
(0.0004303 1.161e-05 0)
(0.0004243 1.041e-05 0)
(0.000419 9.328e-06 0)
(0.0004143 8.346e-06 0)
(0.00041 7.459e-06 0)
(0.0004062 6.66e-06 0)
(0.0004027 5.943e-06 0)
(0.0003997 5.301e-06 0)
(0.0003969 4.731e-06 0)
(0.0003945 4.227e-06 0)
(0.0003923 3.786e-06 0)
(0.0003903 3.407e-06 0)
(0.0003885 3.087e-06 0)
(0.0003869 2.827e-06 0)
(0.0003854 2.628e-06 0)
(0.0003841 2.491e-06 0)
(0.0003828 2.42e-06 0)
(0.0003815 2.419e-06 0)
(0.0003803 2.489e-06 0)
(0.0003792 2.626e-06 0)
(0.000378 2.805e-06 0)
(0.0003769 2.946e-06 0)
(0.001219 0.0001846 0)
(0.001255 0.0003712 0)
(0.001275 0.0004298 0)
(0.001265 0.0004206 0)
(0.00123 0.0003821 0)
(0.001179 0.0003346 0)
(0.001122 0.0002877 0)
(0.001062 0.0002452 0)
(0.001005 0.0002083 0)
(0.0009522 0.0001769 0)
(0.0009038 0.0001504 0)
(0.0008605 0.000128 0)
(0.0008221 0.0001089 0)
(0.0007884 9.264e-05 0)
(0.000759 7.864e-05 0)
(0.0007335 6.648e-05 0)
(0.0007118 5.583e-05 0)
(0.0006934 4.641e-05 0)
(0.000678 3.799e-05 0)
(0.0006655 3.037e-05 0)
(0.0006556 2.34e-05 0)
(0.0006483 1.695e-05 0)
(0.0006432 1.089e-05 0)
(0.0006404 5.147e-06 0)
(0.0006398 -3.805e-07 0)
(0.0006412 -5.762e-06 0)
(0.0006448 -1.106e-05 0)
(0.0006504 -1.634e-05 0)
(0.0006581 -2.165e-05 0)
(0.0006679 -2.703e-05 0)
(0.0006798 -3.253e-05 0)
(0.0006939 -3.817e-05 0)
(0.0007102 -4.399e-05 0)
(0.0007288 -5.001e-05 0)
(0.0007499 -5.624e-05 0)
(0.0007734 -6.268e-05 0)
(0.0007994 -6.934e-05 0)
(0.000828 -7.62e-05 0)
(0.0008593 -8.324e-05 0)
(0.0008933 -9.042e-05 0)
(0.00093 -9.768e-05 0)
(0.0009695 -0.000105 0)
(0.001012 -0.0001122 0)
(0.001057 -0.0001192 0)
(0.001104 -0.000126 0)
(0.001154 -0.0001323 0)
(0.001206 -0.0001381 0)
(0.001261 -0.0001431 0)
(0.001316 -0.0001472 0)
(0.001373 -0.0001502 0)
(0.001431 -0.0001519 0)
(0.001489 -0.000152 0)
(0.001547 -0.0001505 0)
(0.001604 -0.0001472 0)
(0.001659 -0.000142 0)
(0.001712 -0.0001346 0)
(0.001761 -0.0001252 0)
(0.001807 -0.0001137 0)
(0.001848 -0.0001002 0)
(0.001883 -8.477e-05 0)
(0.001912 -6.771e-05 0)
(0.001934 -4.928e-05 0)
(0.001949 -2.985e-05 0)
(0.001957 -9.837e-06 0)
(0.001957 1.029e-05 0)
(0.00195 3.009e-05 0)
(0.001935 4.911e-05 0)
(0.001913 6.7e-05 0)
(0.001885 8.344e-05 0)
(0.00185 9.821e-05 0)
(0.001811 0.0001111 0)
(0.001766 0.0001222 0)
(0.001718 0.0001312 0)
(0.001667 0.0001384 0)
(0.001613 0.0001437 0)
(0.001558 0.0001471 0)
(0.001501 0.0001489 0)
(0.001444 0.0001492 0)
(0.001387 0.0001481 0)
(0.001331 0.0001457 0)
(0.001275 0.0001423 0)
(0.001221 0.000138 0)
(0.001168 0.000133 0)
(0.001118 0.0001274 0)
(0.001069 0.0001213 0)
(0.001023 0.000115 0)
(0.0009796 0.0001085 0)
(0.0009384 0.0001019 0)
(0.0008996 9.535e-05 0)
(0.0008633 8.889e-05 0)
(0.0008295 8.258e-05 0)
(0.000798 7.648e-05 0)
(0.0007688 7.062e-05 0)
(0.0007418 6.504e-05 0)
(0.000717 5.974e-05 0)
(0.0006941 5.475e-05 0)
(0.0006731 5.006e-05 0)
(0.0006538 4.568e-05 0)
(0.0006363 4.16e-05 0)
(0.0006202 3.782e-05 0)
(0.0006056 3.432e-05 0)
(0.0005923 3.109e-05 0)
(0.0005803 2.812e-05 0)
(0.0005694 2.539e-05 0)
(0.0005595 2.29e-05 0)
(0.0005506 2.062e-05 0)
(0.0005425 1.854e-05 0)
(0.0005353 1.665e-05 0)
(0.0005288 1.493e-05 0)
(0.0005229 1.337e-05 0)
(0.0005176 1.197e-05 0)
(0.0005129 1.07e-05 0)
(0.0005087 9.557e-06 0)
(0.0005049 8.536e-06 0)
(0.0005015 7.625e-06 0)
(0.0004985 6.819e-06 0)
(0.0004958 6.112e-06 0)
(0.0004933 5.499e-06 0)
(0.0004911 4.978e-06 0)
(0.0004891 4.548e-06 0)
(0.0004873 4.208e-06 0)
(0.0004856 3.958e-06 0)
(0.0004841 3.8e-06 0)
(0.0004826 3.735e-06 0)
(0.0004812 3.758e-06 0)
(0.0004799 3.858e-06 0)
(0.0004786 4.001e-06 0)
(0.0004774 4.113e-06 0)
(0.001214 0.000152 0)
(0.001246 0.0003352 0)
(0.001274 0.0004177 0)
(0.001282 0.0004347 0)
(0.00127 0.0004158 0)
(0.001241 0.0003803 0)
(0.001202 0.000339 0)
(0.001157 0.0002977 0)
(0.00111 0.0002593 0)
(0.001065 0.0002248 0)
(0.001021 0.0001943 0)
(0.0009809 0.0001676 0)
(0.0009442 0.0001443 0)
(0.0009113 0.0001239 0)
(0.0008822 0.000106 0)
(0.0008566 9.016e-05 0)
(0.0008344 7.61e-05 0)
(0.0008154 6.35e-05 0)
(0.0007996 5.212e-05 0)
(0.0007866 4.173e-05 0)
(0.0007763 3.215e-05 0)
(0.0007687 2.322e-05 0)
(0.0007636 1.48e-05 0)
(0.0007609 6.759e-06 0)
(0.0007605 -9.995e-07 0)
(0.0007625 -8.576e-06 0)
(0.0007667 -1.606e-05 0)
(0.0007733 -2.352e-05 0)
(0.0007821 -3.102e-05 0)
(0.0007934 -3.864e-05 0)
(0.0008069 -4.642e-05 0)
(0.000823 -5.44e-05 0)
(0.0008415 -6.263e-05 0)
(0.0008626 -7.113e-05 0)
(0.0008864 -7.992e-05 0)
(0.0009129 -8.901e-05 0)
(0.0009423 -9.839e-05 0)
(0.0009745 -0.000108 0)
(0.00101 -0.0001179 0)
(0.001048 -0.000128 0)
(0.001089 -0.0001382 0)
(0.001134 -0.0001483 0)
(0.001181 -0.0001584 0)
(0.001231 -0.0001683 0)
(0.001285 -0.0001777 0)
(0.001341 -0.0001865 0)
(0.001399 -0.0001945 0)
(0.001459 -0.0002014 0)
(0.001522 -0.0002071 0)
(0.001586 -0.0002111 0)
(0.00165 -0.0002134 0)
(0.001715 -0.0002135 0)
(0.00178 -0.0002114 0)
(0.001843 -0.0002066 0)
(0.001904 -0.0001992 0)
(0.001963 -0.0001889 0)
(0.002018 -0.0001757 0)
(0.002069 -0.0001595 0)
(0.002115 -0.0001406 0)
(0.002154 -0.000119 0)
(0.002187 -9.508e-05 0)
(0.002212 -6.926e-05 0)
(0.002229 -4.204e-05 0)
(0.002237 -1.4e-05 0)
(0.002237 1.421e-05 0)
(0.002229 4.194e-05 0)
(0.002213 6.861e-05 0)
(0.002188 9.368e-05 0)
(0.002157 0.0001167 0)
(0.002119 0.0001375 0)
(0.002074 0.0001556 0)
(0.002025 0.0001711 0)
(0.001972 0.0001839 0)
(0.001915 0.0001941 0)
(0.001855 0.0002016 0)
(0.001793 0.0002066 0)
(0.00173 0.0002093 0)
(0.001666 0.0002098 0)
(0.001602 0.0002083 0)
(0.001539 0.0002052 0)
(0.001477 0.0002005 0)
(0.001416 0.0001946 0)
(0.001357 0.0001877 0)
(0.001301 0.0001799 0)
(0.001246 0.0001715 0)
(0.001195 0.0001627 0)
(0.001146 0.0001536 0)
(0.001099 0.0001444 0)
(0.001055 0.0001353 0)
(0.001015 0.0001262 0)
(0.0009763 0.0001174 0)
(0.0009407 0.0001088 0)
(0.0009076 0.0001006 0)
(0.0008771 9.269e-05 0)
(0.0008488 8.522e-05 0)
(0.0008228 7.817e-05 0)
(0.0007989 7.155e-05 0)
(0.000777 6.535e-05 0)
(0.0007569 5.957e-05 0)
(0.0007386 5.42e-05 0)
(0.0007219 4.923e-05 0)
(0.0007067 4.464e-05 0)
(0.0006929 4.042e-05 0)
(0.0006803 3.654e-05 0)
(0.000669 3.298e-05 0)
(0.0006587 2.973e-05 0)
(0.0006494 2.676e-05 0)
(0.0006411 2.405e-05 0)
(0.0006335 2.159e-05 0)
(0.0006267 1.936e-05 0)
(0.0006206 1.735e-05 0)
(0.0006151 1.552e-05 0)
(0.0006102 1.388e-05 0)
(0.0006058 1.241e-05 0)
(0.0006019 1.11e-05 0)
(0.0005983 9.929e-06 0)
(0.0005951 8.902e-06 0)
(0.0005923 8.007e-06 0)
(0.0005897 7.241e-06 0)
(0.0005874 6.598e-06 0)
(0.0005853 6.077e-06 0)
(0.0005834 5.677e-06 0)
(0.0005816 5.395e-06 0)
(0.00058 5.229e-06 0)
(0.0005785 5.171e-06 0)
(0.000577 5.203e-06 0)
(0.0005757 5.291e-06 0)
(0.0005744 5.367e-06 0)
(0.00121 0.0001278 0)
(0.001237 0.0003004 0)
(0.001267 0.0003949 0)
(0.001285 0.000431 0)
(0.001287 0.0004298 0)
(0.001275 0.0004074 0)
(0.001252 0.0003745 0)
(0.001221 0.0003377 0)
(0.001186 0.0003008 0)
(0.00115 0.0002656 0)
(0.001113 0.0002333 0)
(0.001078 0.0002039 0)
(0.001046 0.0001774 0)
(0.001015 0.0001538 0)
(0.0009882 0.0001325 0)
(0.000964 0.0001135 0)
(0.0009427 9.625e-05 0)
(0.0009244 8.063e-05 0)
(0.0009089 6.635e-05 0)
(0.0008962 5.318e-05 0)
(0.0008862 4.094e-05 0)
(0.0008788 2.945e-05 0)
(0.000874 1.854e-05 0)
(0.0008716 8.08e-06 0)
(0.0008717 -2.063e-06 0)
(0.0008742 -1.2e-05 0)
(0.0008792 -2.184e-05 0)
(0.0008866 -3.167e-05 0)
(0.0008964 -4.158e-05 0)
(0.0009088 -5.163e-05 0)
(0.0009236 -6.191e-05 0)
(0.0009412 -7.246e-05 0)
(0.0009614 -8.332e-05 0)
(0.0009843 -9.454e-05 0)
(0.00101 -0.0001061 0)
(0.001039 -0.0001181 0)
(0.001071 -0.0001305 0)
(0.001106 -0.0001431 0)
(0.001144 -0.0001561 0)
(0.001185 -0.0001693 0)
(0.00123 -0.0001827 0)
(0.001278 -0.000196 0)
(0.001329 -0.0002092 0)
(0.001383 -0.0002221 0)
(0.00144 -0.0002344 0)
(0.0015 -0.0002459 0)
(0.001563 -0.0002563 0)
(0.001628 -0.0002653 0)
(0.001696 -0.0002726 0)
(0.001764 -0.0002779 0)
(0.001834 -0.0002807 0)
(0.001903 -0.0002809 0)
(0.001973 -0.000278 0)
(0.002041 -0.0002717 0)
(0.002107 -0.0002619 0)
(0.002171 -0.0002483 0)
(0.00223 -0.000231 0)
(0.002285 -0.0002098 0)
(0.002334 -0.0001849 0)
(0.002377 -0.0001566 0)
(0.002412 -0.0001252 0)
(0.002439 -9.128e-05 0)
(0.002457 -5.55e-05 0)
(0.002467 -1.864e-05 0)
(0.002467 1.845e-05 0)
(0.002458 5.492e-05 0)
(0.00244 8.996e-05 0)
(0.002414 0.0001229 0)
(0.00238 0.0001532 0)
(0.002339 0.0001804 0)
(0.002291 0.0002043 0)
(0.002239 0.0002247 0)
(0.002181 0.0002416 0)
(0.00212 0.0002549 0)
(0.002055 0.0002649 0)
(0.001989 0.0002716 0)
(0.001921 0.0002753 0)
(0.001852 0.0002761 0)
(0.001784 0.0002744 0)
(0.001716 0.0002704 0)
(0.001649 0.0002644 0)
(0.001583 0.0002568 0)
(0.00152 0.0002477 0)
(0.001459 0.0002376 0)
(0.0014 0.0002267 0)
(0.001344 0.0002152 0)
(0.001291 0.0002034 0)
(0.001241 0.0001913 0)
(0.001194 0.0001793 0)
(0.001149 0.0001674 0)
(0.001108 0.0001558 0)
(0.001069 0.0001446 0)
(0.001033 0.0001337 0)
(0.0009999 0.0001234 0)
(0.0009691 0.0001135 0)
(0.0009408 0.0001042 0)
(0.0009147 9.548e-05 0)
(0.0008907 8.729e-05 0)
(0.0008688 7.964e-05 0)
(0.0008487 7.252e-05 0)
(0.0008304 6.593e-05 0)
(0.0008137 5.984e-05 0)
(0.0007985 5.423e-05 0)
(0.0007847 4.906e-05 0)
(0.0007722 4.433e-05 0)
(0.0007609 3.999e-05 0)
(0.0007506 3.603e-05 0)
(0.0007413 3.242e-05 0)
(0.000733 2.913e-05 0)
(0.0007254 2.615e-05 0)
(0.0007187 2.344e-05 0)
(0.0007126 2.1e-05 0)
(0.0007071 1.88e-05 0)
(0.0007022 1.682e-05 0)
(0.0006978 1.505e-05 0)
(0.0006938 1.347e-05 0)
(0.0006903 1.208e-05 0)
(0.0006871 1.086e-05 0)
(0.0006843 9.81e-06 0)
(0.0006817 8.918e-06 0)
(0.0006794 8.182e-06 0)
(0.0006772 7.597e-06 0)
(0.0006753 7.158e-06 0)
(0.0006736 6.859e-06 0)
(0.0006719 6.69e-06 0)
(0.0006704 6.631e-06 0)
(0.000669 6.647e-06 0)
(0.0006676 6.683e-06 0)
(0.001208 0.0001096 0)
(0.00123 0.0002691 0)
(0.001259 0.0003681 0)
(0.001282 0.0004168 0)
(0.001293 0.0004298 0)
(0.001293 0.0004197 0)
(0.001283 0.0003961 0)
(0.001264 0.0003654 0)
(0.00124 0.0003319 0)
(0.001213 0.0002982 0)
(0.001185 0.0002656 0)
(0.001156 0.000235 0)
(0.001129 0.0002067 0)
(0.001103 0.0001807 0)
(0.001078 0.0001569 0)
(0.001057 0.0001351 0)
(0.001037 0.0001152 0)
(0.00102 9.685e-05 0)
(0.001006 7.989e-05 0)
(0.0009944 6.409e-05 0)
(0.0009852 4.927e-05 0)
(0.0009784 3.524e-05 0)
(0.0009742 2.184e-05 0)
(0.0009724 8.921e-06 0)
(0.0009731 -3.663e-06 0)
(0.0009762 -1.604e-05 0)
(0.0009818 -2.833e-05 0)
(0.0009898 -4.063e-05 0)
(0.001 -5.305e-05 0)
(0.001014 -6.567e-05 0)
(0.001029 -7.858e-05 0)
(0.001048 -9.183e-05 0)
(0.001069 -0.0001055 0)
(0.001093 -0.0001196 0)
(0.001121 -0.0001341 0)
(0.001151 -0.0001491 0)
(0.001184 -0.0001646 0)
(0.001221 -0.0001805 0)
(0.001261 -0.0001968 0)
(0.001304 -0.0002133 0)
(0.001351 -0.00023 0)
(0.001401 -0.0002467 0)
(0.001454 -0.0002632 0)
(0.001511 -0.0002792 0)
(0.001571 -0.0002945 0)
(0.001634 -0.0003089 0)
(0.0017 -0.0003218 0)
(0.001768 -0.0003331 0)
(0.001838 -0.0003421 0)
(0.00191 -0.0003487 0)
(0.001982 -0.0003522 0)
(0.002055 -0.0003523 0)
(0.002128 -0.0003486 0)
(0.002199 -0.0003408 0)
(0.002269 -0.0003285 0)
(0.002335 -0.0003115 0)
(0.002398 -0.0002898 0)
(0.002455 -0.0002633 0)
(0.002507 -0.0002321 0)
(0.002552 -0.0001967 0)
(0.002589 -0.0001573 0)
(0.002617 -0.0001148 0)
(0.002637 -6.989e-05 0)
(0.002647 -2.36e-05 0)
(0.002647 2.298e-05 0)
(0.002637 6.875e-05 0)
(0.002619 0.0001127 0)
(0.002591 0.000154 0)
(0.002555 0.0001919 0)
(0.002512 0.0002259 0)
(0.002463 0.0002558 0)
(0.002407 0.0002814 0)
(0.002347 0.0003026 0)
(0.002283 0.0003194 0)
(0.002216 0.000332 0)
(0.002146 0.0003405 0)
(0.002075 0.0003452 0)
(0.002003 0.0003464 0)
(0.001932 0.0003444 0)
(0.001861 0.0003395 0)
(0.001791 0.0003322 0)
(0.001722 0.0003227 0)
(0.001656 0.0003115 0)
(0.001592 0.000299 0)
(0.00153 0.0002854 0)
(0.001472 0.0002711 0)
(0.001416 0.0002563 0)
(0.001363 0.0002413 0)
(0.001314 0.0002263 0)
(0.001267 0.0002114 0)
(0.001223 0.0001969 0)
(0.001183 0.0001828 0)
(0.001145 0.0001692 0)
(0.00111 0.0001562 0)
(0.001077 0.0001439 0)
(0.001048 0.0001322 0)
(0.00102 0.0001212 0)
(0.0009947 0.0001109 0)
(0.0009714 0.0001012 0)
(0.0009502 9.226e-05 0)
(0.0009307 8.394e-05 0)
(0.000913 7.625e-05 0)
(0.0008969 6.915e-05 0)
(0.0008822 6.262e-05 0)
(0.0008689 5.662e-05 0)
(0.0008568 5.112e-05 0)
(0.0008458 4.61e-05 0)
(0.0008359 4.151e-05 0)
(0.000827 3.734e-05 0)
(0.0008189 3.354e-05 0)
(0.0008116 3.01e-05 0)
(0.0008051 2.698e-05 0)
(0.0007992 2.417e-05 0)
(0.0007939 2.164e-05 0)
(0.0007892 1.937e-05 0)
(0.0007849 1.735e-05 0)
(0.0007811 1.556e-05 0)
(0.0007777 1.398e-05 0)
(0.0007746 1.262e-05 0)
(0.0007719 1.144e-05 0)
(0.0007694 1.046e-05 0)
(0.0007671 9.664e-06 0)
(0.0007651 9.04e-06 0)
(0.0007633 8.583e-06 0)
(0.0007616 8.279e-06 0)
(0.00076 8.11e-06 0)
(0.0007586 8.044e-06 0)
(0.0007572 8.037e-06 0)
(0.001206 9.547e-05 0)
(0.001225 0.0002419 0)
(0.001251 0.0003407 0)
(0.001276 0.0003969 0)
(0.001293 0.0004205 0)
(0.001301 0.0004209 0)
(0.001301 0.0004062 0)
(0.001292 0.0003822 0)
(0.001278 0.0003532 0)
(0.00126 0.0003221 0)
(0.001239 0.0002908 0)
(0.001218 0.0002602 0)
(0.001196 0.0002311 0)
(0.001174 0.0002037 0)
(0.001154 0.0001781 0)
(0.001136 0.0001543 0)
(0.001119 0.0001321 0)
(0.001104 0.0001115 0)
(0.001092 9.212e-05 0)
(0.001081 7.392e-05 0)
(0.001073 5.67e-05 0)
(0.001068 4.026e-05 0)
(0.001064 2.446e-05 0)
(0.001063 9.139e-06 0)
(0.001064 -5.859e-06 0)
(0.001068 -2.067e-05 0)
(0.001074 -3.541e-05 0)
(0.001083 -5.022e-05 0)
(0.001094 -6.519e-05 0)
(0.001108 -8.042e-05 0)
(0.001124 -9.601e-05 0)
(0.001143 -0.000112 0)
(0.001165 -0.0001285 0)
(0.00119 -0.0001455 0)
(0.001218 -0.0001631 0)
(0.001249 -0.0001813 0)
(0.001283 -0.0002 0)
(0.00132 -0.0002192 0)
(0.001361 -0.0002388 0)
(0.001405 -0.0002587 0)
(0.001453 -0.0002789 0)
(0.001504 -0.000299 0)
(0.001558 -0.0003188 0)
(0.001616 -0.0003381 0)
(0.001677 -0.0003566 0)
(0.001741 -0.0003739 0)
(0.001808 -0.0003895 0)
(0.001878 -0.000403 0)
(0.001949 -0.0004139 0)
(0.002022 -0.0004217 0)
(0.002096 -0.000426 0)
(0.002171 -0.0004261 0)
(0.002245 -0.0004216 0)
(0.002318 -0.0004122 0)
(0.002389 -0.0003974 0)
(0.002457 -0.0003769 0)
(0.002521 -0.0003507 0)
(0.00258 -0.0003188 0)
(0.002633 -0.0002812 0)
(0.002679 -0.0002384 0)
(0.002717 -0.0001908 0)
(0.002747 -0.0001393 0)
(0.002767 -8.49e-05 0)
(0.002777 -2.875e-05 0)
(0.002777 2.774e-05 0)
(0.002767 8.321e-05 0)
(0.002748 0.0001364 0)
(0.00272 0.0001863 0)
(0.002683 0.000232 0)
(0.002639 0.0002731 0)
(0.002588 0.0003092 0)
(0.002531 0.00034 0)
(0.00247 0.0003656 0)
(0.002404 0.000386 0)
(0.002336 0.0004012 0)
(0.002265 0.0004116 0)
(0.002193 0.0004174 0)
(0.002119 0.000419 0)
(0.002046 0.0004167 0)
(0.001974 0.0004109 0)
(0.001902 0.0004022 0)
(0.001833 0.0003909 0)
(0.001765 0.0003775 0)
(0.001699 0.0003624 0)
(0.001637 0.0003461 0)
(0.001577 0.0003289 0)
(0.00152 0.0003111 0)
(0.001466 0.000293 0)
(0.001415 0.0002749 0)
(0.001368 0.000257 0)
(0.001323 0.0002395 0)
(0.001282 0.0002225 0)
(0.001243 0.0002061 0)
(0.001207 0.0001904 0)
(0.001174 0.0001754 0)
(0.001143 0.0001613 0)
(0.001115 0.000148 0)
(0.001089 0.0001355 0)
(0.001065 0.0001238 0)
(0.001043 0.0001129 0)
(0.001023 0.0001028 0)
(0.001004 9.342e-05 0)
(0.0009878 8.479e-05 0)
(0.0009726 7.684e-05 0)
(0.0009588 6.953e-05 0)
(0.0009463 6.283e-05 0)
(0.0009349 5.67e-05 0)
(0.0009247 5.11e-05 0)
(0.0009154 4.599e-05 0)
(0.000907 4.135e-05 0)
(0.0008994 3.713e-05 0)
(0.0008926 3.331e-05 0)
(0.0008864 2.986e-05 0)
(0.0008809 2.675e-05 0)
(0.000876 2.396e-05 0)
(0.0008715 2.147e-05 0)
(0.0008675 1.925e-05 0)
(0.000864 1.729e-05 0)
(0.0008608 1.558e-05 0)
(0.0008579 1.411e-05 0)
(0.0008553 1.286e-05 0)
(0.000853 1.182e-05 0)
(0.0008509 1.1e-05 0)
(0.000849 1.036e-05 0)
(0.0008473 9.905e-06 0)
(0.0008457 9.613e-06 0)
(0.0008443 9.457e-06 0)
(0.0008429 9.404e-06 0)
(0.001205 8.421e-05 0)
(0.001221 0.0002181 0)
(0.001245 0.0003141 0)
(0.00127 0.0003744 0)
(0.00129 0.0004053 0)
(0.001304 0.0004141 0)
(0.00131 0.0004072 0)
(0.00131 0.0003897 0)
(0.001304 0.0003657 0)
(0.001294 0.0003381 0)
(0.001281 0.0003088 0)
(0.001266 0.0002792 0)
(0.001249 0.0002502 0)
(0.001233 0.0002223 0)
(0.001217 0.0001956 0)
(0.001202 0.0001704 0)
(0.001189 0.0001465 0)
(0.001176 0.0001239 0)
(0.001166 0.0001026 0)
(0.001157 8.23e-05 0)
(0.001151 6.292e-05 0)
(0.001146 4.429e-05 0)
(0.001144 2.624e-05 0)
(0.001144 8.644e-06 0)
(0.001146 -8.665e-06 0)
(0.00115 -2.582e-05 0)
(0.001157 -4.297e-05 0)
(0.001165 -6.022e-05 0)
(0.001177 -7.771e-05 0)
(0.001191 -9.552e-05 0)
(0.001207 -0.0001138 0)
(0.001227 -0.0001325 0)
(0.001248 -0.0001519 0)
(0.001273 -0.0001718 0)
(0.001301 -0.0001924 0)
(0.001332 -0.0002137 0)
(0.001366 -0.0002356 0)
(0.001403 -0.0002581 0)
(0.001444 -0.0002811 0)
(0.001488 -0.0003045 0)
(0.001535 -0.0003281 0)
(0.001586 -0.0003516 0)
(0.00164 -0.0003749 0)
(0.001698 -0.0003975 0)
(0.001759 -0.0004192 0)
(0.001822 -0.0004394 0)
(0.001889 -0.0004576 0)
(0.001958 -0.0004735 0)
(0.00203 -0.0004863 0)
(0.002103 -0.0004955 0)
(0.002177 -0.0005004 0)
(0.002251 -0.0005006 0)
(0.002325 -0.0004954 0)
(0.002398 -0.0004843 0)
(0.002469 -0.000467 0)
(0.002537 -0.0004431 0)
(0.002601 -0.0004125 0)
(0.00266 -0.0003751 0)
(0.002713 -0.0003311 0)
(0.002759 -0.0002808 0)
(0.002797 -0.0002249 0)
(0.002827 -0.0001643 0)
(0.002847 -0.0001002 0)
(0.002858 -3.393e-05 0)
(0.002858 3.271e-05 0)
(0.002848 9.806e-05 0)
(0.002828 0.0001606 0)
(0.002799 0.0002192 0)
(0.002762 0.0002728 0)
(0.002718 0.0003209 0)
(0.002667 0.0003631 0)
(0.002611 0.0003992 0)
(0.00255 0.0004291 0)
(0.002485 0.000453 0)
(0.002416 0.000471 0)
(0.002346 0.0004833 0)
(0.002274 0.0004902 0)
(0.002201 0.0004921 0)
(0.002128 0.0004895 0)
(0.002056 0.0004829 0)
(0.001984 0.0004728 0)
(0.001915 0.0004596 0)
(0.001847 0.000444 0)
(0.001782 0.0004264 0)
(0.00172 0.0004073 0)