/*--------------------------------*- C++ -*----------------------------------*\
  =========                 |
  \\      /  F ield         | OpenFOAM: The Open Source CFD Toolbox
   \\    /   O peration     | Website:  https://openfoam.org
    \\  /    A nd           | Version:  7
     \\/     M anipulation  |
\*---------------------------------------------------------------------------*/
FoamFile
{
    version     2.0;
    format      ascii;
    class       volScalarField;
    location    "419.999473411148244";
    object      Y.K;
}
// * * * * * * * * * * * * * * * * * * * * * * * * * * * * * * * * * * * * * //

dimensions      [0 0 0 0 0 0 0];

internalField   nonuniform List<scalar> 
4096
(
7.867e-69
6.978e-67
-2.271e-67
8.01e-67
-5.351e-68
-1.57e-67
2.292e-68
4.465e-68
-2.021e-67
3.577e-66
-4.975e-65
8.343e-64
-1.169e-62
1.669e-61
-2.145e-60
2.637e-59
-3.029e-58
3.34e-57
-3.482e-56
3.507e-55
-3.324e-54
3.044e-53
-2.692e-52
2.251e-51
-1.774e-50
1.285e-49
-9.321e-49
6.872e-48
-5.092e-47
3.85e-46
-2.995e-45
2.415e-44
-1.969e-43
1.647e-42
-1.37e-41
1.139e-40
-9.097e-40
6.846e-39
-4.938e-38
3.442e-37
-2.233e-36
1.361e-35
-7.809e-35
4.223e-34
-2.159e-33
1.03e-32
-4.691e-32
2.048e-31
-8.068e-31
3.348e-30
-8.556e-30
3.801e-29
7.145e-29
6.953e-28
7.786e-27
3.583e-26
4.218e-25
1.751e-24
1.71e-23
6.051e-23
2.136e-22
1.548e-21
7.492e-21
9.712e-20
1.325e-18
4.126e-18
9.567e-18
1.973e-17
3.817e-17
7.068e-17
1.264e-16
2.194e-16
3.706e-16
6.104e-16
9.815e-16
1.543e-15
2.375e-15
3.58e-15
5.295e-15
7.687e-15
1.097e-14
1.539e-14
2.126e-14
2.893e-14
3.883e-14
5.145e-14
6.733e-14
8.71e-14
1.115e-13
1.412e-13
1.773e-13
2.206e-13
2.722e-13
3.334e-13
4.054e-13
4.898e-13
5.882e-13
7.022e-13
8.339e-13
9.855e-13
1.159e-12
1.358e-12
1.583e-12
1.84e-12
2.131e-12
2.459e-12
2.829e-12
3.245e-12
3.712e-12
4.235e-12
4.82e-12
5.472e-12
6.199e-12
7.008e-12
7.906e-12
8.902e-12
1.001e-11
1.122e-11
1.257e-11
1.406e-11
1.569e-11
1.748e-11
1.945e-11
2.158e-11
2.387e-11
2.626e-11
2.858e-11
3.038e-11
-2.329e-66
1.225e-65
-1.537e-65
1.821e-66
8.831e-66
-5.892e-66
-5.134e-67
2.322e-66
-1.28e-65
2.029e-64
-2.908e-63
4.555e-62
-6.694e-61
9.204e-60
-1.187e-58
1.442e-57
-1.656e-56
1.807e-55
-1.881e-54
1.873e-53
-1.785e-52
1.63e-51
-1.421e-50
1.178e-49
-9.286e-49
6.729e-48
-4.887e-47
3.563e-46
-2.625e-45
1.972e-44
-1.522e-43
1.212e-42
-9.915e-42
8.232e-41
-6.826e-40
5.565e-39
-4.398e-38
3.334e-37
-2.406e-36
1.646e-35
-1.061e-34
6.426e-34
-3.666e-33
1.97e-32
-9.978e-32
4.793e-31
-2.171e-30
9.461e-30
-3.607e-29
1.529e-28
-3.487e-28
1.766e-27
4.702e-27
4.147e-26
3.769e-25
2.181e-24
2.022e-23
9.473e-23
7.692e-22
2.789e-21
9.445e-21
5.903e-20
2.287e-19
1.419e-18
4.258e-18
9.876e-18
2.054e-17
4.005e-17
7.453e-17
1.336e-16
2.316e-16
3.898e-16
6.384e-16
1.019e-15
1.589e-15
2.422e-15
3.615e-15
5.291e-15
7.603e-15
1.074e-14
1.493e-14
2.043e-14
2.758e-14
3.675e-14
4.836e-14
6.291e-14
8.097e-14
1.032e-13
1.302e-13
1.63e-13
2.023e-13
2.491e-13
3.047e-13
3.702e-13
4.469e-13
5.365e-13
6.405e-13
7.607e-13
8.993e-13
1.058e-12
1.24e-12
1.448e-12
1.684e-12
1.951e-12
2.254e-12
2.596e-12
2.981e-12
3.413e-12
3.898e-12
4.441e-12
5.048e-12
5.725e-12
6.479e-12
7.317e-12
8.248e-12
9.279e-12
1.042e-11
1.168e-11
1.308e-11
1.461e-11
1.63e-11
1.816e-11
2.019e-11
2.241e-11
2.482e-11
2.739e-11
3.005e-11
3.252e-11
5.24e-65
-3.639e-64
8.945e-64
-1.139e-63
7.158e-64
-1.084e-64
-5.504e-65
1.189e-64
-8.108e-64
1.118e-62
-1.551e-61
2.428e-60
-3.558e-59
4.87e-58
-6.241e-57
7.522e-56
-8.569e-55
9.274e-54
-9.575e-53
9.459e-52
-8.953e-51
8.115e-50
-7.029e-49
5.796e-48
-4.534e-47
3.284e-46
-2.379e-45
1.726e-44
-1.262e-43
9.378e-43
-7.141e-42
5.601e-41
-4.513e-40
3.699e-39
-3.036e-38
2.456e-37
-1.93e-36
1.457e-35
-1.047e-34
7.148e-34
-4.589e-33
2.768e-32
-1.572e-31
8.394e-31
-4.221e-30
2.014e-29
-9.053e-29
3.941e-28
-1.458e-27
6.504e-27
-1.155e-26
7.666e-26
3.163e-25
2.504e-24
2.062e-23
1.272e-22
9.901e-22
4.878e-21
3.348e-20
1.2e-19
3.794e-19
1.859e-18
5.542e-18
1.312e-17
2.813e-17
5.664e-17
1.085e-16
1.993e-16
3.522e-16
6.007e-16
9.91e-16
1.585e-15
2.463e-15
3.727e-15
5.499e-15
7.927e-15
1.119e-14
1.548e-14
2.103e-14
2.811e-14
3.7e-14
4.804e-14
6.16e-14
7.811e-14
9.804e-14
1.219e-13
1.504e-13
1.842e-13
2.24e-13
2.708e-13
3.255e-13
3.892e-13
4.632e-13
5.488e-13
6.477e-13
7.614e-13
8.919e-13
1.041e-12
1.212e-12
1.406e-12
1.627e-12
1.877e-12
2.16e-12
2.479e-12
2.839e-12
3.243e-12
3.697e-12
4.206e-12
4.775e-12
5.411e-12
6.119e-12
6.908e-12
7.785e-12
8.757e-12
9.836e-12
1.103e-11
1.235e-11
1.38e-11
1.541e-11
1.717e-11
1.911e-11
2.124e-11
2.357e-11
2.611e-11
2.889e-11
3.19e-11
3.514e-11
3.871e-11
-8.689e-64
6.892e-63
-2.376e-62
4.87e-62
-6.154e-62
4.595e-62
-1.588e-62
1.07e-62
-5.105e-62
5.883e-61
-7.828e-60
1.221e-58
-1.778e-57
2.41e-56
-3.056e-55
3.638e-54
-4.094e-53
4.376e-52
-4.466e-51
4.364e-50
-4.09e-49
3.674e-48
-3.157e-47
2.586e-46
-2.007e-45
1.453e-44
-1.049e-43
7.56e-43
-5.465e-42
3.994e-41
-2.977e-40
2.279e-39
-1.794e-38
1.441e-37
-1.165e-36
9.322e-36
-7.277e-35
5.471e-34
-3.929e-33
2.682e-32
-1.72e-31
1.035e-30
-5.854e-30
3.108e-29
-1.55e-28
7.352e-28
-3.275e-27
1.43e-26
-4.958e-26
2.45e-25
-1.779e-25
2.799e-24
2.077e-23
1.507e-22
1.145e-21
7.037e-21
4.639e-20
2.21e-19
1.152e-18
3.822e-18
1.011e-17
2.422e-17
5.426e-17
1.149e-16
2.313e-16
4.439e-16
8.143e-16
1.432e-15
2.418e-15
3.933e-15
6.176e-15
9.382e-15
1.382e-14
1.98e-14
2.761e-14
3.76e-14
5.009e-14
6.54e-14
8.385e-14
1.058e-13
1.315e-13
1.614e-13
1.958e-13
2.353e-13
2.804e-13
3.315e-13
3.896e-13
4.554e-13
5.298e-13
6.14e-13
7.092e-13
8.168e-13
9.384e-13
1.076e-12
1.231e-12
1.407e-12
1.604e-12
1.828e-12
2.079e-12
2.362e-12
2.681e-12
3.039e-12
3.44e-12
3.89e-12
4.393e-12
4.956e-12
5.585e-12
6.286e-12
7.066e-12
7.934e-12
8.897e-12
9.966e-12
1.115e-11
1.246e-11
1.391e-11
1.55e-11
1.726e-11
1.92e-11
2.132e-11
2.365e-11
2.621e-11
2.901e-11
3.206e-11
3.539e-11
3.901e-11
4.295e-11
4.726e-11
5.257e-11
1.257e-62
-1.084e-61
4.634e-61
-1.274e-60
2.322e-60
-2.753e-60
1.78e-60
5.288e-61
-3.261e-60
2.936e-59
-3.761e-58
5.804e-57
-8.332e-56
1.111e-54
-1.383e-53
1.616e-52
-1.784e-51
1.873e-50
-1.879e-49
1.809e-48
-1.672e-47
1.484e-46
-1.263e-45
1.026e-44
-7.904e-44
5.72e-43
-4.115e-42
2.941e-41
-2.095e-40
1.497e-39
-1.083e-38
7.995e-38
-6.061e-37
4.708e-36
-3.71e-35
2.921e-34
-2.259e-33
1.693e-32
-1.218e-31
8.365e-31
-5.387e-30
3.237e-29
-1.831e-28
9.665e-28
-4.771e-27
2.253e-26
-9.908e-26
4.363e-25
-1.267e-24
7.84e-24
6.653e-24
1.243e-22
1.156e-21
8.515e-21
6.04e-20
3.238e-19
1.742e-18
6.243e-18
1.806e-17
4.724e-17
1.152e-16
2.641e-16
5.721e-16
1.173e-15
2.284e-15
4.224e-15
7.445e-15
1.253e-14
2.021e-14
3.13e-14
4.667e-14
6.72e-14
9.366e-14
1.267e-13
1.668e-13
2.142e-13
2.689e-13
3.308e-13
3.998e-13
4.756e-13
5.58e-13
6.471e-13
7.429e-13
8.458e-13
9.565e-13
1.076e-12
1.204e-12
1.344e-12
1.496e-12
1.662e-12
1.844e-12
2.045e-12
2.267e-12
2.514e-12
2.787e-12
3.091e-12
3.429e-12
3.807e-12
4.227e-12
4.696e-12
5.22e-12
5.803e-12
6.452e-12
7.176e-12
7.981e-12
8.875e-12
9.869e-12
1.097e-11
1.219e-11
1.355e-11
1.504e-11
1.67e-11
1.852e-11
2.053e-11
2.274e-11
2.518e-11
2.785e-11
3.077e-11
3.398e-11
3.749e-11
4.132e-11
4.549e-11
5.003e-11
5.496e-11
6.031e-11
6.61e-11
7.243e-11
8.081e-11
-1.688e-61
1.54e-60
-7.652e-60
2.599e-59
-6.162e-59
1.003e-58
-9.667e-59
1.304e-59
3.513e-59
1.186e-57
-1.709e-56
2.599e-55
-3.641e-54
4.725e-53
-5.713e-52
6.485e-51
-6.964e-50
7.127e-49
-6.988e-48
6.588e-47
-5.982e-46
5.232e-45
-4.398e-44
3.541e-43
-2.709e-42
1.963e-41
-1.409e-40
9.995e-40
-7.014e-39
4.886e-38
-3.401e-37
2.388e-36
-1.709e-35
1.255e-34
-9.429e-34
7.182e-33
-5.458e-32
4.074e-31
-2.957e-30
2.069e-29
-1.355e-28
8.16e-28
-4.643e-27
2.43e-26
-1.179e-25
5.6e-25
-2.411e-24
1.08e-23
-1.326e-23
2.003e-22
9.7e-22
6.673e-21
6.552e-20
4.052e-19
2.361e-18
9.338e-18
3.012e-17
8.8e-17
2.389e-16
6.07e-16
1.447e-15
3.244e-15
6.845e-15
1.362e-14
2.561e-14
4.559e-14
7.703e-14
1.239e-13
1.903e-13
2.799e-13
3.955e-13
5.384e-13
7.085e-13
9.037e-13
1.121e-12
1.355e-12
1.6e-12
1.853e-12
2.108e-12
2.362e-12
2.614e-12
2.862e-12
3.108e-12
3.352e-12
3.598e-12
3.848e-12
4.106e-12
4.376e-12
4.661e-12
4.967e-12
5.299e-12
5.66e-12
6.057e-12
6.496e-12
6.981e-12
7.52e-12
8.119e-12
8.784e-12
9.525e-12
1.035e-11
1.127e-11
1.229e-11
1.342e-11
1.468e-11
1.607e-11
1.762e-11
1.933e-11
2.123e-11
2.332e-11
2.563e-11
2.817e-11
3.097e-11
3.406e-11
3.744e-11
4.116e-11
4.523e-11
4.968e-11
5.455e-11
5.986e-11
6.565e-11
7.195e-11
7.879e-11
8.621e-11
9.424e-11
1.029e-10
1.123e-10
1.224e-10
1.365e-10
2.17e-60
-2.054e-59
1.141e-58
-4.565e-58
1.333e-57
-2.803e-57
3.795e-57
-7.131e-60
-1.264e-56
8.014e-56
-7.706e-55
1.088e-53
-1.462e-52
1.82e-51
-2.109e-50
2.298e-49
-2.375e-48
2.347e-47
-2.231e-46
2.048e-45
-1.819e-44
1.563e-43
-1.296e-42
1.034e-41
-7.877e-41
5.736e-40
-4.124e-39
2.917e-38
-2.026e-37
1.381e-36
-9.263e-36
6.144e-35
-4.068e-34
2.723e-33
-1.864e-32
1.312e-31
-9.463e-31
6.926e-30
-5.114e-29
3.737e-28
-2.612e-27
1.593e-26
-9.303e-26
4.733e-25
-2.194e-24
1.107e-23
-4.6e-23
2.079e-22
2.961e-22
6.989e-21
5.223e-20
3.921e-19
2.597e-18
1.157e-17
4.249e-17
1.415e-16
4.37e-16
1.257e-15
3.372e-15
8.448e-15
1.978e-14
4.334e-14
8.898e-14
1.714e-13
3.106e-13
5.306e-13
8.571e-13
1.314e-12
1.917e-12
2.672e-12
3.57e-12
4.588e-12
5.692e-12
6.834e-12
7.972e-12
9.06e-12
1.006e-11
1.095e-11
1.173e-11
1.237e-11
1.291e-11
1.336e-11
1.372e-11
1.403e-11
1.43e-11
1.455e-11
1.481e-11
1.508e-11
1.538e-11
1.573e-11
1.614e-11
1.662e-11
1.718e-11
1.784e-11
1.86e-11
1.947e-11
2.046e-11
2.159e-11
2.288e-11
2.432e-11
2.594e-11
2.776e-11
2.98e-11
3.206e-11
3.458e-11
3.737e-11
4.046e-11
4.389e-11
4.766e-11
5.182e-11
5.64e-11
6.143e-11
6.696e-11
7.301e-11
7.964e-11
8.688e-11
9.478e-11
1.034e-10
1.128e-10
1.229e-10
1.34e-10
1.459e-10
1.589e-10
1.728e-10
1.878e-10
2.04e-10
2.212e-10
2.461e-10
-2.695e-59
2.616e-58
-1.582e-57
7.231e-57
-2.516e-56
6.596e-56
-1.205e-55
1.002e-55
1.211e-55
1.064e-54
-2.767e-53
4.117e-52
-5.262e-51
6.164e-50
-6.729e-49
6.928e-48
-6.803e-47
6.426e-46
-5.876e-45
5.22e-44
-4.513e-43
3.798e-42
-3.106e-41
2.46e-40
-1.874e-39
1.379e-38
-1.001e-37
7.132e-37
-4.967e-36
3.371e-35
-2.221e-34
1.418e-33
-8.777e-33
5.288e-32
-3.132e-31
1.856e-30
-1.125e-29
7.106e-29
-4.638e-28
3.322e-27
-2.184e-26
1.313e-25
-7.936e-25
4.553e-24
-1.84e-23
1.571e-22
-6.125e-22
3.07e-21
2.874e-20
2.766e-19
2.14e-18
1.095e-17
4.659e-17
1.803e-16
6.452e-16
2.142e-15
6.601e-15
1.888e-14
5.018e-14
1.239e-13
2.843e-13
6.075e-13
1.21e-12
2.251e-12
3.918e-12
6.405e-12
9.866e-12
1.437e-11
1.988e-11
2.62e-11
3.305e-11
4.002e-11
4.674e-11
5.273e-11
5.785e-11
6.172e-11
6.435e-11
6.597e-11
6.639e-11
6.602e-11
6.51e-11
6.37e-11
6.2e-11
6.015e-11
5.829e-11
5.651e-11
5.489e-11
5.348e-11
5.231e-11
5.142e-11
5.081e-11
5.046e-11
5.053e-11
5.082e-11
5.143e-11
5.235e-11
5.363e-11
5.525e-11
5.722e-11
5.957e-11
6.231e-11
6.547e-11
6.907e-11
7.315e-11
7.773e-11
8.286e-11
8.857e-11
9.491e-11
1.019e-10
1.097e-10
1.182e-10
1.276e-10
1.378e-10
1.491e-10
1.614e-10
1.748e-10
1.894e-10
2.053e-10
2.225e-10
2.412e-10
2.614e-10
2.832e-10
3.068e-10
3.321e-10
3.592e-10
3.884e-10
4.193e-10
4.648e-10
3.228e-58
-3.186e-57
2.061e-56
-1.053e-55
4.265e-55
-1.36e-54
3.234e-54
-3.473e-54
-1.159e-53
1.169e-52
-1.216e-51
1.417e-50
-1.627e-49
1.745e-48
-1.753e-47
1.674e-46
-1.54e-45
1.375e-44
-1.199e-43
1.025e-42
-8.596e-42
7.073e-41
-5.704e-40
4.495e-39
-3.445e-38
2.587e-37
-1.919e-36
1.398e-35
-9.964e-35
6.918e-34
-4.648e-33
3.008e-32
-1.862e-31
1.095e-30
-6.073e-30
3.14e-29
-1.496e-28
6.444e-28
-2.558e-27
1.263e-26
-5.408e-26
4.799e-26
6.577e-25
-2.331e-24
1.341e-22
6.699e-22
-1.539e-22
1.169e-19
1.209e-18
7.346e-18
3.697e-17
1.689e-16
7.12e-16
2.775e-15
1e-14
3.332e-14
1.025e-13
2.913e-13
7.649e-13
1.856e-12
4.166e-12
8.656e-12
1.668e-11
2.985e-11
4.977e-11
7.763e-11
1.137e-10
1.57e-10
2.054e-10
2.554e-10
3.036e-10
3.46e-10
3.799e-10
4.019e-10
4.153e-10
4.137e-10
4.063e-10
3.923e-10
3.731e-10
3.506e-10
3.266e-10
3.025e-10
2.793e-10
2.576e-10
2.378e-10
2.201e-10
2.045e-10
1.91e-10
1.796e-10
1.7e-10
1.621e-10
1.557e-10
1.509e-10
1.473e-10
1.45e-10
1.437e-10
1.439e-10
1.448e-10
1.468e-10
1.497e-10
1.537e-10
1.587e-10
1.647e-10
1.718e-10
1.8e-10
1.894e-10
1.999e-10
2.117e-10
2.249e-10
2.396e-10
2.557e-10
2.736e-10
2.931e-10
3.145e-10
3.379e-10
3.634e-10
3.912e-10
4.213e-10
4.54e-10
4.893e-10
5.275e-10
5.685e-10
6.127e-10
6.602e-10
7.109e-10
7.653e-10
8.223e-10
9.079e-10
-3.688e-57
3.673e-56
-2.509e-55
1.41e-54
-6.544e-54
2.503e-53
-7.695e-53
1.742e-52
-3.73e-52
1.769e-51
-2.888e-50
3.735e-49
-3.95e-48
3.755e-47
-3.37e-46
2.924e-45
-2.483e-44
2.076e-43
-1.715e-42
1.402e-41
-1.136e-40
9.114e-40
-7.242e-39
5.685e-38
-4.416e-37
3.426e-36
-2.643e-35
2.006e-34
-1.499e-33
1.095e-32
-7.78e-32
5.357e-31
-3.542e-30
2.25e-29
-1.366e-28
7.86e-28
-4.245e-27
2.104e-26
-9.766e-26
4.036e-25
-8.726e-25
-1.139e-24
3.63e-23
-3.005e-22
4.307e-21
-8.949e-22
2.707e-19
2.994e-18
1.974e-17
1.092e-16
5.497e-16
2.55e-15
1.091e-14
4.3e-14
1.56e-13
5.202e-13
1.595e-12
4.492e-12
1.162e-11
2.765e-11
6.049e-11
1.219e-10
2.264e-10
3.885e-10
6.183e-10
9.171e-10
1.273e-09
1.661e-09
2.052e-09
2.403e-09
2.691e-09
2.877e-09
2.964e-09
2.933e-09
2.841e-09
2.685e-09
2.485e-09
2.261e-09
2.029e-09
1.803e-09
1.591e-09
1.399e-09
1.228e-09
1.08e-09
9.521e-10
8.436e-10
7.521e-10
6.755e-10
6.118e-10
5.59e-10
5.157e-10
4.803e-10
4.518e-10
4.291e-10
4.115e-10
3.983e-10
3.891e-10
3.835e-10
3.809e-10
3.82e-10
3.852e-10
3.912e-10
3.998e-10
4.111e-10
4.249e-10
4.414e-10
4.606e-10
4.825e-10
5.073e-10
5.351e-10
5.66e-10
6.003e-10
6.38e-10
6.795e-10
7.248e-10
7.742e-10
8.28e-10
8.863e-10
9.495e-10
1.018e-09
1.091e-09
1.17e-09
1.255e-09
1.346e-09
1.443e-09
1.547e-09
1.655e-09
1.819e-09
3.918e-56
-3.914e-55
2.793e-54
-1.705e-53
8.932e-53
-4.012e-52
1.504e-51
-4.232e-51
-2.02e-51
9.225e-50
-9.836e-49
8.303e-48
-6.483e-47
4.978e-46
-3.854e-45
3.009e-44
-2.36e-43
1.85e-42
-1.445e-41
1.122e-40
-8.681e-40
6.697e-39
-5.164e-38
3.989e-37
-3.08e-36
2.389e-35
-1.845e-34
1.417e-33
-1.077e-32
8.052e-32
-5.932e-31
4.273e-30
-3.018e-29
2.078e-28
-1.391e-27
9.026e-27
-5.663e-26
3.427e-25
-1.994e-24
1.116e-23
-5.964e-23
3.049e-22
-1.448e-21
8.341e-21
2.718e-20
5.896e-19
6.489e-18
4.622e-17
2.815e-16
1.568e-15
8.045e-15
3.799e-14
1.648e-13
6.553e-13
2.387e-12
7.952e-12
2.422e-11
6.742e-11
1.714e-10
3.984e-10
8.468e-10
1.648e-09
2.94e-09
4.82e-09
7.294e-09
1.025e-08
1.344e-08
1.655e-08
1.928e-08
2.119e-08
2.237e-08
2.221e-08
2.15e-08
2.017e-08
1.84e-08
1.639e-08
1.431e-08
1.23e-08
1.045e-08
8.809e-09
7.389e-09
6.187e-09
5.185e-09
4.359e-09
3.685e-09
3.136e-09
2.691e-09
2.332e-09
2.041e-09
1.806e-09
1.616e-09
1.463e-09
1.34e-09
1.241e-09
1.162e-09
1.101e-09
1.053e-09
1.018e-09
9.927e-10
9.774e-10
9.697e-10
9.717e-10
9.792e-10
9.934e-10
1.014e-09
1.041e-09
1.075e-09
1.114e-09
1.16e-09
1.213e-09
1.272e-09
1.338e-09
1.411e-09
1.492e-09
1.581e-09
1.678e-09
1.783e-09
1.898e-09
2.022e-09
2.155e-09
2.3e-09
2.454e-09
2.62e-09
2.797e-09
2.986e-09
3.188e-09
3.396e-09
3.717e-09
-3.731e-55
3.708e-54
-2.738e-53
1.798e-52
-1.056e-51
5.603e-51
-2.718e-50
1.217e-49
-5.096e-49
2.038e-48
-8.223e-48
4.029e-47
-2.399e-46
1.875e-45
-1.663e-44
1.455e-43
-1.218e-42
9.702e-42
-7.355e-41
5.318e-40
-3.674e-39
2.425e-38
-1.529e-37
9.234e-37
-5.258e-36
3.369e-35
-2.066e-34
1.404e-33
-9.491e-33
6.705e-32
-4.892e-31
3.65e-30
-2.729e-29
2.024e-28
-1.473e-27
1.044e-26
-7.164e-26
4.753e-25
-3.007e-24
1.89e-23
-1.075e-22
6.407e-22
-2.436e-21
1.034e-19
1.491e-18
1.266e-17
9.212e-17
6.163e-16
3.81e-15
2.172e-14
1.137e-13
5.457e-13
2.394e-12
9.582e-12
3.494e-11
1.159e-10
3.497e-10
9.586e-10
2.386e-09
5.397e-09
1.11e-08
2.077e-08
3.544e-08
5.526e-08
7.918e-08
1.051e-07
1.297e-07
1.51e-07
1.652e-07
1.697e-07
1.663e-07
1.574e-07
1.437e-07
1.271e-07
1.094e-07
9.204e-08
7.609e-08
6.204e-08
5.01e-08
4.021e-08
3.219e-08
2.578e-08
2.07e-08
1.672e-08
1.36e-08
1.116e-08
9.26e-09
7.768e-09
6.596e-09
5.672e-09
4.941e-09
4.361e-09
3.899e-09
3.532e-09
3.239e-09
3.007e-09
2.824e-09
2.683e-09
2.575e-09
2.496e-09
2.442e-09
2.409e-09
2.4e-09
2.407e-09
2.43e-09
2.468e-09
2.522e-09
2.591e-09
2.674e-09
2.772e-09
2.884e-09
3.011e-09
3.154e-09
3.312e-09
3.487e-09
3.678e-09
3.887e-09
4.113e-09
4.359e-09
4.624e-09
4.909e-09
5.215e-09
5.543e-09
5.893e-09
6.265e-09
6.662e-09
7.069e-09
7.701e-09
2.913e-54
-2.881e-53
2.177e-52
-1.502e-51
9.486e-51
-5.531e-50
2.999e-49
-1.52e-48
7.173e-48
-3.076e-47
1.107e-46
-3.49e-47
-2.354e-45
3.188e-44
-3.273e-43
2.896e-42
-2.35e-41
1.798e-40
-1.311e-39
9.168e-39
-6.154e-38
3.956e-37
-2.42e-36
1.391e-35
-7.098e-35
4.573e-34
-1.829e-33
7.612e-33
-1.36e-32
-1.51e-31
2.55e-30
-2.645e-29
2.309e-28
-1.827e-27
1.35e-26
-9.436e-26
6.288e-25
-3.996e-24
2.472e-23
-1.357e-22
8.415e-22
-3.357e-21
1.265e-19
1.987e-18
1.853e-17
1.499e-16
1.117e-15
7.698e-15
4.886e-14
2.847e-13
1.518e-12
7.378e-12
3.262e-11
1.309e-10
4.762e-10
1.567e-09
4.662e-09
1.252e-08
3.036e-08
6.649e-08
1.316e-07
2.357e-07
3.828e-07
5.652e-07
7.637e-07
9.537e-07
1.109e-06
1.23e-06
1.229e-06
1.193e-06
1.11e-06
9.918e-07
8.553e-07
7.156e-07
5.838e-07
4.666e-07
3.67e-07
2.853e-07
2.201e-07
1.691e-07
1.298e-07
9.995e-08
7.732e-08
6.026e-08
4.741e-08
3.77e-08
3.035e-08
2.475e-08
2.047e-08
1.717e-08
1.461e-08
1.262e-08
1.105e-08
9.819e-09
8.843e-09
8.07e-09
7.459e-09
6.978e-09
6.603e-09
6.316e-09
6.103e-09
5.952e-09
5.858e-09
5.806e-09
5.813e-09
5.851e-09
5.925e-09
6.035e-09
6.179e-09
6.356e-09
6.566e-09
6.81e-09
7.086e-09
7.395e-09
7.739e-09
8.118e-09
8.533e-09
8.984e-09
9.474e-09
1e-08
1.057e-08
1.118e-08
1.184e-08
1.253e-08
1.327e-08
1.406e-08
1.486e-08
1.612e-08
-1.898e-53
1.854e-52
-1.423e-51
1.024e-50
-6.907e-50
4.403e-49
-2.68e-48
1.583e-47
-9.269e-47
5.522e-46
-3.454e-45
2.282e-44
-1.491e-43
1.073e-42
-7.801e-42
5.66e-41
-4.061e-40
2.868e-39
-1.989e-38
1.354e-37
-9.05e-37
5.949e-36
-3.854e-35
2.469e-34
-1.569e-33
9.999e-33
-6.564e-32
4.213e-31
-2.667e-30
1.696e-29
-1.073e-28
6.73e-28
-4.177e-27
2.557e-26
-1.54e-25
9.106e-25
-5.265e-24
2.984e-23
-1.599e-22
9.94e-22
-3.625e-21
1.253e-19
2.163e-18
2.217e-17
1.988e-16
1.649e-15
1.265e-14
8.953e-14
5.814e-13
3.451e-12
1.865e-11
9.147e-11
4.058e-10
1.625e-09
5.862e-09
1.902e-08
5.544e-08
1.449e-07
3.399e-07
7.158e-07
1.355e-06
2.31e-06
3.552e-06
4.947e-06
6.28e-06
7.377e-06
8.214e-06
8.189e-06
7.889e-06
7.26e-06
6.392e-06
5.414e-06
4.435e-06
3.533e-06
2.749e-06
2.101e-06
1.582e-06
1.18e-06
8.754e-07
6.479e-07
4.801e-07
3.573e-07
2.677e-07
2.024e-07
1.548e-07
1.199e-07
9.41e-08
7.496e-08
6.063e-08
4.981e-08
4.157e-08
3.524e-08
3.034e-08
2.652e-08
2.352e-08
2.116e-08
1.93e-08
1.782e-08
1.666e-08
1.576e-08
1.507e-08
1.455e-08
1.418e-08
1.394e-08
1.379e-08
1.38e-08
1.387e-08
1.402e-08
1.425e-08
1.456e-08
1.495e-08
1.541e-08
1.594e-08
1.654e-08
1.722e-08
1.797e-08
1.88e-08
1.97e-08
2.068e-08
2.174e-08
2.288e-08
2.41e-08
2.541e-08
2.68e-08
2.828e-08
2.986e-08
3.145e-08
3.397e-08
8.785e-53
-8.576e-52
6.659e-51
-4.93e-50
3.462e-49
-2.29e-48
1.412e-47
-7.96e-47
3.939e-46
-1.546e-45
3.678e-46
4.469e-44
-6.043e-43
5.961e-42
-5.082e-41
3.974e-40
-2.933e-39
2.071e-38
-1.41e-37
9.283e-37
-5.917e-36
3.642e-35
-2.15e-34
1.206e-33
-6.446e-33
3.182e-32
-1.822e-31
7.928e-31
-1.743e-30
-3.312e-30
9.945e-29
-1.069e-27
9.077e-27
-6.858e-26
4.803e-25
-3.174e-24
2.003e-23
-1.197e-22
7.35e-22
-2.245e-21
9.825e-20
1.884e-18
2.128e-17
2.114e-16
1.946e-15
1.661e-14
1.309e-13
9.48e-13
6.272e-12
3.775e-11
2.057e-10
1.012e-09
4.474e-09
1.774e-08
6.297e-08
1.996e-07
5.644e-07
1.422e-06
3.194e-06
6.411e-06
1.152e-05
1.856e-05
2.691e-05
3.526e-05
4.193e-05
4.755e-05
4.751e-05
4.58e-05
4.204e-05
3.681e-05
3.09e-05
2.502e-05
1.964e-05
1.503e-05
1.125e-05
8.289e-06
6.029e-06
4.349e-06
3.124e-06
2.243e-06
1.615e-06
1.169e-06
8.538e-07
6.302e-07
4.709e-07
3.569e-07
2.746e-07
2.146e-07
1.705e-07
1.378e-07
1.132e-07
9.458e-08
8.031e-08
6.929e-08
6.071e-08
5.399e-08
4.869e-08
4.452e-08
4.122e-08
3.862e-08
3.66e-08
3.505e-08
3.389e-08
3.306e-08
3.253e-08
3.22e-08
3.222e-08
3.237e-08
3.271e-08
3.323e-08
3.392e-08
3.478e-08
3.579e-08
3.696e-08
3.829e-08
3.978e-08
4.142e-08
4.322e-08
4.519e-08
4.731e-08
4.96e-08
5.206e-08
5.469e-08
5.749e-08
6.046e-08
6.361e-08
6.68e-08
7.185e-08
-3.6e-52
2.991e-51
-2.229e-50
1.794e-49
-1.502e-48
1.264e-47
-1.045e-46
8.381e-46
-6.502e-45
4.886e-44
-3.569e-43
2.543e-42
-1.776e-41
1.22e-40
-8.257e-40
5.524e-39
-3.66e-38
2.404e-37
-1.568e-36
1.016e-35
-6.539e-35
4.183e-34
-2.658e-33
1.678e-32
-1.052e-31
6.55e-31
-4.042e-30
2.47e-29
-1.495e-28
8.943e-28
-5.286e-27
3.083e-26
-1.772e-25
1.002e-24
-5.573e-24
3.044e-23
-1.62e-22
8.741e-22
-3.851e-21
4.205e-20
1.253e-18
1.617e-17
1.781e-16
1.815e-15
1.719e-14
1.506e-13
1.214e-12
8.944e-12
5.995e-11
3.635e-10
1.984e-09
9.705e-09
4.238e-08
1.647e-07
5.683e-07
1.737e-06
4.698e-06
1.125e-05
2.389e-05
4.512e-05
7.613e-05
0.0001153
0.0001573
0.0001934
0.0002202
0.0002286
0.0002216
0.0002046
0.0001799
0.0001514
0.0001226
9.607e-05
7.314e-05
5.436e-05
3.961e-05
2.841e-05
2.014e-05
1.418e-05
9.945e-06
6.98e-06
4.918e-06
3.489e-06
2.499e-06
1.811e-06
1.33e-06
9.919e-07
7.517e-07
5.793e-07
4.542e-07
3.624e-07
2.943e-07
2.432e-07
2.044e-07
1.746e-07
1.516e-07
1.336e-07
1.195e-07
1.084e-07
9.964e-08
9.27e-08
8.725e-08
8.3e-08
7.975e-08
7.734e-08
7.565e-08
7.458e-08
7.397e-08
7.406e-08
7.448e-08
7.529e-08
7.649e-08
7.806e-08
7.999e-08
8.225e-08
8.486e-08
8.779e-08
9.106e-08
9.466e-08
9.859e-08
1.029e-07
1.075e-07
1.124e-07
1.177e-07
1.233e-07
1.293e-07
1.356e-07
1.42e-07
1.522e-07
-3.643e-51
3.521e-50
-2.769e-49
2.109e-48
-1.549e-47
1.1e-46
-7.578e-46
5.088e-45
-3.346e-44
2.166e-43
-1.386e-42
8.812e-42
-5.578e-41
3.526e-40
-2.228e-39
1.409e-38
-8.921e-38
5.657e-37
-3.594e-36
2.288e-35
-1.46e-34
9.346e-34
-6.009e-33
3.864e-32
-2.47e-31
1.57e-30
-9.913e-30
6.215e-29
-3.867e-28
2.385e-27
-1.457e-26
8.805e-26
-5.261e-25
3.104e-24
-1.807e-23
1.038e-22
-5.775e-22
3.502e-21
-1.396e-20
4.401e-19
9.336e-18
1.181e-16
1.329e-15
1.39e-14
1.349e-13
1.206e-12
9.887e-12
7.375e-11
4.975e-10
3.016e-09
1.633e-08
7.865e-08
3.351e-07
1.258e-06
4.153e-06
1.202e-05
3.055e-05
6.837e-05
0.0001352
0.0002363
0.0003706
0.0005257
0.0006729
0.0007843
0.0008527
0.0008383
0.0007876
0.0007042
0.0006026
0.0004958
0.0003936
0.0003028
0.0002268
0.000166
0.0001191
8.414e-05
5.876e-05
4.074e-05
2.816e-05
1.948e-05
1.353e-05
9.472e-06
6.697e-06
4.795e-06
3.482e-06
2.569e-06
1.927e-06
1.471e-06
1.143e-06
9.049e-07
7.291e-07
5.98e-07
4.991e-07
4.237e-07
3.655e-07
3.203e-07
2.849e-07
2.57e-07
2.349e-07
2.175e-07
2.037e-07
1.928e-07
1.844e-07
1.78e-07
1.734e-07
1.702e-07
1.682e-07
1.674e-07
1.678e-07
1.69e-07
1.711e-07
1.739e-07
1.775e-07
1.819e-07
1.87e-07
1.928e-07
1.993e-07
2.065e-07
2.143e-07
2.229e-07
2.322e-07
2.421e-07
2.527e-07
2.641e-07
2.761e-07
2.888e-07
3.016e-07
3.22e-07
7.617e-51
-7.429e-50
5.874e-49
-4.484e-48
3.293e-47
-2.328e-46
1.586e-45
-1.043e-44
6.64e-44
-4.099e-43
2.463e-42
-1.445e-41
8.332e-41
-4.747e-40
2.695e-39
-1.542e-38
8.986e-38
-5.401e-37
3.375e-36
-2.198e-35
1.487e-34
-1.036e-33
7.368e-33
-5.21e-32
3.608e-31
-2.452e-30
1.639e-29
-1.079e-28
7e-28
-4.483e-27
2.833e-26
-1.768e-25
1.089e-24
-6.627e-24
3.982e-23
-2.345e-22
1.446e-21
-4.694e-21
1.974e-19
4.527e-18
6.196e-17
7.622e-16
8.758e-15
9.368e-14
9.268e-13
8.422e-12
6.978e-11
5.232e-10
3.524e-09
2.117e-08
1.126e-07
5.27e-07
2.159e-06
7.701e-06
2.385e-05
6.408e-05
0.0001501
0.0003091
0.0005583
0.0008907
0.00129
0.001713
0.002062
0.002315
0.002367
0.002289
0.002105
0.001851
0.001569
0.001284
0.001017
0.0007812
0.0005846
0.0004273
0.0003059
0.0002154
0.0001497
0.0001033
7.095e-05
4.876e-05
3.366e-05
2.34e-05
1.644e-05
1.17e-05
8.447e-06
6.197e-06
4.625e-06
3.514e-06
2.719e-06
2.143e-06
1.72e-06
1.405e-06
1.169e-06
9.886e-07
8.501e-07
7.426e-07
6.584e-07
5.921e-07
5.396e-07
4.979e-07
4.649e-07
4.388e-07
4.184e-07
4.027e-07
3.909e-07
3.825e-07
3.772e-07
3.736e-07
3.738e-07
3.754e-07
3.787e-07
3.838e-07
3.906e-07
3.99e-07
4.09e-07
4.204e-07
4.333e-07
4.477e-07
4.634e-07
4.806e-07
4.992e-07
5.192e-07
5.406e-07
5.634e-07
5.875e-07
6.131e-07
6.387e-07
6.796e-07
-2.614e-50
2.377e-49
-1.817e-48
1.395e-47
-1.066e-46
8.067e-46
-6.025e-45
4.428e-44
-3.196e-43
2.264e-42
-1.574e-41
1.075e-40
-7.219e-40
4.775e-39
-3.116e-38
2.009e-37
-1.281e-36
8.096e-36
-5.075e-35
3.158e-34
-1.953e-33
1.2e-32
-7.331e-32
4.45e-31
-2.683e-30
1.608e-29
-9.578e-29
5.672e-28
-3.339e-27
1.955e-26
-1.138e-25
6.59e-25
-3.794e-24
2.173e-23
-1.234e-22
7.178e-22
-3.166e-21
5.146e-20
1.678e-18
2.556e-17
3.432e-16
4.308e-15
5.054e-14
5.504e-13
5.525e-12
5.073e-11
4.223e-10
3.162e-09
2.109e-08
1.243e-07
6.42e-07
2.882e-06
1.117e-05
3.717e-05
0.0001059
0.0002589
0.0005503
0.001029
0.001673
0.002435
0.003245
0.004048
0.004706
0.004998
0.004937
0.004693
0.004264
0.00374
0.003199
0.002654
0.00213
0.00166
0.00126
0.0009323
0.0006742
0.0004783
0.0003344
0.0002315
0.0001594
0.0001097
7.579e-05
5.271e-05
3.702e-05
2.634e-05
1.901e-05
1.394e-05
1.04e-05
7.9e-06
6.111e-06
4.814e-06
3.863e-06
3.156e-06
2.623e-06
2.218e-06
1.907e-06
1.664e-06
1.475e-06
1.325e-06
1.206e-06
1.112e-06
1.037e-06
9.772e-07
9.303e-07
8.939e-07
8.663e-07
8.461e-07
8.325e-07
8.24e-07
8.212e-07
8.232e-07
8.288e-07
8.381e-07
8.51e-07
8.673e-07
8.868e-07
9.094e-07
9.351e-07
9.637e-07
9.953e-07
1.03e-06
1.067e-06
1.107e-06
1.15e-06
1.196e-06
1.244e-06
1.296e-06
1.347e-06
1.429e-06
-6.967e-50
6.796e-49
-5.435e-48
4.244e-47
-3.217e-46
2.369e-45
-1.695e-44
1.181e-43
-8.024e-43
5.333e-42
-3.477e-41
2.23e-40
-1.412e-39
8.858e-39
-5.518e-38
3.426e-37
-2.124e-36
1.319e-35
-8.215e-35
5.139e-34
-3.232e-33
2.044e-32
-1.301e-31
8.26e-31
-5.209e-30
3.265e-29
-2.035e-28
1.262e-27
-7.784e-27
4.781e-26
-2.924e-25
1.782e-24
-1.082e-23
6.552e-23
-3.934e-22
2.474e-21
-9.433e-21
3.17e-19
8.068e-18
1.219e-16
1.665e-15
2.129e-14
2.539e-13
2.804e-12
2.843e-11
2.623e-10
2.182e-09
1.62e-08
1.062e-07
6.083e-07
3.015e-06
1.28e-05
4.621e-05
0.000141
0.0003629
0.0007964
0.001524
0.002558
0.003731
0.005123
0.0062
0.007383
0.009413
0.009884
0.009697
0.008788
0.007107
0.006092
0.005314
0.004531
0.003721
0.00297
0.00231
0.001748
0.001289
0.0009299
0.0006593
0.0004618
0.0003212
0.000223
0.0001551
0.0001086
7.67e-05
5.484e-05
3.977e-05
2.93e-05
2.195e-05
1.674e-05
1.3e-05
1.027e-05
8.271e-06
6.777e-06
5.649e-06
4.789e-06
4.124e-06
3.607e-06
3.201e-06
2.88e-06
2.624e-06
2.42e-06
2.258e-06
2.129e-06
2.026e-06
1.947e-06
1.885e-06
1.84e-06
1.809e-06
1.789e-06
1.779e-06
1.782e-06
1.792e-06
1.809e-06
1.834e-06
1.866e-06
1.904e-06
1.949e-06
2e-06
2.058e-06
2.121e-06
2.19e-06
2.265e-06
2.345e-06
2.431e-06
2.523e-06
2.62e-06
2.723e-06
2.825e-06
2.989e-06
1.398e-49
-1.293e-48
9.988e-48
-7.693e-47
5.858e-46
-4.401e-45
3.254e-44
-2.366e-43
1.689e-42
-1.185e-41
8.162e-41
-5.527e-40
3.683e-39
-2.417e-38
1.565e-37
-1.001e-36
6.328e-36
-3.963e-35
2.461e-34
-1.516e-33
9.287e-33
-5.655e-32
3.428e-31
-2.063e-30
1.235e-29
-7.365e-29
4.376e-28
-2.593e-27
1.534e-26
-9.058e-26
5.347e-25
-3.157e-24
1.867e-23
-1.102e-22
6.737e-22
-3.009e-21
6.264e-20
2.099e-18
3.458e-17
5.099e-16
7.065e-15
9.174e-14
1.108e-12
1.236e-11
1.26e-10
1.163e-09
9.618e-09
7.037e-08
4.501e-07
2.485e-06
1.17e-05
4.638e-05
0.0001537
0.0004237
0.0009748
0.001911
0.003294
0.004906
0.006608
0.009311
0.01038
0.01006
0.01141
0.01063
0.01054
0.01015
0.01016
0.01029
0.009102
0.007066
0.005721
0.004653
0.003718
0.002887
0.002178
0.001604
0.00116
0.0008268
0.0005844
0.0004115
0.00029
0.0002054
0.0001467
0.000106
7.76e-05
5.768e-05
4.358e-05
3.35e-05
2.621e-05
2.087e-05
1.691e-05
1.394e-05
1.168e-05
9.954e-06
8.613e-06
7.565e-06
6.738e-06
6.081e-06
5.557e-06
5.139e-06
4.803e-06
4.536e-06
4.323e-06
4.157e-06
4.029e-06
3.934e-06
3.867e-06
3.825e-06
3.801e-06
3.806e-06
3.824e-06
3.858e-06
3.906e-06
3.97e-06
4.046e-06
4.137e-06
4.239e-06
4.354e-06
4.481e-06
4.619e-06
4.77e-06
4.931e-06
5.103e-06
5.286e-06
5.48e-06
5.685e-06
5.888e-06
6.214e-06
2.184e-49
-2.133e-48
1.717e-47
-1.356e-46
1.045e-45
-7.841e-45
5.737e-44
-4.096e-43
2.856e-42
-1.949e-41
1.305e-40
-8.585e-40
5.567e-39
-3.566e-38
2.262e-37
-1.424e-36
8.92e-36
-5.569e-35
3.472e-34
-2.164e-33
1.35e-32
-8.446e-32
5.297e-31
-3.315e-30
2.063e-29
-1.279e-28
7.906e-28
-4.876e-27
3.005e-26
-1.852e-25
1.142e-24
-7.061e-24
4.381e-23
-2.713e-22
1.791e-21
-6.285e-21
2.765e-19
7.625e-18
1.25e-16
1.867e-15
2.623e-14
3.447e-13
4.206e-12
4.72e-11
4.824e-10
4.439e-09
3.632e-08
2.606e-07
1.617e-06
8.536e-06
3.779e-05
0.0001384
0.0004157
0.001026
0.002106
0.003725
0.005887
0.00769
0.009944
0.01037
0.011
0.01001
0.01037
0.01037
0.01036
0.01027
0.01008
0.0109
0.01024
0.01005
0.008457
0.00673
0.005475
0.004333
0.00333
0.002502
0.001846
0.001344
0.0009686
0.000695
0.0004986
0.000359
0.0002605
0.0001909
0.0001417
0.0001068
8.167e-05
6.351e-05
5.023e-05
4.041e-05
3.306e-05
2.75e-05
2.324e-05
1.995e-05
1.739e-05
1.537e-05
1.377e-05
1.249e-05
1.147e-05
1.064e-05
9.985e-06
9.457e-06
9.037e-06
8.708e-06
8.455e-06
8.266e-06
8.134e-06
8.052e-06
8.007e-06
8.018e-06
8.055e-06
8.124e-06
8.223e-06
8.352e-06
8.508e-06
8.689e-06
8.896e-06
9.128e-06
9.382e-06
9.66e-06
9.96e-06
1.028e-05
1.063e-05
1.099e-05
1.137e-05
1.178e-05
1.218e-05
1.282e-05
-3.79e-49
3.494e-48
-2.694e-47
2.074e-46
-1.581e-45
1.19e-44
-8.829e-44
6.444e-43
-4.623e-42
3.259e-41
-2.257e-40
1.536e-39
-1.028e-38
6.773e-38
-4.395e-37
2.813e-36
-1.778e-35
1.11e-34
-6.866e-34
4.207e-33
-2.558e-32
1.545e-31
-9.281e-31
5.534e-30
-3.289e-29
1.951e-28
-1.156e-27
6.852e-27
-4.069e-26
2.423e-25
-1.449e-24
8.715e-24
-5.266e-23
3.304e-22
-1.493e-21
3.978e-20
1.402e-18
2.486e-17
3.977e-16
6.005e-15
8.531e-14
1.132e-12
1.391e-11
1.567e-10
1.601e-09
1.464e-08
1.182e-07
8.286e-07
4.961e-06
2.49e-05
0.0001029
0.0003448
0.0009305
0.002048
0.003792
0.006282
0.009593
0.009966
0.01159
0.01026
0.01004
0.009969
0.009969
0.009969
0.009969
0.009969
0.00997
0.01004
0.01026
0.01028
0.01023
0.01016
0.007819
0.00606
0.004692
0.003584
0.002699
0.002007
0.001479
0.001084
0.0007942
0.0005836
0.0004317
0.0003223
0.0002435
0.0001865
0.000145
0.0001145
9.182e-05
7.485e-05
6.2e-05
5.217e-05
4.458e-05
3.865e-05
3.399e-05
3.029e-05
2.734e-05
2.497e-05
2.307e-05
2.153e-05
2.03e-05
1.931e-05
1.852e-05
1.79e-05
1.743e-05
1.708e-05
1.684e-05
1.669e-05
1.663e-05
1.666e-05