/*--------------------------------*- C++ -*----------------------------------*\
  =========                 |
  \\      /  F ield         | OpenFOAM: The Open Source CFD Toolbox
   \\    /   O peration     | Website:  https://openfoam.org
    \\  /    A nd           | Version:  7
     \\/     M anipulation  |
\*---------------------------------------------------------------------------*/
FoamFile
{
    version     2.0;
    format      ascii;
    class       volScalarField;
    location    "1439.99947341967936";
    object      p;
}
// * * * * * * * * * * * * * * * * * * * * * * * * * * * * * * * * * * * * * //

dimensions      [0 2 -2 0 0 0 0];

internalField   nonuniform List<scalar> 
4096
(
0.0006014
0.0004305
0.0003463
0.0003041
0.0002807
0.0002668
0.0002579
0.0002518
0.0002474
0.0002442
0.0002416
0.0002396
0.000238
0.0002366
0.0002354
0.0002344
0.0002335
0.0002327
0.000232
0.0002314
0.0002308
0.0002302
0.0002296
0.0002291
0.0002286
0.0002281
0.0002276
0.0002272
0.0002267
0.0002262
0.0002257
0.0002252
0.0002247
0.0002241
0.0002235
0.0002229
0.0002222
0.0002215
0.0002207
0.0002198
0.0002189
0.0002178
0.0002165
0.0002152
0.0002136
0.0002118
0.0002099
0.0002076
0.0002051
0.0002023
0.0001991
0.0001956
0.0001917
0.0001875
0.0001828
0.0001778
0.0001723
0.0001665
0.0001603
0.0001538
0.000147
0.00014
0.0001329
0.0001257
0.0001184
0.0001112
0.000104
9.708e-05
9.033e-05
8.385e-05
7.766e-05
7.179e-05
6.627e-05
6.111e-05
5.631e-05
5.188e-05
4.78e-05
4.407e-05
4.068e-05
3.761e-05
3.484e-05
3.235e-05
3.012e-05
2.812e-05
2.634e-05
2.475e-05
2.333e-05
2.207e-05
2.093e-05
1.991e-05
1.899e-05
1.816e-05
1.74e-05
1.67e-05
1.605e-05
1.544e-05
1.486e-05
1.432e-05
1.379e-05
1.329e-05
1.28e-05
1.232e-05
1.184e-05
1.138e-05
1.091e-05
1.045e-05
9.989e-06
9.528e-06
9.067e-06
8.604e-06
8.14e-06
7.673e-06
7.204e-06
6.732e-06
6.257e-06
5.779e-06
5.297e-06
4.813e-06
4.325e-06
3.834e-06
3.341e-06
2.845e-06
2.348e-06
1.852e-06
1.36e-06
8.783e-07
4.223e-07
7.334e-08
0.0004569
0.0003932
0.0003434
0.0003114
0.0002904
0.0002761
0.0002661
0.0002588
0.0002533
0.0002491
0.0002457
0.0002431
0.0002409
0.0002391
0.0002375
0.0002362
0.000235
0.000234
0.0002331
0.0002322
0.0002315
0.0002307
0.00023
0.0002294
0.0002288
0.0002282
0.0002276
0.000227
0.0002264
0.0002258
0.0002252
0.0002245
0.0002239
0.0002232
0.0002225
0.0002218
0.000221
0.0002201
0.0002192
0.0002182
0.000217
0.0002158
0.0002144
0.0002129
0.0002112
0.0002094
0.0002073
0.0002049
0.0002023
0.0001995
0.0001963
0.0001928
0.0001889
0.0001847
0.0001801
0.0001752
0.0001699
0.0001643
0.0001584
0.0001522
0.0001457
0.0001391
0.0001323
0.0001254
0.0001185
0.0001116
0.0001048
9.821e-05
9.177e-05
8.557e-05
7.963e-05
7.398e-05
6.863e-05
6.362e-05
5.893e-05
5.457e-05
5.054e-05
4.683e-05
4.344e-05
4.033e-05
3.751e-05
3.495e-05
3.264e-05
3.055e-05
2.866e-05
2.696e-05
2.543e-05
2.404e-05
2.279e-05
2.165e-05
2.061e-05
1.966e-05
1.879e-05
1.798e-05
1.723e-05
1.653e-05
1.586e-05
1.523e-05
1.463e-05
1.405e-05
1.349e-05
1.294e-05
1.241e-05
1.189e-05
1.137e-05
1.087e-05
1.036e-05
9.864e-06
9.368e-06
8.874e-06
8.381e-06
7.888e-06
7.396e-06
6.903e-06
6.41e-06
5.916e-06
5.421e-06
4.924e-06
4.426e-06
3.927e-06
3.427e-06
2.926e-06
2.426e-06
1.927e-06
1.434e-06
9.492e-07
4.813e-07
9.775e-08
0.0003734
0.0003518
0.0003263
0.0003056
0.00029
0.0002783
0.0002693
0.0002623
0.0002568
0.0002523
0.0002487
0.0002457
0.0002432
0.0002411
0.0002393
0.0002377
0.0002363
0.0002351
0.000234
0.000233
0.0002321
0.0002312
0.0002304
0.0002296
0.0002289
0.0002282
0.0002275
0.0002268
0.0002261
0.0002253
0.0002246
0.0002239
0.0002231
0.0002224
0.0002215
0.0002207
0.0002198
0.0002188
0.0002177
0.0002166
0.0002153
0.000214
0.0002125
0.0002109
0.0002091
0.0002071
0.0002049
0.0002025
0.0001998
0.0001969
0.0001937
0.0001902
0.0001864
0.0001823
0.0001778
0.000173
0.0001679
0.0001625
0.0001567
0.0001508
0.0001446
0.0001382
0.0001317
0.0001251
0.0001186
0.000112
0.0001055
9.918e-05
9.301e-05
8.705e-05
8.133e-05
7.588e-05
7.071e-05
6.583e-05
6.125e-05
5.697e-05
5.3e-05
4.932e-05
4.592e-05
4.281e-05
3.995e-05
3.734e-05
3.496e-05
3.279e-05
3.082e-05
2.903e-05
2.739e-05
2.59e-05
2.455e-05
2.33e-05
2.216e-05
2.111e-05
2.014e-05
1.923e-05
1.839e-05
1.759e-05
1.684e-05
1.613e-05
1.545e-05
1.48e-05
1.417e-05
1.356e-05
1.297e-05
1.24e-05
1.184e-05
1.128e-05
1.074e-05
1.02e-05
9.673e-06
9.148e-06
8.627e-06
8.109e-06
7.593e-06
7.08e-06
6.569e-06
6.058e-06
5.548e-06
5.039e-06
4.53e-06
4.022e-06
3.514e-06
3.006e-06
2.5e-06
1.995e-06
1.494e-06
9.992e-07
5.122e-07
1.016e-07
0.0003287
0.0003216
0.0003083
0.0002951
0.0002843
0.0002755
0.0002684
0.0002625
0.0002576
0.0002535
0.00025
0.000247
0.0002445
0.0002423
0.0002404
0.0002387
0.0002373
0.0002359
0.0002347
0.0002336
0.0002326
0.0002316
0.0002307
0.0002298
0.000229
0.0002281
0.0002273
0.0002266
0.0002258
0.000225
0.0002241
0.0002233
0.0002225
0.0002216
0.0002207
0.0002197
0.0002187
0.0002176
0.0002164
0.0002152
0.0002139
0.0002124
0.0002108
0.0002091
0.0002072
0.0002052
0.0002029
0.0002005
0.0001978
0.0001948
0.0001916
0.0001882
0.0001844
0.0001803
0.0001759
0.0001712
0.0001663
0.000161
0.0001554
0.0001497
0.0001437
0.0001375
0.0001313
0.0001249
0.0001186
0.0001123
0.000106
9.989e-05
9.394e-05
8.818e-05
8.265e-05
7.736e-05
7.233e-05
6.757e-05
6.309e-05
5.889e-05
5.497e-05
5.133e-05
4.795e-05
4.483e-05
4.196e-05
3.932e-05
3.69e-05
3.468e-05
3.264e-05
3.078e-05
2.907e-05
2.75e-05
2.607e-05
2.474e-05
2.351e-05
2.238e-05
2.132e-05
2.034e-05
1.941e-05
1.854e-05
1.772e-05
1.694e-05
1.619e-05
1.548e-05
1.479e-05
1.413e-05
1.349e-05
1.287e-05
1.226e-05
1.167e-05
1.109e-05
1.052e-05
9.958e-06
9.404e-06
8.857e-06
8.316e-06
7.779e-06
7.247e-06
6.718e-06
6.193e-06
5.669e-06
5.148e-06
4.628e-06
4.11e-06
3.593e-06
3.078e-06
2.563e-06
2.051e-06
1.54e-06
1.031e-06
5.263e-07
9.844e-08
0.0003018
0.0003008
0.0002939
0.0002853
0.0002775
0.0002709
0.0002654
0.0002607
0.0002567
0.0002531
0.0002501
0.0002474
0.000245
0.0002429
0.000241
0.0002393
0.0002378
0.0002364
0.0002351
0.000234
0.0002329
0.0002318
0.0002308
0.0002299
0.000229
0.0002281
0.0002272
0.0002264
0.0002255
0.0002246
0.0002237
0.0002228
0.0002219
0.0002209
0.0002199
0.0002189
0.0002178
0.0002166
0.0002154
0.000214
0.0002126
0.0002111
0.0002094
0.0002077
0.0002057
0.0002036
0.0002013
0.0001988
0.0001961
0.0001932
0.00019
0.0001865
0.0001828
0.0001788
0.0001745
0.0001699
0.000165
0.0001599
0.0001545
0.0001488
0.000143
0.000137
0.0001309
0.0001247
0.0001186
0.0001124
0.0001063
0.0001004
9.462e-05
8.902e-05
8.363e-05
7.848e-05
7.357e-05
6.891e-05
6.452e-05
6.039e-05
5.652e-05
5.291e-05
4.956e-05
4.645e-05
4.358e-05
4.092e-05
3.847e-05
3.622e-05
3.414e-05
3.223e-05
3.047e-05
2.885e-05
2.735e-05
2.596e-05
2.466e-05
2.346e-05
2.234e-05
2.129e-05
2.03e-05
1.937e-05
1.849e-05
1.765e-05
1.685e-05
1.608e-05
1.535e-05
1.464e-05
1.395e-05
1.329e-05
1.265e-05
1.202e-05
1.14e-05
1.08e-05
1.021e-05
9.636e-06
9.066e-06
8.503e-06
7.948e-06
7.399e-06
6.855e-06
6.315e-06
5.779e-06
5.247e-06
4.717e-06
4.19e-06
3.664e-06
3.14e-06
2.618e-06
2.096e-06
1.575e-06
1.055e-06
5.349e-07
9.479e-08
0.0002844
0.000286
0.0002826
0.000277
0.0002713
0.0002662
0.0002619
0.0002581
0.0002548
0.0002519
0.0002493
0.0002469
0.0002448
0.0002428
0.0002411
0.0002394
0.000238
0.0002366
0.0002353
0.0002341
0.000233
0.0002319
0.0002309
0.0002299
0.000229
0.000228
0.0002271
0.0002262
0.0002252
0.0002243
0.0002233
0.0002224
0.0002214
0.0002204
0.0002193
0.0002182
0.000217
0.0002158
0.0002145
0.0002131
0.0002116
0.00021
0.0002083
0.0002065
0.0002045
0.0002024
0.0002001
0.0001976
0.0001949
0.0001919
0.0001888
0.0001853
0.0001816
0.0001777
0.0001734
0.0001689
0.0001641
0.000159
0.0001537
0.0001482
0.0001425
0.0001366
0.0001306
0.0001246
0.0001185
0.0001125
0.0001066
0.0001007
9.508e-05
8.961e-05
8.434e-05
7.929e-05
7.447e-05
6.99e-05
6.558e-05
6.151e-05
5.769e-05
5.412e-05
5.079e-05
4.77e-05
4.483e-05
4.217e-05
3.971e-05
3.744e-05
3.534e-05
3.34e-05
3.16e-05
2.994e-05
2.839e-05
2.696e-05
2.562e-05
2.436e-05
2.319e-05
2.209e-05
2.105e-05
2.007e-05
1.913e-05
1.825e-05
1.74e-05
1.659e-05
1.582e-05
1.507e-05
1.435e-05
1.365e-05
1.297e-05
1.232e-05
1.168e-05
1.105e-05
1.044e-05
9.837e-06
9.247e-06
8.667e-06
8.095e-06
7.531e-06
6.974e-06
6.422e-06
5.875e-06
5.333e-06
4.794e-06
4.259e-06
3.725e-06
3.194e-06
2.663e-06
2.134e-06
1.604e-06
1.074e-06
5.418e-07
9.213e-08
0.0002725
0.000275
0.0002737
0.0002701
0.0002659
0.0002619
0.0002584
0.0002553
0.0002526
0.0002502
0.000248
0.0002459
0.0002441
0.0002423
0.0002407
0.0002392
0.0002378
0.0002365
0.0002353
0.0002341
0.000233
0.0002319
0.0002309
0.0002299
0.0002289
0.0002279
0.0002269
0.000226
0.000225
0.000224
0.000223
0.000222
0.000221
0.0002199
0.0002188
0.0002176
0.0002164
0.0002151
0.0002138
0.0002124
0.0002108
0.0002092
0.0002075
0.0002056
0.0002036
0.0002015
0.0001991
0.0001966
0.0001939
0.000191
0.0001879
0.0001844
0.0001808
0.0001769
0.0001727
0.0001682
0.0001635
0.0001585
0.0001532
0.0001478
0.0001421
0.0001363
0.0001304
0.0001244
0.0001184
0.0001125
0.0001066
0.0001009
9.535e-05
8.997e-05
8.478e-05
7.981e-05
7.507e-05
7.057e-05
6.63e-05
6.228e-05
5.851e-05
5.497e-05
5.167e-05
4.86e-05
4.574e-05
4.309e-05
4.063e-05
3.836e-05
3.625e-05
3.429e-05
3.247e-05
3.078e-05
2.921e-05
2.774e-05
2.637e-05
2.508e-05
2.387e-05
2.273e-05
2.165e-05
2.063e-05
1.966e-05
1.874e-05
1.786e-05
1.701e-05
1.62e-05
1.542e-05
1.467e-05
1.395e-05
1.325e-05
1.256e-05
1.19e-05
1.125e-05
1.062e-05
1e-05
9.397e-06
8.802e-06
8.217e-06
7.641e-06
7.072e-06
6.511e-06
5.955e-06
5.404e-06
4.858e-06
4.315e-06
3.776e-06
3.238e-06
2.701e-06
2.165e-06
1.628e-06
1.09e-06
5.484e-07
9.102e-08
0.0002639
0.0002667
0.0002666
0.0002643
0.0002613
0.0002582
0.0002553
0.0002527
0.0002504
0.0002484
0.0002465
0.0002447
0.0002431
0.0002416
0.0002401
0.0002388
0.0002375
0.0002363
0.0002351
0.0002339
0.0002328
0.0002318
0.0002307
0.0002297
0.0002287
0.0002278
0.0002268
0.0002258
0.0002248
0.0002238
0.0002228
0.0002217
0.0002207
0.0002195
0.0002184
0.0002172
0.000216
0.0002147
0.0002133
0.0002118
0.0002103
0.0002086
0.0002069
0.000205
0.000203
0.0002008
0.0001985
0.000196
0.0001933
0.0001904
0.0001873
0.0001839
0.0001803
0.0001764
0.0001722
0.0001678
0.0001631
0.0001581
0.0001529
0.0001475
0.0001419
0.0001361
0.0001302
0.0001242
0.0001183
0.0001124
0.0001066
0.000101
9.545e-05
9.012e-05
8.5e-05
8.009e-05
7.54e-05
7.094e-05
6.672e-05
6.274e-05
5.9e-05
5.549e-05
5.222e-05
4.917e-05
4.633e-05
4.37e-05
4.125e-05
3.898e-05
3.687e-05
3.491e-05
3.309e-05
3.138e-05
2.98e-05
2.831e-05
2.692e-05
2.561e-05
2.437e-05
2.32e-05
2.21e-05
2.105e-05
2.006e-05
1.911e-05
1.82e-05
1.733e-05
1.65e-05
1.57e-05
1.492e-05
1.418e-05
1.345e-05
1.275e-05
1.207e-05
1.141e-05
1.076e-05
1.013e-05
9.512e-06
8.906e-06
8.31e-06
7.725e-06
7.148e-06
6.578e-06
6.016e-06
5.459e-06
4.907e-06
4.359e-06
3.815e-06
3.272e-06
2.731e-06
2.19e-06
1.648e-06
1.104e-06
5.554e-07
9.171e-08
0.0002574
0.0002601
0.0002607
0.0002595
0.0002573
0.0002549
0.0002525
0.0002503
0.0002484
0.0002466
0.000245
0.0002435
0.000242
0.0002407
0.0002394
0.0002382
0.000237
0.0002358
0.0002347
0.0002337
0.0002326
0.0002316
0.0002306
0.0002296
0.0002286
0.0002276
0.0002266
0.0002256
0.0002246
0.0002236
0.0002226
0.0002215
0.0002204
0.0002193
0.0002181
0.0002169
0.0002157
0.0002143
0.000213
0.0002115
0.0002099
0.0002083
0.0002065
0.0002047
0.0002027
0.0002005
0.0001982
0.0001957
0.000193
0.0001901
0.000187
0.0001837
0.0001801
0.0001762
0.0001721
0.0001676
0.000163
0.000158
0.0001528
0.0001474
0.0001417
0.0001359
0.00013
0.0001241
0.0001182
0.0001123
0.0001065
0.0001008
9.537e-05
9.009e-05
8.5e-05
8.012e-05
7.546e-05
7.104e-05
6.684e-05
6.289e-05
5.918e-05
5.57e-05
5.245e-05
4.942e-05
4.661e-05
4.4e-05
4.157e-05
3.932e-05
3.722e-05
3.527e-05
3.345e-05
3.175e-05
3.016e-05
2.867e-05
2.727e-05
2.595e-05
2.47e-05
2.352e-05
2.24e-05
2.134e-05
2.033e-05
1.936e-05
1.844e-05
1.755e-05
1.67e-05
1.588e-05
1.509e-05
1.433e-05
1.36e-05
1.288e-05
1.219e-05
1.151e-05
1.086e-05
1.022e-05
9.59e-06
8.976e-06
8.373e-06
7.781e-06
7.198e-06
6.624e-06
6.057e-06
5.496e-06
4.941e-06
4.389e-06
3.842e-06
3.296e-06
2.752e-06
2.209e-06
1.664e-06
1.116e-06
5.631e-07
9.437e-08
0.0002524
0.0002549
0.0002559
0.0002553
0.0002538
0.000252
0.00025
0.0002482
0.0002465
0.0002449
0.0002435
0.0002422
0.0002409
0.0002397
0.0002386
0.0002375
0.0002364
0.0002354
0.0002343
0.0002333
0.0002323
0.0002313
0.0002304
0.0002294
0.0002284
0.0002275
0.0002265
0.0002255
0.0002245
0.0002235
0.0002224
0.0002214
0.0002203
0.0002192
0.000218
0.0002168
0.0002155
0.0002142
0.0002128
0.0002113
0.0002098
0.0002082
0.0002064
0.0002045
0.0002026
0.0002004
0.0001981
0.0001957
0.000193
0.0001902
0.0001871
0.0001837
0.0001802
0.0001763
0.0001722
0.0001678
0.0001631
0.0001581
0.0001529
0.0001474
0.0001417
0.0001359
0.0001299
0.0001239
0.000118
0.0001121
0.0001063
0.0001006
9.514e-05
8.986e-05
8.478e-05
7.991e-05
7.527e-05
7.085e-05
6.667e-05
6.274e-05
5.904e-05
5.558e-05
5.236e-05
4.937e-05
4.658e-05
4.4e-05
4.16e-05
3.938e-05
3.731e-05
3.538e-05
3.358e-05
3.189e-05
3.031e-05
2.883e-05
2.743e-05
2.611e-05
2.487e-05
2.368e-05
2.256e-05
2.149e-05
2.047e-05
1.949e-05
1.856e-05
1.767e-05
1.681e-05
1.598e-05
1.518e-05
1.442e-05
1.367e-05
1.295e-05
1.225e-05
1.157e-05
1.091e-05
1.026e-05
9.629e-06
9.01e-06
8.404e-06
7.809e-06
7.223e-06
6.647e-06
6.077e-06
5.515e-06
4.958e-06
4.406e-06
3.857e-06
3.311e-06
2.766e-06
2.222e-06
1.676e-06
1.127e-06
5.719e-07
9.915e-08
0.0002483
0.0002507
0.0002518
0.0002517
0.0002508
0.0002494
0.0002478
0.0002463
0.0002448
0.0002434
0.0002422
0.000241
0.0002399
0.0002388
0.0002378
0.0002368
0.0002358
0.0002348
0.0002339
0.0002329
0.000232
0.0002311
0.0002301
0.0002292
0.0002283
0.0002273
0.0002264
0.0002254
0.0002244
0.0002234
0.0002224
0.0002213
0.0002203
0.0002191
0.000218
0.0002168
0.0002155
0.0002142
0.0002128
0.0002114
0.0002099
0.0002082
0.0002065
0.0002047
0.0002027
0.0002006
0.0001984
0.000196
0.0001933
0.0001905
0.0001874
0.0001841
0.0001806
0.0001767
0.0001726
0.0001682
0.0001634
0.0001584
0.0001531
0.0001476
0.0001419
0.0001359
0.0001299
0.0001238
0.0001177
0.0001118
0.0001059
0.0001002
9.474e-05
8.944e-05
8.434e-05
7.946e-05
7.48e-05
7.038e-05
6.62e-05
6.227e-05
5.859e-05
5.515e-05
5.196e-05
4.9e-05
4.625e-05
4.371e-05
4.135e-05
3.916e-05
3.713e-05
3.523e-05
3.346e-05
3.181e-05
3.025e-05
2.879e-05
2.741e-05
2.61e-05
2.486e-05
2.369e-05
2.257e-05
2.15e-05
2.048e-05
1.951e-05
1.858e-05
1.768e-05
1.682e-05
1.599e-05
1.52e-05
1.442e-05
1.368e-05
1.296e-05
1.225e-05
1.157e-05
1.091e-05
1.026e-05
9.628e-06
9.009e-06
8.403e-06
7.807e-06
7.222e-06
6.645e-06
6.077e-06
5.515e-06
4.959e-06
4.407e-06
3.86e-06
3.315e-06
2.772e-06
2.229e-06
1.684e-06
1.136e-06
5.819e-07
1.061e-07
0.000245
0.0002472
0.0002484
0.0002487
0.0002481
0.0002471
0.0002459
0.0002446
0.0002433
0.0002421
0.000241
0.0002399
0.0002389
0.0002379
0.000237
0.0002361
0.0002352
0.0002343
0.0002334
0.0002325
0.0002317
0.0002308
0.0002299
0.000229
0.0002281
0.0002272
0.0002263
0.0002253
0.0002244
0.0002234
0.0002224
0.0002214
0.0002203
0.0002192
0.0002181
0.0002169
0.0002157
0.0002144
0.000213
0.0002116
0.0002101
0.0002085
0.0002069
0.0002051
0.0002032
0.0002011
0.0001989
0.0001965
0.000194
0.0001912
0.0001881
0.0001849
0.0001813
0.0001774
0.0001733
0.0001688
0.0001641
0.000159
0.0001536
0.000148
0.0001421
0.0001361
0.0001299
0.0001237
0.0001175
0.0001114
0.0001055
9.971e-05
9.416e-05
8.88e-05
8.366e-05
7.874e-05
7.405e-05
6.96e-05
6.541e-05
6.147e-05
5.78e-05
5.439e-05
5.122e-05
4.83e-05
4.56e-05
4.311e-05
4.081e-05
3.867e-05
3.669e-05
3.485e-05
3.312e-05
3.15e-05
2.998e-05
2.855e-05
2.72e-05
2.591e-05
2.47e-05
2.354e-05
2.244e-05
2.138e-05
2.038e-05
1.941e-05
1.849e-05
1.76e-05
1.675e-05
1.592e-05
1.513e-05
1.436e-05
1.362e-05
1.29e-05
1.22e-05
1.152e-05
1.086e-05
1.022e-05
9.589e-06
8.973e-06
8.369e-06
7.777e-06
7.194e-06
6.621e-06
6.055e-06
5.496e-06
4.943e-06
4.395e-06
3.851e-06
3.309e-06
2.77e-06
2.23e-06
1.689e-06
1.144e-06
5.931e-07
1.153e-07
0.0002423
0.0002443
0.0002456
0.000246
0.0002458
0.0002451
0.0002441
0.000243
0.0002419
0.0002409
0.0002399
0.0002389
0.000238
0.0002371
0.0002363
0.0002354
0.0002346
0.0002338
0.000233
0.0002322
0.0002313
0.0002305
0.0002297
0.0002288
0.000228
0.0002271
0.0002262
0.0002253
0.0002244
0.0002235
0.0002225
0.0002215
0.0002205
0.0002194
0.0002183
0.0002172
0.000216
0.0002147
0.0002134
0.000212
0.0002106
0.0002091
0.0002074
0.0002057
0.0002038
0.0002019
0.0001997
0.0001974
0.0001949
0.0001922
0.0001892
0.0001859
0.0001824
0.0001785
0.0001744
0.0001699
0.000165
0.0001598
0.0001544
0.0001486
0.0001425
0.0001363
0.0001299
0.0001235
0.0001171
0.0001109
0.0001049
9.901e-05
9.337e-05
8.794e-05
8.272e-05
7.772e-05
7.297e-05
6.848e-05
6.426e-05
6.032e-05
5.665e-05
5.327e-05
5.015e-05
4.728e-05
4.464e-05
4.222e-05
3.998e-05
3.792e-05
3.6e-05
3.422e-05
3.255e-05
3.098e-05
2.951e-05
2.812e-05
2.681e-05
2.556e-05
2.437e-05
2.324e-05
2.217e-05
2.113e-05
2.015e-05
1.92e-05
1.829e-05
1.742e-05
1.658e-05
1.577e-05
1.499e-05
1.423e-05
1.35e-05
1.279e-05
1.21e-05
1.143e-05
1.077e-05
1.013e-05
9.512e-06
8.902e-06
8.304e-06
7.718e-06
7.141e-06
6.573e-06
6.013e-06
5.459e-06
4.912e-06
4.369e-06
3.83e-06
3.294e-06
2.76e-06
2.225e-06
1.69e-06
1.15e-06
6.055e-07
1.267e-07
0.00024
0.0002418
0.0002431
0.0002437
0.0002437
0.0002432
0.0002425
0.0002417
0.0002407
0.0002398
0.0002389
0.000238
0.0002372
0.0002364
0.0002356
0.0002348
0.0002341
0.0002333
0.0002326
0.0002318
0.0002311
0.0002303
0.0002295
0.0002287
0.0002279
0.0002271
0.0002262
0.0002254
0.0002245
0.0002236
0.0002227
0.0002217
0.0002207
0.0002197
0.0002186
0.0002175
0.0002164
0.0002152
0.0002139
0.0002126
0.0002112
0.0002098
0.0002082
0.0002066
0.0002048
0.0002029
0.0002008
0.0001986
0.0001962
0.0001935
0.0001906
0.0001874
0.0001839
0.0001801
0.0001758
0.0001713
0.0001663
0.000161
0.0001554
0.0001494
0.0001432
0.0001367
0.0001301
0.0001234
0.0001168
0.0001103
0.0001041
9.812e-05
9.234e-05
8.678e-05
8.145e-05
7.635e-05
7.152e-05
6.697e-05
6.272e-05
5.876e-05
5.512e-05
5.177e-05
4.871e-05
4.591e-05
4.335e-05
4.101e-05
3.887e-05
3.689e-05
3.506e-05
3.335e-05
3.176e-05
3.026e-05
2.885e-05
2.752e-05
2.625e-05
2.505e-05
2.39e-05
2.281e-05
2.177e-05
2.077e-05
1.981e-05
1.889e-05
1.8e-05
1.715e-05
1.633e-05
1.554e-05
1.477e-05
1.403e-05
1.331e-05
1.262e-05
1.194e-05
1.128e-05
1.064e-05
1.001e-05
9.398e-06
8.798e-06
8.209e-06
7.631e-06
7.063e-06
6.503e-06
5.951e-06
5.405e-06
4.865e-06
4.33e-06
3.798e-06
3.27e-06
2.742e-06
2.215e-06
1.687e-06
1.156e-06
6.192e-07
1.403e-07
0.000238
0.0002397
0.000241
0.0002417
0.0002418
0.0002416
0.0002411
0.0002404
0.0002396
0.0002388
0.000238
0.0002373
0.0002365
0.0002357
0.000235
0.0002343
0.0002336
0.0002329
0.0002322
0.0002315
0.0002308
0.0002301
0.0002294
0.0002286
0.0002279
0.0002271
0.0002263
0.0002255
0.0002246
0.0002238
0.0002229
0.000222
0.0002211
0.0002201
0.0002191
0.000218
0.000217
0.0002158
0.0002146
0.0002134
0.0002121
0.0002107
0.0002092
0.0002077
0.000206
0.0002042
0.0002022
0.0002001
0.0001978
0.0001953
0.0001924
0.0001893
0.0001859
0.000182
0.0001778
0.0001732
0.0001682
0.0001627
0.0001568
0.0001506
0.0001441
0.0001373
0.0001303
0.0001233
0.0001163
0.0001096
0.0001032
9.695e-05
9.098e-05
8.525e-05
7.977e-05
7.455e-05
6.962e-05
6.5e-05
6.072e-05
5.677e-05
5.315e-05
4.986e-05
4.688e-05
4.418e-05
4.173e-05
3.95e-05
3.747e-05
3.559e-05
3.387e-05
3.226e-05
3.075e-05
2.934e-05
2.8e-05
2.674e-05
2.553e-05
2.439e-05
2.329e-05
2.225e-05
2.124e-05
2.028e-05
1.936e-05
1.847e-05
1.762e-05
1.679e-05
1.6e-05
1.523e-05
1.449e-05
1.377e-05
1.307e-05
1.239e-05
1.173e-05
1.109e-05
1.046e-05
9.849e-06
9.25e-06
8.663e-06
8.086e-06
7.52e-06
6.962e-06
6.413e-06
5.871e-06
5.335e-06
4.804e-06
4.278e-06
3.756e-06
3.236e-06
2.718e-06
2.201e-06
1.682e-06
1.16e-06
6.341e-07
1.558e-07
0.0002363
0.0002379
0.0002392
0.0002399
0.0002402
0.0002402
0.0002398
0.0002393
0.0002387
0.000238
0.0002373
0.0002366
0.0002359
0.0002352
0.0002345
0.0002339
0.0002332
0.0002326
0.0002319
0.0002313
0.0002306
0.0002299
0.0002293
0.0002286
0.0002279
0.0002271
0.0002264
0.0002256
0.0002249
0.0002241
0.0002232
0.0002224
0.0002215
0.0002206
0.0002196
0.0002187
0.0002176
0.0002166
0.0002155
0.0002143
0.0002131
0.0002118
0.0002104
0.000209
0.0002074
0.0002058
0.000204
0.000202
0.0001998
0.0001974
0.0001947
0.0001917
0.0001884
0.0001846
0.0001804
0.0001757
0.0001706
0.0001649
0.0001588
0.0001523
0.0001454
0.0001382
0.0001307
0.0001232
0.0001158
0.0001087
0.0001019
9.54e-05
8.918e-05
8.323e-05
7.756e-05
7.22e-05
6.717e-05
6.249e-05
5.819e-05
5.427e-05
5.072e-05
4.752e-05
4.465e-05
4.208e-05
3.976e-05
3.768e-05
3.578e-05
3.404e-05
3.244e-05
3.095e-05
2.955e-05
2.823e-05
2.698e-05
2.58e-05
2.467e-05
2.359e-05
2.255e-05
2.156e-05
2.061e-05
1.97e-05
1.882e-05
1.797e-05
1.715e-05
1.636e-05
1.56e-05
1.486e-05
1.414e-05
1.345e-05
1.277e-05
1.212e-05
1.148e-05
1.086e-05
1.025e-05
9.654e-06
9.071e-06
8.499e-06
7.938e-06
7.385e-06
6.841e-06
6.304e-06
5.774e-06
5.25e-06
4.731e-06
4.216e-06
3.704e-06
3.195e-06
2.688e-06
2.181e-06
1.674e-06
1.164e-06
6.5e-07
1.731e-07
0.0002349
0.0002364
0.0002376
0.0002384
0.0002388
0.0002389
0.0002387
0.0002383
0.0002378
0.0002372
0.0002366
0.000236
0.0002353
0.0002347
0.0002341
0.0002335
0.0002329
0.0002323
0.0002317
0.0002311
0.0002305
0.0002299
0.0002292
0.0002286
0.0002279
0.0002272
0.0002266
0.0002258
0.0002251
0.0002244
0.0002236
0.0002228
0.000222
0.0002211
0.0002203
0.0002194
0.0002184
0.0002174
0.0002164
0.0002153
0.0002142
0.0002131
0.0002118
0.0002105
0.0002091
0.0002076
0.0002059
0.0002042
0.0002022
0.0002
0.0001975
0.0001947
0.0001914
0.0001878
0.0001837
0.000179
0.0001738
0.000168
0.0001616
0.0001547
0.0001473
0.0001395
0.0001314
0.0001232
0.0001152
0.0001075
0.0001002
9.328e-05
8.673e-05
8.052e-05
7.465e-05
6.915e-05
6.404e-05
5.935e-05
5.507e-05
5.122e-05
4.777e-05
4.471e-05
4.199e-05
3.959e-05
3.746e-05
3.555e-05
3.382e-05
3.225e-05
3.079e-05
2.943e-05
2.816e-05
2.695e-05
2.581e-05
2.471e-05
2.367e-05
2.266e-05
2.17e-05
2.077e-05
1.988e-05
1.901e-05
1.818e-05
1.738e-05
1.661e-05
1.586e-05
1.513e-05
1.443e-05
1.374e-05
1.308e-05
1.243e-05
1.18e-05
1.119e-05
1.059e-05
1e-05
9.429e-06
8.865e-06
8.311e-06
7.767e-06
7.23e-06
6.701e-06
6.179e-06
5.663e-06
5.152e-06
4.646e-06
4.143e-06
3.644e-06
3.147e-06
2.652e-06
2.158e-06
1.663e-06
1.167e-06
6.668e-07
1.92e-07
0.0002337
0.0002351
0.0002363
0.0002371
0.0002376
0.0002377
0.0002376
0.0002374
0.000237
0.0002365
0.000236
0.0002354
0.0002349
0.0002343
0.0002337
0.0002332
0.0002326
0.0002321
0.0002315
0.0002309
0.0002304
0.0002298
0.0002292
0.0002286
0.000228
0.0002274
0.0002268
0.0002261
0.0002254
0.0002247
0.000224
0.0002233
0.0002226
0.0002218
0.000221
0.0002202
0.0002193
0.0002184
0.0002175
0.0002165
0.0002155
0.0002145
0.0002134
0.0002122
0.000211
0.0002096
0.0002082
0.0002066
0.0002049
0.0002029
0.0002007
0.0001981
0.0001952
0.0001917
0.0001878
0.0001832
0.000178
0.0001722
0.0001656
0.0001582
0.0001503
0.0001417
0.0001326
0.0001233
0.0001143
0.0001057
9.762e-05
9.021e-05
8.329e-05
7.682e-05
7.079e-05
6.521e-05
6.01e-05
5.546e-05
5.128e-05
4.756e-05
4.428e-05
4.141e-05
3.892e-05
3.674e-05
3.483e-05
3.313e-05
3.161e-05
3.022e-05
2.894e-05
2.774e-05
2.66e-05
2.552e-05
2.449e-05
2.35e-05
2.255e-05
2.163e-05
2.074e-05
1.988e-05
1.905e-05
1.825e-05
1.748e-05
1.673e-05
1.6e-05
1.529e-05
1.461e-05
1.394e-05
1.33e-05
1.267e-05
1.205e-05
1.145e-05
1.087e-05
1.029e-05
9.731e-06
9.179e-06
8.636e-06
8.103e-06
7.577e-06
7.058e-06
6.546e-06
6.04e-06
5.539e-06
5.043e-06
4.551e-06
4.062e-06
3.577e-06
3.093e-06
2.612e-06
2.131e-06
1.65e-06
1.169e-06
6.843e-07
2.121e-07
0.0002327
0.000234
0.0002352
0.000236
0.0002365
0.0002367
0.0002367
0.0002366
0.0002363
0.0002359
0.0002355
0.000235
0.0002345
0.000234
0.0002335
0.0002329
0.0002324
0.0002319
0.0002314
0.0002309
0.0002303
0.0002298
0.0002293
0.0002287
0.0002282
0.0002276
0.000227
0.0002264
0.0002258
0.0002252
0.0002245
0.0002239
0.0002232
0.0002225
0.0002218
0.000221
0.0002203
0.0002195
0.0002187
0.0002178
0.0002169
0.000216
0.0002151
0.0002141
0.000213
0.0002119
0.0002107
0.0002094
0.0002079
0.0002063
0.0002044
0.0002022
0.0001996
0.0001965
0.0001928
0.0001885
0.0001836
0.0001778
0.0001712
0.0001636
0.0001551
0.0001455
0.0001349
0.0001237
0.0001128
0.0001026
9.355e-05
8.555e-05
7.834e-05
7.175e-05
6.572e-05
6.02e-05
5.521e-05
5.074e-05
4.677e-05
4.327e-05
4.024e-05
3.764e-05
3.543e-05
3.353e-05
3.189e-05
3.046e-05
2.917e-05
2.8e-05
2.691e-05
2.588e-05
2.49e-05
2.396e-05
2.306e-05
2.218e-05
2.132e-05
2.05e-05
1.969e-05
1.891e-05
1.816e-05
1.742e-05
1.671e-05
1.601e-05
1.534e-05
1.468e-05
1.404e-05
1.342e-05
1.281e-05
1.222e-05
1.164e-05
1.107e-05
1.052e-05
9.972e-06
9.436e-06
8.908e-06
8.389e-06
7.877e-06
7.372e-06
6.872e-06
6.379e-06
5.89e-06
5.406e-06
4.925e-06
4.448e-06
3.975e-06
3.504e-06
3.035e-06
2.568e-06
2.101e-06
1.636e-06
1.17e-06
7.023e-07
2.333e-07
0.0002318
0.000233
0.0002342
0.000235
0.0002355
0.0002358
0.0002359
0.0002359
0.0002357
0.0002354
0.000235
0.0002346
0.0002341
0.0002337
0.0002332
0.0002327
0.0002323
0.0002318
0.0002313
0.0002308
0.0002303
0.0002298
0.0002293
0.0002288
0.0002283
0.0002278
0.0002273
0.0002267
0.0002262
0.0002256
0.0002251
0.0002245
0.0002239
0.0002232
0.0002226
0.000222
0.0002213
0.0002206
0.0002199
0.0002192
0.0002184
0.0002177
0.0002169
0.0002161
0.0002152
0.0002143
0.0002134
0.0002124
0.0002113
0.00021
0.0002085
0.0002067
0.0002045
0.0002019
0.0001988
0.000195
0.0001906
0.0001854
0.0001791
0.0001717
0.000163
0.0001526
0.0001394
0.0001243
0.0001097
9.688e-05
8.664e-05
7.833e-05
7.11e-05
6.478e-05
5.913e-05
5.396e-05
4.931e-05
4.518e-05
4.154e-05
3.838e-05
3.569e-05
3.344e-05
3.157e-05
3.002e-05
2.871e-05
2.757e-05
2.655e-05
2.562e-05
2.474e-05
2.391e-05
2.31e-05
2.23e-05
2.153e-05
2.077e-05
2.002e-05
1.93e-05
1.858e-05
1.789e-05
1.72e-05
1.654e-05
1.589e-05
1.526e-05
1.464e-05
1.403e-05
1.344e-05
1.287e-05
1.23e-05
1.175e-05
1.121e-05
1.067e-05
1.015e-05
9.632e-06
9.124e-06
8.623e-06
8.128e-06
7.639e-06
7.156e-06
6.677e-06
6.202e-06
5.732e-06
5.265e-06
4.801e-06
4.34e-06
3.882e-06
3.426e-06
2.973e-06
2.521e-06
2.07e-06
1.62e-06
1.17e-06
7.205e-07
2.551e-07
0.000231
0.0002322
0.0002333
0.0002341
0.0002347
0.0002351
0.0002352
0.0002352
0.0002351
0.0002349
0.0002346
0.0002342
0.0002339
0.0002334
0.000233
0.0002326
0.0002321
0.0002317
0.0002313
0.0002308
0.0002304
0.0002299
0.0002295
0.000229
0.0002285
0.0002281
0.0002276
0.0002271
0.0002266
0.0002261
0.0002256
0.0002251
0.0002246
0.000224
0.0002235
0.0002229
0.0002224
0.0002218
0.0002212
0.0002206
0.00022
0.0002194
0.0002187
0.0002181
0.0002175
0.0002168
0.0002162
0.0002155
0.0002147
0.0002139
0.0002128
0.0002116
0.00021
0.000208
0.0002055
0.0002026
0.0001991
0.000195
0.0001901
0.0001841
0.0001761
0.0001645
0.0001479
0.0001249
0.0001037
8.735e-05
7.602e-05
6.746e-05
6.071e-05
5.555e-05
5.085e-05
4.645e-05
4.246e-05
3.887e-05
3.57e-05
3.297e-05
3.07e-05
2.887e-05
2.742e-05
2.627e-05
2.532e-05
2.452e-05
2.38e-05
2.313e-05
2.248e-05
2.184e-05
2.121e-05
2.057e-05
1.994e-05
1.93e-05
1.867e-05
1.804e-05
1.742e-05
1.681e-05
1.621e-05
1.562e-05
1.504e-05
1.447e-05
1.391e-05
1.336e-05
1.282e-05
1.229e-05
1.177e-05
1.126e-05
1.075e-05
1.026e-05
9.766e-06
9.282e-06
8.803e-06
8.329e-06
7.859e-06
7.394e-06
6.933e-06
6.475e-06
6.02e-06
5.569e-06
5.12e-06
4.673e-06
4.229e-06
3.787e-06
3.347e-06
2.908e-06
2.472e-06
2.037e-06
1.603e-06
1.17e-06
7.388e-07
2.772e-07
0.0002304
0.0002315
0.0002326
0.0002334
0.000234
0.0002344
0.0002346
0.0002347
0.0002346
0.0002345
0.0002342
0.0002339
0.0002336
0.0002332
0.0002329
0.0002325
0.0002321
0.0002317
0.0002312
0.0002308
0.0002304
0.00023
0.0002296
0.0002292
0.0002288
0.0002284
0.0002279
0.0002275
0.0002271
0.0002266
0.0002262
0.0002258
0.0002253
0.0002248
0.0002244
0.0002239
0.0002234
0.000223
0.0002225
0.000222
0.0002216
0.0002211
0.0002206
0.0002202
0.0002198
0.0002194
0.000219
0.0002186
0.0002183
0.0002178
0.0002173
0.0002166
0.0002157
0.0002144
0.0002127
0.0002107
0.0002084
0.0002061
0.0002034
0.0001983
0.0001965
0.0001887
0.0001547
0.0001179
0.0001055
7.456e-05
5.673e-05
5.278e-05
4.965e-05
4.521e-05
4.115e-05
3.795e-05
3.488e-05
3.204e-05
2.945e-05
2.722e-05
2.542e-05
2.407e-05
2.309e-05
2.238e-05
2.184e-05
2.139e-05
2.099e-05
2.059e-05
2.017e-05
1.974e-05
1.928e-05
1.881e-05
1.831e-05
1.78e-05
1.729e-05
1.677e-05
1.624e-05
1.572e-05
1.52e-05
1.468e-05
1.417e-05
1.367e-05
1.317e-05
1.268e-05
1.219e-05
1.171e-05
1.123e-05
1.076e-05
1.03e-05
9.837e-06
9.38e-06
8.927e-06
8.477e-06
8.031e-06
7.587e-06
7.146e-06
6.708e-06
6.271e-06
5.837e-06
5.404e-06
4.973e-06
4.544e-06
4.116e-06
3.69e-06
3.266e-06
2.843e-06
2.422e-06
2.003e-06
1.586e-06
1.17e-06
7.568e-07
2.992e-07
0.0002298
0.0002309
0.0002319
0.0002328
0.0002334
0.0002338
0.0002341
0.0002342
0.0002342
0.0002341
0.0002339
0.0002337
0.0002334
0.0002331
0.0002327
0.0002324
0.000232
0.0002316
0.0002313
0.0002309
0.0002305
0.0002301
0.0002298
0.0002294
0.000229
0.0002286
0.0002283
0.0002279
0.0002275
0.0002272
0.0002268
0.0002264
0.000226
0.0002257
0.0002253
0.0002249
0.0002245
0.0002242
0.0002238
0.0002234
0.0002231
0.0002228
0.0002225
0.0002223
0.000222
0.0002219
0.0002218
0.0002217
0.0002217
0.0002217
0.0002217
0.0002216
0.0002213
0.0002206
0.0002196
0.0002183
0.0002171
0.0002162
0.0002163
0.0002105
0.000171
0.0001476
0.0001289
0.0001101
0.0001167
9.783e-05
9.271e-05
8.553e-05
4.37e-05
3.373e-05
3.294e-05
2.936e-05
2.704e-05
2.507e-05
2.308e-05
2.135e-05
2.004e-05
1.918e-05
1.87e-05
1.845e-05
1.834e-05
1.826e-05
1.818e-05
1.805e-05
1.787e-05
1.764e-05
1.736e-05
1.704e-05
1.669e-05
1.63e-05
1.59e-05
1.549e-05
1.506e-05
1.463e-05
1.419e-05
1.375e-05
1.331e-05
1.287e-05
1.243e-05
1.2e-05
1.156e-05
1.113e-05
1.07e-05
1.027e-05
9.844e-06
9.419e-06
8.996e-06
8.575e-06
8.155e-06
7.736e-06
7.318e-06
6.901e-06
6.485e-06
6.07e-06
5.655e-06
5.241e-06
4.828e-06
4.416e-06
4.005e-06
3.595e-06
3.186e-06
2.779e-06
2.373e-06
1.97e-06
1.568e-06
1.17e-06
7.743e-07
3.207e-07
0.0002294
0.0002304
0.0002314
0.0002322
0.0002329
0.0002333
0.0002336
0.0002338
0.0002339
0.0002338
0.0002337
0.0002335
0.0002332
0.000233
0.0002327
0.0002323
0.000232
0.0002317
0.0002313
0.000231