/*--------------------------------*- C++ -*----------------------------------*\
  =========                 |
  \\      /  F ield         | OpenFOAM: The Open Source CFD Toolbox
   \\    /   O peration     | Website:  https://openfoam.org
    \\  /    A nd           | Version:  7
     \\/     M anipulation  |
\*---------------------------------------------------------------------------*/
FoamFile
{
    version     2.0;
    format      ascii;
    class       surfaceScalarField;
    location    "1439.99947341967936";
    object      phi;
}
// * * * * * * * * * * * * * * * * * * * * * * * * * * * * * * * * * * * * * //

dimensions      [0 3 -1 0 0 0 0];

internalField   nonuniform List<scalar> 
8032
(
6.857e-10
2.518e-10
4.804e-10
2.053e-10
3.48e-10
1.324e-10
2.643e-10
8.372e-11
2.101e-10
5.416e-11
1.738e-10
3.637e-11
1.482e-10
2.551e-11
1.296e-10
1.865e-11
1.155e-10
1.414e-11
1.044e-10
1.103e-11
9.563e-11
8.799e-12
8.849e-11
7.137e-12
8.263e-11
5.861e-12
7.777e-11
4.855e-12
7.373e-11
4.045e-12
7.035e-11
3.38e-12
6.752e-11
2.825e-12
6.517e-11
2.354e-12
6.322e-11
1.948e-12
6.163e-11
1.594e-12
6.035e-11
1.28e-12
5.935e-11
9.985e-13
5.861e-11
7.418e-13
5.81e-11
5.046e-13
5.782e-11
2.82e-13
5.775e-11
7.016e-14
5.789e-11
-1.344e-13
5.822e-11
-3.345e-13
5.875e-11
-5.329e-13
5.948e-11
-7.319e-13
6.042e-11
-9.333e-13
6.156e-11
-1.139e-12
6.291e-11
-1.351e-12
6.448e-11
-1.569e-12
6.627e-11
-1.796e-12
6.831e-11
-2.032e-12
7.058e-11
-2.277e-12
7.311e-11
-2.532e-12
7.591e-11
-2.795e-12
7.898e-11
-3.067e-12
8.232e-11
-3.346e-12
8.595e-11
-3.629e-12
8.987e-11
-3.915e-12
9.407e-11
-4.2e-12
9.855e-11
-4.48e-12
1.033e-10
-4.749e-12
1.083e-10
-5.002e-12
1.135e-10
-5.231e-12
1.19e-10
-5.431e-12
1.245e-10
-5.591e-12
1.303e-10
-5.704e-12
1.36e-10
-5.762e-12
1.418e-10
-5.754e-12
1.474e-10
-5.674e-12
1.53e-10
-5.514e-12
1.582e-10
-5.269e-12
1.632e-10
-4.936e-12
1.677e-10
-4.514e-12
1.717e-10
-4.005e-12
1.751e-10
-3.417e-12
1.779e-10
-2.758e-12
1.799e-10
-2.042e-12
1.812e-10
-1.286e-12
1.817e-10
-5.064e-13
1.814e-10
2.764e-13
1.804e-10
1.044e-12
1.786e-10
1.78e-12
1.761e-10
2.468e-12
1.73e-10
3.098e-12
1.694e-10
3.66e-12
1.652e-10
4.149e-12
1.607e-10
4.562e-12
1.558e-10
4.897e-12
1.506e-10
5.157e-12
1.453e-10
5.344e-12
1.398e-10
5.461e-12
1.343e-10
5.515e-12
1.288e-10
5.51e-12
1.233e-10
5.454e-12
1.18e-10
5.352e-12
1.128e-10
5.211e-12
1.077e-10
5.038e-12
1.029e-10
4.84e-12
9.825e-11
4.621e-12
9.386e-11
4.388e-12
8.972e-11
4.146e-12
8.582e-11
3.898e-12
8.217e-11
3.65e-12
7.877e-11
3.404e-12
7.56e-11
3.163e-12
7.267e-11
2.928e-12
6.997e-11
2.703e-12
6.748e-11
2.487e-12
6.52e-11
2.283e-12
6.311e-11
2.09e-12
6.12e-11
1.908e-12
5.947e-11
1.739e-12
5.788e-11
1.581e-12
5.645e-11
1.434e-12
5.515e-11
1.299e-12
5.398e-11
1.174e-12
5.292e-11
1.059e-12
5.196e-11
9.543e-13
5.111e-11
8.583e-13
5.033e-11
7.707e-13
4.964e-11
6.909e-13
4.903e-11
6.185e-13
4.847e-11
5.528e-13
4.798e-11
4.934e-13
4.754e-11
4.397e-13
4.715e-11
3.914e-13
4.68e-11
3.479e-13
4.649e-11
3.091e-13
4.622e-11
2.744e-13
4.597e-11
2.438e-13
4.576e-11
2.168e-13
4.556e-11
1.935e-13
4.539e-11
1.737e-13
4.523e-11
1.574e-13
4.509e-11
1.447e-13
4.495e-11
1.361e-13
4.482e-11
1.321e-13
4.468e-11
1.339e-13
4.454e-11
1.437e-13
4.438e-11
1.657e-13
4.417e-11
2.068e-13
4.389e-11
2.747e-13
3.57e-13
9.523e-10
2.37e-10
8.501e-10
3.075e-10
7.275e-10
2.55e-10
6.183e-10
1.929e-10
5.294e-10
1.431e-10
4.592e-10
1.065e-10
4.042e-10
8.055e-11
3.607e-10
6.216e-11
3.259e-10
4.893e-11
2.977e-10
3.919e-11
2.747e-10
3.185e-11
2.556e-10
2.619e-11
2.398e-10
2.173e-11
2.265e-10
1.814e-11
2.153e-10
1.521e-11
2.059e-10
1.277e-11
1.98e-10
1.072e-11
1.914e-10
8.962e-12
1.859e-10
7.44e-12
1.814e-10
6.103e-12
1.778e-10
4.914e-12
1.749e-10
3.842e-12
1.728e-10
2.863e-12
1.714e-10
1.955e-12
1.705e-10
1.102e-12
1.703e-10
2.902e-13
1.707e-10
-4.941e-13
1.716e-10
-1.261e-12
1.731e-10
-2.021e-12
1.751e-10
-2.781e-12
1.778e-10
-3.55e-12
1.809e-10
-4.334e-12
1.847e-10
-5.137e-12
1.891e-10
-5.965e-12
1.942e-10
-6.822e-12
1.998e-10
-7.709e-12
2.062e-10
-8.629e-12
2.132e-10
-9.581e-12
2.21e-10
-1.056e-11
2.295e-10
-1.157e-11
2.388e-10
-1.26e-11
2.488e-10
-1.365e-11
2.596e-10
-1.47e-11
2.711e-10
-1.574e-11
2.834e-10
-1.676e-11
2.964e-10
-1.773e-11
3.1e-10
-1.864e-11
3.242e-10
-1.946e-11
3.389e-10
-2.016e-11
3.541e-10
-2.071e-11
3.695e-10
-2.109e-11
3.85e-10
-2.127e-11
4.004e-10
-2.12e-11
4.156e-10
-2.087e-11
4.303e-10
-2.025e-11
4.444e-10
-1.933e-11
4.575e-10
-1.808e-11
4.696e-10
-1.652e-11
4.802e-10
-1.465e-11
4.893e-10
-1.249e-11
4.966e-10
-1.009e-11
5.021e-10
-7.486e-12
5.055e-10
-4.735e-12
5.069e-10
-1.903e-12
5.062e-10
9.439e-13
5.035e-10
3.74e-12
4.989e-10
6.425e-12
4.924e-10
8.946e-12
4.842e-10
1.126e-11
4.746e-10
1.334e-11
4.636e-10
1.515e-11
4.514e-10
1.669e-11
4.384e-10
1.796e-11
4.246e-10
1.895e-11
4.103e-10
1.967e-11
3.956e-10
2.014e-11
3.807e-10
2.038e-11
3.658e-10
2.04e-11
3.511e-10
2.023e-11
3.365e-10
1.989e-11
3.223e-10
1.941e-11
3.086e-10
1.88e-11
2.953e-10
1.809e-11
2.826e-10
1.731e-11
2.705e-10
1.647e-11
2.591e-10
1.559e-11
2.483e-10
1.469e-11
2.382e-10
1.378e-11
2.287e-10
1.288e-11
2.199e-10
1.199e-11
2.117e-10
1.112e-11
2.041e-10
1.029e-11
1.971e-10
9.483e-12
1.906e-10
8.719e-12
1.847e-10
7.996e-12
1.793e-10
7.315e-12
1.744e-10
6.678e-12
1.699e-10
6.082e-12
1.658e-10
5.529e-12
1.621e-10
5.016e-12
1.587e-10
4.543e-12
1.557e-10
4.107e-12
1.529e-10
3.707e-12
1.504e-10
3.34e-12
1.482e-10
3.005e-12
1.462e-10
2.7e-12
1.444e-10
2.421e-12
1.428e-10
2.169e-12
1.413e-10
1.94e-12
1.4e-10
1.733e-12
1.389e-10
1.546e-12
1.378e-10
1.378e-12
1.369e-10
1.227e-12
1.361e-10
1.093e-12
1.354e-10
9.736e-13
1.347e-10
8.685e-13
1.341e-10
7.772e-13
1.336e-10
6.993e-13
1.331e-10
6.346e-13
1.327e-10
5.837e-13
1.323e-10
5.472e-13
1.319e-10
5.267e-13
1.315e-10
5.244e-13
1.311e-10
5.442e-13
1.307e-10
5.913e-13
1.302e-10
6.72e-13
1.297e-10
7.852e-13
8.92e-13
9.779e-10
1.966e-10
9.637e-10
3.217e-10
9.013e-10
3.175e-10
8.212e-10
2.73e-10
7.409e-10
2.233e-10
6.68e-10
1.795e-10
6.046e-10
1.439e-10
5.507e-10
1.161e-10
5.052e-10
9.44e-11
4.669e-10
7.75e-11
4.346e-10
6.417e-11
4.073e-10
5.352e-11
3.841e-10
4.489e-11
3.645e-10
3.781e-11
3.478e-10
3.192e-11
3.336e-10
2.696e-11
3.216e-10
2.272e-11
3.115e-10
1.907e-11
3.03e-10
1.588e-11
2.961e-10
1.306e-11
2.904e-10
1.054e-11
2.86e-10
8.254e-12
2.827e-10
6.158e-12
2.805e-10
4.21e-12
2.792e-10
2.376e-12
2.789e-10
6.252e-13
2.794e-10
-1.067e-12
2.809e-10
-2.723e-12
2.832e-10
-4.363e-12
2.865e-10
-6.004e-12
2.906e-10
-7.661e-12
2.956e-10
-9.348e-12
3.015e-10
-1.108e-11
3.084e-10
-1.285e-11
3.163e-10
-1.469e-11
3.252e-10
-1.659e-11
3.351e-10
-1.855e-11
3.461e-10
-2.058e-11
3.582e-10
-2.267e-11
3.714e-10
-2.481e-11
3.858e-10
-2.699e-11
4.014e-10
-2.92e-11
4.181e-10
-3.141e-11
4.359e-10
-3.359e-11
4.549e-10
-3.572e-11
4.749e-10
-3.775e-11
4.959e-10
-3.964e-11
5.178e-10
-4.134e-11
5.404e-10
-4.278e-11
5.636e-10
-4.391e-11
5.872e-10
-4.467e-11
6.109e-10
-4.499e-11
6.345e-10
-4.481e-11
6.577e-10
-4.408e-11
6.802e-10
-4.274e-11
7.017e-10
-4.075e-11
7.217e-10
-3.811e-11
7.4e-10
-3.48e-11
7.562e-10
-3.086e-11
7.7e-10
-2.632e-11
7.812e-10
-2.127e-11
7.895e-10
-1.58e-11
7.948e-10
-1.003e-11
7.97e-10
-4.083e-12
7.96e-10
1.894e-12
7.92e-10
7.769e-12
7.85e-10
1.342e-11
7.752e-10
1.873e-11
7.629e-10
2.361e-11
7.482e-10
2.8e-11
7.315e-10
3.185e-11
7.131e-10
3.513e-11
6.932e-10
3.784e-11
6.722e-10
3.997e-11
6.503e-10
4.154e-11
6.278e-10
4.259e-11
6.051e-10
4.314e-11
5.822e-10
4.324e-11
5.595e-10
4.293e-11
5.371e-10
4.227e-11
5.153e-10
4.129e-11
4.94e-10
4.004e-11
4.735e-10
3.859e-11
4.539e-10
3.697e-11
4.351e-10
3.522e-11
4.173e-10
3.338e-11
4.005e-10
3.149e-11
3.848e-10
2.958e-11
3.7e-10
2.767e-11
3.562e-10
2.579e-11
3.433e-10
2.396e-11
3.314e-10
2.219e-11
3.204e-10
2.048e-11
3.103e-10
1.886e-11
3.01e-10
1.731e-11
2.924e-10
1.586e-11
2.846e-10
1.45e-11
2.775e-10
1.322e-11
2.71e-10
1.203e-11
2.65e-10
1.093e-11
2.597e-10
9.912e-12
2.548e-10
8.973e-12
2.504e-10
8.11e-12
2.464e-10
7.318e-12
2.428e-10
6.593e-12
2.396e-10
5.931e-12
2.367e-10
5.328e-12
2.341e-10
4.779e-12
2.318e-10
4.281e-12
2.297e-10
3.831e-12
2.278e-10
3.423e-12
2.261e-10
3.056e-12
2.246e-10
2.727e-12
2.233e-10
2.432e-12
2.221e-10
2.171e-12
2.21e-10
1.94e-12
2.2e-10
1.738e-12
2.192e-10
1.565e-12
2.184e-10
1.42e-12
2.177e-10
1.304e-12
2.17e-10
1.217e-12
2.164e-10
1.161e-12
2.157e-10
1.139e-12
2.151e-10
1.154e-12
2.145e-10
1.208e-12
2.139e-10
1.303e-12
2.132e-10
1.425e-12
1.524e-12
9.752e-10
1.589e-10
9.93e-10
3.039e-10
9.728e-10
3.377e-10
9.269e-10
3.19e-10
8.69e-10
2.812e-10
8.084e-10
2.4e-10
7.503e-10
2.02e-10
6.971e-10
1.693e-10
6.497e-10
1.419e-10
6.08e-10
1.192e-10
5.715e-10
1.006e-10
5.399e-10
8.513e-11
5.126e-10
7.225e-11
4.89e-10
6.144e-11
4.686e-10
5.227e-11
4.511e-10
4.442e-11
4.362e-10
3.764e-11
4.236e-10
3.172e-11
4.13e-10
2.65e-11
4.042e-10
2.186e-11
3.97e-10
1.767e-11
3.914e-10
1.386e-11
3.872e-10
1.034e-11
3.844e-10
7.059e-12
3.828e-10
3.959e-12
3.824e-10
9.929e-13
3.833e-10
-1.88e-12
3.852e-10
-4.695e-12
3.884e-10
-7.484e-12
3.926e-10
-1.028e-11
3.981e-10
-1.31e-11
4.047e-10
-1.596e-11
4.125e-10
-1.89e-11
4.216e-10
-2.191e-11
4.319e-10
-2.502e-11
4.435e-10
-2.823e-11
4.565e-10
-3.155e-11
4.709e-10
-3.497e-11
4.867e-10
-3.848e-11
5.04e-10
-4.208e-11
5.228e-10
-4.574e-11
5.43e-10
-4.944e-11
5.647e-10
-5.313e-11
5.879e-10
-5.678e-11
6.125e-10
-6.032e-11
6.385e-10
-6.369e-11
6.656e-10
-6.682e-11
6.939e-10
-6.961e-11
7.231e-10
-7.198e-11
7.53e-10
-7.383e-11
7.834e-10
-7.505e-11
8.14e-10
-7.554e-11
8.443e-10
-7.519e-11
8.742e-10
-7.392e-11
9.031e-10
-7.163e-11
9.306e-10
-6.828e-11
9.563e-10
-6.383e-11
9.798e-10
-5.829e-11
1.001e-09
-5.168e-11
1.018e-09
-4.409e-11
1.033e-09
-3.565e-11
1.043e-09
-2.651e-11
1.05e-09
-1.686e-11
1.053e-09
-6.936e-12
1.052e-09
3.049e-12
1.047e-09
1.287e-11
1.038e-09
2.231e-11
1.026e-09
3.12e-11
1.01e-09
3.938e-11
9.91e-10
4.675e-11
9.697e-10
5.322e-11
9.46e-10
5.876e-11
9.205e-10
6.334e-11
8.935e-10
6.696e-11
8.654e-10
6.966e-11
8.365e-10
7.148e-11
8.072e-10
7.247e-11
7.778e-10
7.27e-11
7.484e-10
7.225e-11
7.195e-10
7.119e-11
6.912e-10
6.961e-11
6.637e-10
6.758e-11
6.371e-10
6.519e-11
6.115e-10
6.251e-11
5.871e-10
5.961e-11
5.639e-10
5.656e-11
5.42e-10
5.342e-11
5.214e-10
5.023e-11
5.02e-10
4.704e-11
4.839e-10
4.389e-11
4.67e-10
4.082e-11
4.514e-10
3.783e-11
4.369e-10
3.496e-11
4.235e-10
3.222e-11
4.112e-10
2.962e-11
3.999e-10
2.716e-11
3.896e-10
2.485e-11
3.801e-10
2.269e-11
3.714e-10
2.068e-11
3.636e-10
1.881e-11
3.564e-10
1.707e-11
3.499e-10
1.547e-11
3.44e-10
1.4e-11
3.387e-10
1.265e-11
3.339e-10
1.141e-11
3.295e-10
1.027e-11
3.256e-10
9.241e-12
3.221e-10
8.3e-12
3.189e-10
7.445e-12
3.161e-10
6.67e-12
3.136e-10
5.968e-12
3.113e-10
5.336e-12
3.092e-10
4.767e-12
3.074e-10
4.258e-12
3.058e-10
3.804e-12
3.043e-10
3.403e-12
3.03e-10
3.052e-12
3.018e-10
2.749e-12
3.007e-10
2.492e-12
2.998e-10
2.283e-12
2.989e-10
2.12e-12
2.98e-10
2.005e-12
2.972e-10
1.941e-12
2.964e-10
1.927e-12
2.957e-10
1.965e-12
2.949e-10
2.047e-12
2.942e-10
2.154e-12
2.236e-12
9.668e-10
1.296e-10
9.944e-10
2.762e-10
9.979e-10
3.342e-10
9.781e-10
3.388e-10
9.425e-10
3.167e-10
8.987e-10
2.839e-10
8.519e-10
2.488e-10
8.056e-10
2.155e-10
7.619e-10
1.856e-10
7.217e-10
1.594e-10
6.854e-10
1.369e-10
6.529e-10
1.176e-10
6.242e-10
1.01e-10
5.989e-10
8.673e-11
5.768e-10
7.438e-11
5.576e-10
6.364e-11
5.41e-10
5.422e-11
5.268e-10
4.59e-11
5.148e-10
3.849e-11
5.048e-10
3.183e-11
4.967e-10
2.578e-11
4.903e-10
2.023e-11
4.856e-10
1.509e-11
4.824e-10
1.026e-11
4.807e-10
5.688e-12
4.804e-10
1.295e-12
4.815e-10
-2.97e-12
4.839e-10
-7.157e-12
4.877e-10
-1.131e-11
4.929e-10
-1.547e-11
4.995e-10
-1.967e-11
5.075e-10
-2.395e-11
5.169e-10
-2.832e-11
5.278e-10
-3.281e-11
5.402e-10
-3.743e-11
5.542e-10
-4.22e-11
5.698e-10
-4.712e-11
5.87e-10
-5.219e-11
6.059e-10
-5.739e-11
6.265e-10
-6.271e-11
6.489e-10
-6.811e-11
6.73e-10
-7.356e-11
6.989e-10
-7.899e-11
7.264e-10
-8.435e-11
7.557e-10
-8.955e-11
7.865e-10
-9.448e-11
8.187e-10
-9.906e-11
8.522e-10
-1.031e-10
8.868e-10
-1.066e-10
9.222e-10
-1.093e-10
9.582e-10
-1.11e-10
9.943e-10
-1.117e-10
1.03e-09
-1.111e-10
1.066e-09
-1.092e-10
1.1e-09
-1.058e-10
1.132e-09
-1.008e-10
1.163e-09
-9.426e-11
1.19e-09
-8.607e-11
1.215e-09
-7.632e-11
1.236e-09
-6.513e-11
1.253e-09
-5.268e-11
1.266e-09
-3.921e-11
1.274e-09
-2.499e-11
1.277e-09
-1.036e-11
1.276e-09
4.362e-12
1.27e-09
1.884e-11
1.26e-09
3.276e-11
1.245e-09
4.588e-11
1.226e-09
5.796e-11
1.204e-09
6.885e-11
1.179e-09
7.842e-11
1.151e-09
8.663e-11
1.121e-09
9.343e-11
1.089e-09
9.883e-11
1.056e-09
1.029e-10
1.022e-09
1.056e-10
9.873e-10
1.072e-10
9.524e-10
1.076e-10
9.177e-10
1.07e-10
8.833e-10
1.055e-10
8.497e-10
1.032e-10
8.17e-10
1.003e-10
7.854e-10
9.683e-11
7.549e-10
9.293e-11
7.259e-10
8.869e-11
6.982e-10
8.422e-11
6.72e-10
7.961e-11
6.473e-10
7.492e-11
6.241e-10
7.023e-11
6.024e-10
6.559e-11
5.822e-10
6.105e-11
5.634e-10
5.664e-11
5.459e-10
5.24e-11
5.298e-10
4.834e-11
5.15e-10
4.447e-11
5.013e-10
4.082e-11
4.888e-10
3.739e-11
4.773e-10
3.417e-11
4.668e-10
3.117e-11
4.572e-10
2.837e-11
4.485e-10
2.578e-11
4.406e-10
2.339e-11
4.334e-10
2.119e-11
4.269e-10
1.916e-11
4.21e-10
1.73e-11
4.157e-10
1.56e-11
4.109e-10
1.404e-11
4.066e-10
1.263e-11
4.027e-10
1.134e-11
3.992e-10
1.017e-11
3.96e-10
9.11e-12
3.932e-10
8.154e-12
3.907e-10
7.293e-12
3.884e-10
6.521e-12
3.864e-10
5.832e-12
3.846e-10
5.221e-12
3.83e-10
4.684e-12
3.815e-10
4.217e-12
3.802e-10
3.82e-12
3.79e-10
3.489e-12
3.778e-10
3.225e-12
3.768e-10
3.027e-12
3.759e-10
2.895e-12
3.75e-10
2.83e-12
3.741e-10
2.826e-12
3.733e-10
2.874e-12
3.725e-10
2.951e-12
3.013e-12
9.592e-10
1.079e-10
9.875e-10
2.478e-10
1.003e-09
3.19e-10
1e-09
3.413e-10
9.826e-10
3.343e-10
9.545e-10
3.12e-10
9.204e-10
2.829e-10
8.838e-10
2.522e-10
8.469e-10
2.224e-10
8.113e-10
1.95e-10
7.78e-10
1.703e-10
7.472e-10
1.483e-10
7.193e-10
1.289e-10
6.943e-10
1.118e-10
6.72e-10
9.665e-11
6.524e-10
8.325e-11
6.353e-10
7.133e-11
6.206e-10
6.067e-11
6.08e-10
5.106e-11
5.975e-10
4.233e-11
5.889e-10
3.434e-11
5.822e-10
2.696e-11
5.772e-10
2.008e-11
5.739e-10
1.358e-11
5.722e-10
7.394e-12
5.72e-10
1.432e-12
5.735e-10
-4.374e-12
5.764e-10
-1.009e-11
5.808e-10
-1.577e-11
5.868e-10
-2.146e-11
5.944e-10
-2.721e-11
6.035e-10
-3.306e-11
6.142e-10
-3.905e-11
6.266e-10
-4.519e-11
6.407e-10
-5.152e-11
6.565e-10
-5.804e-11
6.742e-10
-6.476e-11
6.936e-10
-7.167e-11
7.15e-10
-7.877e-11
7.383e-10
-8.601e-11
7.636e-10
-9.336e-11
7.908e-10
-1.008e-10
8.199e-10
-1.081e-10
8.51e-10
-1.154e-10
8.839e-10
-1.225e-10
9.185e-10
-1.291e-10
9.548e-10
-1.353e-10
9.925e-10
-1.408e-10
1.031e-09
-1.455e-10
1.071e-09
-1.491e-10
1.112e-09
-1.514e-10
1.152e-09
-1.523e-10
1.193e-09
-1.515e-10
1.232e-09
-1.489e-10
1.271e-09
-1.443e-10
1.308e-09
-1.375e-10
1.342e-09
-1.285e-10
1.373e-09
-1.174e-10
1.401e-09
-1.041e-10
1.425e-09
-8.889e-11
1.444e-09
-7.193e-11
1.458e-09
-5.357e-11
1.468e-09
-3.419e-11
1.471e-09
-1.425e-11
1.47e-09
5.815e-12
1.463e-09
2.554e-11
1.452e-09
4.451e-11
1.435e-09
6.238e-11
1.414e-09
7.884e-11
1.389e-09
9.368e-11
1.361e-09
1.067e-10
1.33e-09
1.179e-10
1.296e-09
1.272e-10
1.26e-09
1.346e-10
1.223e-09
1.402e-10
1.184e-09
1.44e-10
1.145e-09
1.462e-10
1.106e-09
1.468e-10
1.067e-09
1.461e-10
1.028e-09
1.441e-10
9.906e-10
1.411e-10
9.537e-10
1.372e-10
9.18e-10
1.325e-10
8.837e-10
1.273e-10
8.509e-10
1.215e-10
8.196e-10
1.155e-10
7.9e-10
1.092e-10
7.62e-10
1.029e-10
7.357e-10
9.651e-11
7.111e-10
9.02e-11
6.882e-10
8.402e-11
6.668e-10
7.801e-11
6.47e-10
7.222e-11
6.286e-10
6.668e-11
6.117e-10
6.14e-11
5.961e-10
5.641e-11
5.818e-10
5.171e-11
5.687e-10
4.73e-11
5.567e-10
4.318e-11
5.457e-10
3.934e-11
5.357e-10
3.578e-11
5.266e-10
3.249e-11
5.183e-10
2.945e-11
5.108e-10
2.666e-11
5.04e-10
2.409e-11
4.979e-10
2.174e-11
4.923e-10
1.96e-11
4.873e-10
1.764e-11
4.828e-10
1.585e-11
4.787e-10
1.423e-11
4.751e-10
1.276e-11
4.718e-10
1.143e-11
4.689e-10
1.024e-11
4.662e-10
9.161e-12
4.639e-10
8.199e-12
4.617e-10
7.344e-12
4.598e-10
6.589e-12
4.581e-10
5.931e-12
4.566e-10
5.365e-12
4.552e-10
4.887e-12
4.539e-10
4.497e-12
4.527e-10
4.193e-12
4.517e-10
3.972e-12
4.507e-10
3.832e-12
4.497e-10
3.766e-12
4.488e-10
3.763e-12
4.48e-10
3.8e-12
3.837e-12
9.536e-10
9.184e-11
9.795e-10
2.219e-10
9.996e-10
2.989e-10
1.008e-09
3.334e-10
1.003e-09
3.39e-10
9.878e-10
3.269e-10
9.656e-10
3.051e-10
9.389e-10
2.789e-10
9.1e-10
2.513e-10
8.806e-10
2.244e-10
8.519e-10
1.99e-10
8.246e-10
1.756e-10
7.992e-10
1.543e-10
7.759e-10
1.351e-10
7.547e-10
1.178e-10
7.359e-10
1.021e-10
7.192e-10
8.799e-11
7.047e-10
7.517e-11
6.923e-10
6.349e-11
6.818e-10
5.277e-11
6.733e-10
4.287e-11
6.666e-10
3.366e-11
6.617e-10
2.5e-11
6.585e-10
1.678e-11
6.57e-10
8.919e-12
6.571e-10
1.31e-12
6.589e-10
-6.125e-12
6.622e-10
-1.346e-11
6.672e-10
-2.077e-11
6.739e-10
-2.81e-11
6.822e-10
-3.552e-11
6.922e-10
-4.307e-11
7.039e-10
-5.079e-11
7.175e-10
-5.872e-11
7.328e-10
-6.689e-11
7.501e-10
-7.53e-11
7.693e-10
-8.396e-11
7.905e-10
-9.286e-11
8.137e-10
-1.02e-10
8.39e-10
-1.113e-10
8.664e-10
-1.208e-10
8.959e-10
-1.303e-10
9.275e-10
-1.398e-10
9.612e-10
-1.491e-10
9.969e-10
-1.581e-10
1.034e-09
-1.667e-10
1.074e-09
-1.747e-10
1.115e-09
-1.817e-10
1.157e-09
-1.877e-10
1.2e-09
-1.923e-10
1.244e-09
-1.953e-10
1.288e-09
-1.965e-10
1.332e-09
-1.955e-10
1.375e-09
-1.921e-10
1.417e-09
-1.862e-10
1.457e-09
-1.775e-10
1.495e-09
-1.66e-10
1.529e-09
-1.516e-10
1.559e-09
-1.345e-10
1.585e-09
-1.149e-10
1.606e-09
-9.299e-11
1.622e-09
-6.929e-11
1.632e-09
-4.426e-11
1.636e-09
-1.85e-11
1.635e-09
7.412e-12
1.627e-09
3.288e-11
1.615e-09
5.735e-11
1.597e-09
8.039e-11
1.574e-09
1.016e-10
1.547e-09
1.207e-10
1.516e-09
1.375e-10
1.482e-09
1.52e-10
1.445e-09
1.64e-10
1.406e-09
1.735e-10
1.366e-09
1.807e-10
1.324e-09
1.857e-10
1.282e-09
1.885e-10
1.239e-09
1.894e-10
1.197e-09
1.885e-10
1.155e-09
1.861e-10
1.114e-09
1.822e-10
1.074e-09
1.772e-10
1.035e-09
1.713e-10
9.975e-10
1.646e-10
9.618e-10
1.572e-10
9.278e-10
1.495e-10
8.956e-10
1.415e-10
8.651e-10
1.333e-10
8.365e-10
1.251e-10
8.097e-10
1.17e-10
7.846e-10
1.091e-10
7.613e-10
1.013e-10
7.396e-10
9.389e-11
7.196e-10
8.674e-11
7.01e-10
7.993e-11
6.84e-10
7.348e-11
6.683e-10
6.741e-11
6.539e-10
6.17e-11
6.407e-10
5.637e-11
6.286e-10
5.14e-11
6.176e-10
4.679e-11
6.076e-10
4.252e-11
5.985e-10
3.857e-11
5.902e-10
3.494e-11
5.827e-10
3.161e-11
5.759e-10
2.855e-11
5.697e-10
2.575e-11
5.642e-10
2.319e-11
5.591e-10
2.087e-11
5.546e-10
1.875e-11
5.506e-10
1.683e-11
5.469e-10
1.509e-11
5.436e-10
1.352e-11
5.407e-10
1.211e-11
5.38e-10
1.084e-11
5.357e-10
9.716e-12
5.335e-10
8.718e-12
5.316e-10
7.843e-12
5.299e-10
7.085e-12
5.283e-10
6.439e-12
5.269e-10
5.902e-12
5.257e-10
5.471e-12
5.245e-10
5.141e-12
5.234e-10
4.907e-12
5.224e-10
4.763e-12
5.215e-10
4.695e-12
5.206e-10
4.683e-12
4.694e-12
9.498e-10
7.956e-11
9.725e-10
1.993e-10
9.939e-10
2.775e-10
1.008e-09
3.197e-10
1.012e-09
3.349e-10
1.007e-09
3.319e-10
9.944e-10
3.174e-10
9.769e-10
2.964e-10
9.56e-10
2.722e-10
9.334e-10
2.47e-10
9.102e-10
2.222e-10
8.873e-10
1.985e-10
8.653e-10
1.763e-10
8.447e-10
1.557e-10
8.257e-10
1.368e-10
8.084e-10
1.194e-10
7.93e-10
1.034e-10
7.794e-10
8.873e-11
7.677e-10
7.52e-11
7.579e-10
6.265e-11
7.498e-10
5.095e-11
7.435e-10
3.997e-11
7.389e-10
2.958e-11
7.36e-10
1.967e-11
7.348e-10
1.013e-11
7.352e-10
8.54e-13
7.374e-10
-8.24e-12
7.411e-10
-1.724e-11
7.466e-10
-2.622e-11
7.537e-10
-3.525e-11
7.626e-10
-4.44e-11
7.733e-10
-5.372e-11
7.857e-10
-6.326e-11
8.001e-10
-7.305e-11
8.163e-10
-8.313e-11
8.345e-10
-9.352e-11
8.548e-10
-1.042e-10
8.771e-10
-1.152e-10
9.016e-10
-1.265e-10
9.282e-10
-1.38e-10
9.571e-10
-1.496e-10
9.882e-10
-1.614e-10
1.021e-09
-1.731e-10
1.057e-09
-1.846e-10
1.095e-09
-1.957e-10
1.134e-09
-2.063e-10
1.176e-09
-2.161e-10
1.219e-09
-2.249e-10
1.263e-09
-2.323e-10
1.309e-09
-2.38e-10
1.355e-09
-2.418e-10
1.402e-09
-2.432e-10
1.449e-09
-2.421e-10
1.495e-09
-2.38e-10
1.539e-09
-2.307e-10
1.582e-09
-2.2e-10
1.622e-09
-2.058e-10
1.658e-09
-1.881e-10
1.691e-09
-1.67e-10
1.718e-09
-1.427e-10
1.741e-09
-1.155e-10
1.758e-09
-8.61e-11
1.768e-09
-5.501e-11
1.773e-09
-2.3e-11
1.771e-09
9.17e-12
1.763e-09
4.077e-11
1.75e-09
7.111e-11
1.73e-09
9.963e-11
1.706e-09
1.259e-10
1.677e-09
1.495e-10
1.644e-09
1.703e-10
1.608e-09
1.881e-10
1.569e-09
2.029e-10
1.528e-09
2.147e-10
1.485e-09
2.236e-10
1.441e-09
2.298e-10
1.396e-09
2.333e-10
1.351e-09
2.344e-10
1.307e-09
2.334e-10
1.262e-09
2.304e-10
1.219e-09
2.257e-10
1.177e-09
2.196e-10
1.136e-09
2.122e-10
1.096e-09
2.039e-10
1.058e-09
1.949e-10
1.023e-09
1.854e-10
9.885e-10
1.755e-10
9.563e-10
1.655e-10
9.261e-10
1.554e-10
8.977e-10
1.454e-10
8.712e-10
1.356e-10
8.466e-10
1.26e-10
8.236e-10
1.168e-10
8.024e-10
1.08e-10
7.827e-10
9.957e-11
7.646e-10
9.159e-11
7.48e-10
8.407e-11
7.327e-10
7.7e-11
7.186e-10
7.039e-11
7.058e-10
6.423e-11
6.941e-10
5.851e-11
6.834e-10
5.32e-11
6.737e-10
4.83e-11
6.648e-10
4.379e-11
6.568e-10
3.964e-11
6.495e-10
3.583e-11
6.429e-10
3.234e-11
6.37e-10
2.915e-11
6.316e-10
2.625e-11
6.267e-10
2.36e-11
6.224e-10
2.12e-11
6.184e-10
1.902e-11
6.149e-10
1.706e-11
6.117e-10
1.528e-11
6.089e-10
1.369e-11
6.063e-10
1.227e-11
6.04e-10
1.101e-11
6.019e-10
9.903e-12
6.001e-10
8.935e-12
5.984e-10
8.103e-12
5.969e-10
7.402e-12
5.956e-10
6.827e-12
5.943e-10
6.372e-12
5.932e-10
6.03e-12
5.922e-10
5.795e-12
5.912e-10
5.652e-12
5.903e-10
5.585e-12
5.567e-12
9.472e-10
6.989e-11
9.668e-10
1.796e-10
9.879e-10
2.564e-10
1.005e-09
3.03e-10
1.014e-09
3.252e-10
1.017e-09
3.296e-10
1.012e-09
3.218e-10
1.003e-09
3.061e-10
9.891e-10
2.857e-10
9.73e-10
2.631e-10
9.555e-10
2.398e-10
9.374e-10
2.166e-10
9.194e-10
1.942e-10
9.021e-10
1.73e-10
8.859e-10
1.531e-10
8.708e-10
1.344e-10
8.572e-10
1.17e-10
8.451e-10
1.008e-10
8.346e-10
8.572e-11
8.257e-10
7.156e-11
8.184e-10
5.824e-11
8.127e-10
4.563e-11
8.087e-10
3.361e-11
8.063e-10
2.208e-11
8.055e-10
1.091e-11
8.063e-10
1.269e-14
8.088e-10
-1.072e-11
8.129e-10
-2.137e-11
8.187e-10
-3.202e-11
8.262e-10
-4.276e-11
8.355e-10
-5.365e-11
8.465e-10
-6.476e-11
8.594e-10
-7.614e-11
8.742e-10
-8.782e-11
8.909e-10
-9.986e-11
9.097e-10
-1.123e-10
9.305e-10
-1.25e-10
9.534e-10
-1.382e-10
9.786e-10
-1.516e-10
1.006e-09
-1.653e-10
1.036e-09
-1.793e-10
1.067e-09
-1.933e-10
1.102e-09
-2.073e-10
1.138e-09
-2.21e-10
1.177e-09
-2.344e-10
1.218e-09
-2.471e-10
1.26e-09
-2.588e-10
1.305e-09
-2.693e-10
1.351e-09
-2.782e-10
1.398e-09
-2.852e-10
1.446e-09
-2.898e-10
1.494e-09
-2.917e-10
1.543e-09
-2.904e-10
1.59e-09
-2.857e-10
1.637e-09
-2.771e-10
1.681e-09
-2.644e-10
1.723e-09
-2.475e-10
1.761e-09
-2.264e-10
1.795e-09
-2.011e-10
1.824e-09
-1.718e-10
1.848e-09
-1.392e-10
1.866e-09
-1.037e-10
1.877e-09
-6.626e-11
1.882e-09
-2.766e-11
1.88e-09
1.112e-11
1.871e-09
4.916e-11
1.857e-09
8.564e-11
1.836e-09
1.199e-10
1.811e-09
1.513e-10
1.781e-09
1.796e-10
1.747e-09
2.044e-10
1.709e-09
2.257e-10
1.669e-09
2.434e-10
1.626e-09
2.575e-10
1.582e-09
2.681e-10
1.536e-09
2.754e-10
1.49e-09
2.796e-10
1.443e-09
2.81e-10
1.397e-09
2.797e-10
1.351e-09
2.761e-10
1.306e-09
2.705e-10
1.262e-09
2.632e-10
1.22e-09
2.545e-10
1.18e-09
2.446e-10
1.141e-09
2.338e-10
1.104e-09
2.224e-10
1.069e-09
2.106e-10
1.036e-09
1.986e-10
1.004e-09
1.866e-10
9.751e-10
1.746e-10
9.478e-10
1.629e-10
9.224e-10
1.515e-10
8.987e-10
1.405e-10
8.768e-10
1.299e-10
8.566e-10
1.198e-10
8.379e-10
1.103e-10
8.207e-10
1.013e-10
8.049e-10
9.282e-11
7.904e-10
8.49e-11
7.771e-10
7.751e-11
7.65e-10
7.064e-11
7.539e-10
6.428e-11
7.438e-10
5.839e-11
7.346e-10
5.297e-11
7.263e-10
4.798e-11
7.187e-10
4.339e-11
7.118e-10
3.92e-11
7.056e-10
3.536e-11
7e-10
3.185e-11
6.95e-10
2.866e-11
6.904e-10
2.576e-11
6.863e-10
2.313e-11
6.826e-10
2.075e-11
6.793e-10
1.861e-11
6.763e-10
1.668e-11
6.736e-10
1.495e-11
6.712e-10
1.342e-11
6.69e-10
1.206e-11
6.671e-10
1.087e-11
6.654e-10
9.836e-12
6.638e-10
8.959e-12
6.624e-10
8.227e-12
6.612e-10
7.635e-12
6.6e-10
7.176e-12
6.59e-10
6.839e-12
6.58e-10
6.615e-12
6.571e-10
6.488e-12
6.441e-12
9.453e-10
6.205e-11
9.625e-10
1.625e-10
9.824e-10
2.365e-10
1e-09
2.85e-10
1.014e-09
3.12e-10
1.021e-09
3.221e-10
1.023e-09
3.2e-10
1.02e-09
3.092e-10
1.013e-09
2.929e-10
1.002e-09
2.733e-10
9.903e-10
2.519e-10
9.77e-10
2.299e-10
9.633e-10
2.08e-10
9.496e-10
1.867e-10
9.364e-10
1.663e-10
9.239e-10
1.469e-10
9.125e-10
1.285e-10
9.022e-10
1.111e-10
8.932e-10
9.473e-11
8.855e-10
7.922e-11
8.793e-10
6.448e-11
8.745e-10
5.042e-11
8.712e-10
3.693e-11
8.694e-10
2.389e-11
8.691e-10
1.121e-11
8.703e-10
-1.237e-12
8.732e-10
-1.353e-11
8.776e-10
-2.578e-11
8.836e-10
-3.806e-11
8.913e-10
-5.047e-11
9.007e-10
-6.307e-11
9.119e-10
-7.594e-11
9.249e-10
-8.913e-11
9.398e-10
-1.027e-10
9.566e-10
-1.167e-10
9.754e-10
-1.311e-10
9.963e-10
-1.459e-10
1.019e-09
-1.612e-10
1.045e-09
-1.768e-10
1.072e-09
-1.928e-10
1.102e-09
-2.09e-10
1.134e-09
-2.253e-10
1.168e-09
-2.416e-10
1.205e-09
-2.577e-10
1.244e-09
-2.732e-10
1.285e-09
-2.881e-10
1.328e-09
-3.019e-10
1.373e-09
-3.142e-10
1.419e-09
-3.247e-10
1.467e-09
-3.33e-10
1.516e-09
-3.386e-10
1.565e-09
-3.41e-10
1.614e-09
-3.397e-10
1.663e-09
-3.344e-10
1.71e-09
-3.246e-10
1.756e-09
-3.1e-10
1.799e-09
-2.904e-10
1.838e-09
-2.658e-10
1.873e-09
-2.362e-10
1.904e-09
-2.02e-10
1.928e-09
-1.637e-10
1.946e-09
-1.219e-10
1.958e-09
-7.779e-11
1.962e-09
-3.232e-11
1.96e-09
1.332e-11
1.951e-09
5.802e-11
1.936e-09
1.008e-10
1.915e-09
1.408e-10
1.889e-09
1.775e-10
1.858e-09
2.105e-10
1.823e-09
2.394e-10
1.785e-09
2.641e-10
1.744e-09
2.846e-10
1.7e-09
3.01e-10
1.655e-09
3.133e-10
1.608e-09
3.218e-10
1.561e-09
3.267e-10
1.514e-09
3.282e-10
1.467e-09
3.267e-10
1.421e-09
3.225e-10
1.376e-09
3.159e-10
1.331e-09
3.073e-10
1.289e-09
2.971e-10
1.248e-09
2.856e-10
1.209e-09
2.73e-10
1.171e-09
2.597e-10
1.136e-09
2.46e-10
1.103e-09
2.32e-10
1.071e-09
2.179e-10
1.042e-09
2.04e-10
1.014e-09
1.904e-10
9.887e-10
1.771e-10
9.649e-10
1.642e-10
9.429e-10
1.519e-10
9.225e-10
1.402e-10
9.036e-10
1.291e-10
8.863e-10
1.186e-10
8.704e-10
1.087e-10
8.558e-10
9.952e-11
8.424e-10
9.09e-11
8.301e-10
8.289e-11
8.189e-10
7.546e-11
8.087e-10
6.859e-11
7.995e-10
6.225e-11
7.91e-10
5.642e-11
7.833e-10
5.106e-11
7.764e-10
4.615e-11
7.701e-10
4.165e-11
7.644e-10
3.755e-11
7.593e-10
3.381e-11
7.546e-10
3.04e-11
7.504e-10
2.732e-11
7.467e-10
2.452e-11
7.433e-10
2.199e-11
7.402e-10
1.972e-11
7.375e-10
1.768e-11
7.351e-10
1.586e-11
7.329e-10
1.425e-11
7.309e-10
1.283e-11
7.292e-10
1.159e-11
7.276e-10
1.053e-11
7.262e-10
9.639e-12
7.249e-10
8.903e-12
7.238e-10
8.318e-12
7.227e-10
7.875e-12
7.218e-10
7.565e-12
7.209e-10
7.377e-12
7.298e-12
9.44e-10
5.552e-11
9.59e-10
1.475e-10
9.777e-10
2.178e-10
9.96e-10
2.667e-10
1.011e-09
2.966e-10
1.022e-09
3.111e-10
1.029e-09
3.136e-10
1.031e-09
3.073e-10
1.029e-09
2.947e-10
1.024e-09
2.781e-10
1.017e-09
2.59e-10
1.008e-09
2.385e-10
9.985e-10
2.176e-10
9.885e-10
1.967e-10
9.784e-10
1.763e-10
9.688e-10
1.565e-10
9.597e-10
1.375e-10
9.514e-10
1.194e-10
9.441e-10
1.02e-10
9.379e-10
8.542e-11
9.329e-10
6.951e-11
9.291e-10
5.421e-11
9.266e-10
3.942e-11
9.255e-10
2.504e-11
9.257e-10
1.097e-11
9.274e-10
-2.889e-12
9.305e-10
-1.664e-11
9.351e-10
-3.039e-11
9.412e-10
-4.421e-11
9.489e-10
-5.82e-11
9.583e-10
-7.244e-11
9.694e-10
-8.7e-11
9.822e-10
-1.019e-10
9.968e-10
-1.173e-10
1.013e-09
-1.332e-10
1.032e-09
-1.495e-10
1.052e-09
-1.664e-10
1.075e-09
-1.837e-10
1.1e-09
-2.015e-10
1.127e-09
-2.197e-10
1.156e-09
-2.382e-10
1.187e-09
-2.568e-10
1.221e-09
-2.754e-10
1.257e-09
-2.937e-10
1.295e-09
-3.115e-10
1.336e-09
-3.286e-10
1.378e-09
-3.444e-10
1.423e-09
-3.587e-10
1.469e-09
-3.709e-10
1.516e-09
-3.805e-10
1.565e-09
-3.872e-10
1.614e-09
-3.902e-10
1.663e-09
-3.89e-10
1.712e-09
-3.833e-10
1.76e-09
-3.724e-10
1.806e-09
-3.56e-10
1.849e-09
-3.338e-10
1.889e-09
-3.058e-10
1.925e-09
-2.72e-10
1.956e-09
-2.327e-10
1.981e-09
-1.885e-10
1.999e-09
-1.404e-10
2.011e-09
-8.94e-11
2.015e-09
-3.686e-11
2.013e-09
1.581e-11
2.004e-09
6.729e-11
1.988e-09
1.164e-10
1.966e-09
1.623e-10
1.94e-09
2.042e-10
1.909e-09
2.417e-10
1.873e-09
2.746e-10
1.835e-09
3.027e-10
1.794e-09
3.26e-10
1.75e-09
3.445e-10
1.705e-09
3.585e-10
1.659e-09
3.68e-10
1.612e-09
3.735e-10
1.565e-09
3.751e-10
1.518e-09
3.733e-10
1.472e-09
3.684e-10
1.427e-09
3.609e-10
1.384e-09
3.51e-10
1.341e-09
3.393e-10
1.301e-09
3.261e-10
1.262e-09
3.117e-10
1.225e-09
2.965e-10
1.19e-09
2.808e-10
1.158e-09
2.648e-10
1.127e-09
2.488e-10
1.098e-09
2.33e-10
1.071e-09
2.174e-10
1.046e-09
2.022e-10
1.022e-09
1.876e-10
1e-09
1.736e-10
9.804e-10
1.603e-10
9.619e-10
1.476e-10
9.449e-10
1.357e-10
9.292e-10
1.244e-10
9.148e-10
1.139e-10
9.016e-10
1.041e-10
8.896e-10
9.495e-11
8.785e-10
8.648e-11
8.685e-10
7.865e-11
8.593e-10
7.141e-11
8.51e-10
6.475e-11
8.434e-10
5.863e-11
8.365e-10
5.302e-11
8.303e-10
4.788e-11
8.247e-10
4.318e-11
8.196e-10
3.89e-11
8.15e-10
3.5e-11
8.108e-10
3.146e-11
8.071e-10
2.826e-11
8.037e-10
2.536e-11
8.007e-10
2.274e-11
7.98e-10
2.039e-11
7.956e-10
1.829e-11
7.934e-10
1.642e-11
7.915e-10
1.478e-11
7.897e-10
1.333e-11
7.882e-10
1.209e-11
7.868e-10
1.103e-11
7.855e-10
1.014e-11
7.844e-10
9.43e-12
7.834e-10
8.879e-12
7.825e-10
8.482e-12
7.816e-10
8.232e-12
8.121e-12
9.431e-10
4.995e-11
9.564e-10
1.342e-10
9.737e-10
2.005e-10
9.917e-10
2.486e-10
1.008e-09
2.802e-10
1.022e-09
2.977e-10
1.031e-09
3.039e-10
1.037e-09
3.013e-10
1.04e-09
2.922e-10
1.039e-09
2.785e-10
1.037e-09
2.617e-10
1.032e-09
2.431e-10
1.026e-09
2.234e-10
1.02e-09
2.032e-10
1.013e-09
1.832e-10
1.006e-09
1.634e-10
9.996e-10
1.442e-10
9.934e-10
1.255e-10
9.88e-10
1.075e-10
9.833e-10
9.008e-11
9.796e-10
7.325e-11
9.769e-10
5.693e-11
9.752e-10
4.104e-11
9.748e-10
2.551e-11
9.755e-10
1.022e-11
9.776e-10
-4.907e-12
9.809e-10
-1.998e-11
9.856e-10
-3.509e-11
9.917e-10
-5.033e-11
9.993e-10
-6.579e-11
1.008e-09
-8.155e-11
1.019e-09
-9.77e-11
1.031e-09
-1.143e-10
1.045e-09
-1.314e-10
1.061e-09
-1.49e-10
1.079e-09
-1.672e-10
1.099e-09
-1.86e-10
1.12e-09
-2.054e-10
1.144e-09
-2.252e-10
1.17e-09
-2.455e-10
1.198e-09
-2.661e-10
1.228e-09
-2.87e-10
1.26e-09
-3.078e-10
1.295e-09
-3.284e-10
1.332e-09
-3.485e-10
1.371e-09
-3.676e-10
1.412e-09
-3.856e-10
1.455e-09
-4.017e-10
1.5e-09
-4.157e-10
1.546e-09
-4.268e-10
1.594e-09
-4.346e-10
1.642e-09
-4.383e-10
1.69e-09
-4.375e-10
1.739e-09
-4.314e-10
1.786e-09
-4.196e-10
1.831e-09
-4.015e-10