/*--------------------------------*- C++ -*----------------------------------*\
  =========                 |
  \\      /  F ield         | OpenFOAM: The Open Source CFD Toolbox
   \\    /   O peration     | Website:  https://openfoam.org
    \\  /    A nd           | Version:  7
     \\/     M anipulation  |
\*---------------------------------------------------------------------------*/
FoamFile
{
    version     2.0;
    format      ascii;
    class       volVectorField;
    location    "1439.99947341967936";
    object      U;
}
// * * * * * * * * * * * * * * * * * * * * * * * * * * * * * * * * * * * * * //

dimensions      [0 1 -1 0 0 0 0];

internalField   nonuniform List<vector> 
4096
(
(0.001039 0.0001611 0)
(0.0007463 0.0001314 0)
(0.0005302 8.474e-05 0)
(0.0003919 5.358e-05 0)
(0.0003036 3.466e-05 0)
(0.0002457 2.328e-05 0)
(0.0002061 1.632e-05 0)
(0.0001778 1.194e-05 0)
(0.0001568 9.049e-06 0)
(0.0001407 7.06e-06 0)
(0.000128 5.632e-06 0)
(0.0001178 4.568e-06 0)
(0.0001095 3.751e-06 0)
(0.0001027 3.107e-06 0)
(9.696e-05 2.589e-06 0)
(9.221e-05 2.163e-06 0)
(8.824e-05 1.808e-06 0)
(8.492e-05 1.506e-06 0)
(8.217e-05 1.247e-06 0)
(7.99e-05 1.02e-06 0)
(7.806e-05 8.193e-07 0)
(7.661e-05 6.39e-07 0)
(7.549e-05 4.748e-07 0)
(7.469e-05 3.229e-07 0)
(7.419e-05 1.805e-07 0)
(7.397e-05 4.49e-08 0)
(7.401e-05 -8.6e-08 0)
(7.431e-05 -2.141e-07 0)
(7.486e-05 -3.411e-07 0)
(7.567e-05 -4.684e-07 0)
(7.674e-05 -5.973e-07 0)
(7.806e-05 -7.29e-07 0)
(7.966e-05 -8.644e-07 0)
(8.153e-05 -1.004e-06 0)
(8.368e-05 -1.15e-06 0)
(8.613e-05 -1.3e-06 0)
(8.889e-05 -1.457e-06 0)
(9.197e-05 -1.62e-06 0)
(9.537e-05 -1.789e-06 0)
(9.913e-05 -1.963e-06 0)
(0.0001032 -2.141e-06 0)
(0.0001077 -2.323e-06 0)
(0.0001125 -2.506e-06 0)
(0.0001177 -2.688e-06 0)
(0.0001233 -2.867e-06 0)
(0.0001292 -3.039e-06 0)
(0.0001354 -3.201e-06 0)
(0.000142 -3.348e-06 0)
(0.0001488 -3.476e-06 0)
(0.0001558 -3.578e-06 0)
(0.0001631 -3.651e-06 0)
(0.0001704 -3.687e-06 0)
(0.0001778 -3.683e-06 0)
(0.0001851 -3.631e-06 0)
(0.0001923 -3.529e-06 0)
(0.0001992 -3.372e-06 0)
(0.0002057 -3.159e-06 0)
(0.0002117 -2.889e-06 0)
(0.0002172 -2.563e-06 0)
(0.0002219 -2.187e-06 0)
(0.0002259 -1.765e-06 0)
(0.000229 -1.307e-06 0)
(0.0002311 -8.228e-07 0)
(0.0002322 -3.241e-07 0)
(0.0002324 1.769e-07 0)
(0.0002315 6.682e-07 0)
(0.0002297 1.139e-06 0)
(0.000227 1.58e-06 0)
(0.0002235 1.983e-06 0)
(0.0002191 2.343e-06 0)
(0.0002141 2.655e-06 0)
(0.0002086 2.92e-06 0)
(0.0002025 3.134e-06 0)
(0.0001961 3.3e-06 0)
(0.0001893 3.42e-06 0)
(0.0001824 3.495e-06 0)
(0.0001754 3.529e-06 0)
(0.0001683 3.527e-06 0)
(0.0001613 3.49e-06 0)
(0.0001544 3.425e-06 0)
(0.0001477 3.335e-06 0)
(0.0001411 3.225e-06 0)
(0.0001348 3.097e-06 0)
(0.0001287 2.957e-06 0)
(0.000123 2.808e-06 0)
(0.0001175 2.653e-06 0)
(0.0001123 2.495e-06 0)
(0.0001075 2.336e-06 0)
(0.000103 2.179e-06 0)
(9.88e-05 2.024e-06 0)
(9.49e-05 1.874e-06 0)
(9.129e-05 1.73e-06 0)
(8.797e-05 1.592e-06 0)
(8.492e-05 1.461e-06 0)
(8.212e-05 1.337e-06 0)
(7.956e-05 1.221e-06 0)
(7.723e-05 1.113e-06 0)
(7.51e-05 1.012e-06 0)
(7.317e-05 9.179e-07 0)
(7.143e-05 8.312e-07 0)
(6.984e-05 7.514e-07 0)
(6.841e-05 6.78e-07 0)
(6.712e-05 6.108e-07 0)
(6.596e-05 5.493e-07 0)
(6.492e-05 4.932e-07 0)
(6.399e-05 4.422e-07 0)
(6.315e-05 3.958e-07 0)
(6.24e-05 3.538e-07 0)
(6.173e-05 3.157e-07 0)
(6.113e-05 2.814e-07 0)
(6.06e-05 2.505e-07 0)
(6.013e-05 2.227e-07 0)
(5.971e-05 1.978e-07 0)
(5.933e-05 1.756e-07 0)
(5.9e-05 1.56e-07 0)
(5.871e-05 1.388e-07 0)
(5.844e-05 1.238e-07 0)
(5.821e-05 1.111e-07 0)
(5.8e-05 1.007e-07 0)
(5.78e-05 9.263e-08 0)
(5.762e-05 8.711e-08 0)
(5.745e-05 8.456e-08 0)
(5.728e-05 8.572e-08 0)
(5.71e-05 9.2e-08 0)
(5.691e-05 1.061e-07 0)
(5.667e-05 1.324e-07 0)
(5.636e-05 1.758e-07 0)
(5.596e-05 2.285e-07 0)
(0.001209 0.0003128 0)
(0.001154 0.0003282 0)
(0.00101 0.000248 0)
(0.0008613 0.0001771 0)
(0.0007345 0.0001262 0)
(0.0006327 9.144e-05 0)
(0.0005526 6.788e-05 0)
(0.0004895 5.172e-05 0)
(0.0004394 4.036e-05 0)
(0.0003991 3.214e-05 0)
(0.0003663 2.602e-05 0)
(0.0003394 2.133e-05 0)
(0.000317 1.766e-05 0)
(0.0002984 1.472e-05 0)
(0.0002827 1.232e-05 0)
(0.0002696 1.034e-05 0)
(0.0002585 8.668e-06 0)
(0.0002492 7.242e-06 0)
(0.0002415 6.008e-06 0)
(0.0002351 4.926e-06 0)
(0.0002299 3.964e-06 0)
(0.0002257 3.098e-06 0)
(0.0002225 2.307e-06 0)
(0.0002203 1.574e-06 0)
(0.0002188 8.86e-07 0)
(0.0002181 2.306e-07 0)
(0.0002182 -4.022e-07 0)
(0.0002191 -1.021e-06 0)
(0.0002206 -1.634e-06 0)
(0.0002229 -2.249e-06 0)
(0.0002258 -2.869e-06 0)
(0.0002296 -3.502e-06 0)
(0.000234 -4.152e-06 0)
(0.0002393 -4.822e-06 0)
(0.0002453 -5.516e-06 0)
(0.0002522 -6.234e-06 0)
(0.0002598 -6.98e-06 0)
(0.0002684 -7.752e-06 0)
(0.0002779 -8.549e-06 0)
(0.0002883 -9.369e-06 0)
(0.0002997 -1.021e-05 0)
(0.000312 -1.106e-05 0)
(0.0003253 -1.191e-05 0)
(0.0003396 -1.276e-05 0)
(0.0003549 -1.359e-05 0)
(0.000371 -1.439e-05 0)
(0.0003881 -1.513e-05 0)
(0.0004059 -1.58e-05 0)
(0.0004244 -1.638e-05 0)
(0.0004435 -1.684e-05 0)
(0.0004631 -1.715e-05 0)
(0.0004828 -1.73e-05 0)
(0.0005026 -1.725e-05 0)
(0.0005223 -1.699e-05 0)
(0.0005414 -1.649e-05 0)
(0.0005598 -1.574e-05 0)
(0.0005772 -1.473e-05 0)
(0.0005933 -1.346e-05 0)
(0.0006078 -1.194e-05 0)
(0.0006205 -1.018e-05 0)
(0.000631 -8.224e-06 0)
(0.0006391 -6.098e-06 0)
(0.0006448 -3.853e-06 0)
(0.0006479 -1.542e-06 0)
(0.0006484 7.81e-07 0)
(0.0006463 3.062e-06 0)
(0.0006416 5.251e-06 0)
(0.0006344 7.305e-06 0)
(0.0006251 9.19e-06 0)
(0.0006136 1.088e-05 0)
(0.0006004 1.235e-05 0)
(0.0005856 1.36e-05 0)
(0.0005695 1.463e-05 0)
(0.0005523 1.543e-05 0)
(0.0005343 1.601e-05 0)
(0.0005158 1.639e-05 0)
(0.0004968 1.657e-05 0)
(0.0004778 1.658e-05 0)
(0.0004588 1.644e-05 0)
(0.00044 1.616e-05 0)
(0.0004217 1.576e-05 0)
(0.0004038 1.526e-05 0)
(0.0003865 1.468e-05 0)
(0.0003699 1.404e-05 0)
(0.000354 1.335e-05 0)
(0.000339 1.263e-05 0)
(0.0003247 1.19e-05 0)
(0.0003113 1.116e-05 0)
(0.0002988 1.042e-05 0)
(0.0002871 9.697e-06 0)
(0.0002762 8.992e-06 0)
(0.0002661 8.312e-06 0)
(0.0002567 7.661e-06 0)
(0.0002482 7.041e-06 0)
(0.0002403 6.455e-06 0)
(0.000233 5.903e-06 0)
(0.0002264 5.386e-06 0)
(0.0002203 4.904e-06 0)
(0.0002148 4.456e-06 0)
(0.0002098 4.042e-06 0)
(0.0002053 3.659e-06 0)
(0.0002012 3.306e-06 0)
(0.0001975 2.983e-06 0)
(0.0001941 2.687e-06 0)
(0.0001911 2.416e-06 0)
(0.0001884 2.17e-06 0)
(0.000186 1.946e-06 0)
(0.0001838 1.742e-06 0)
(0.0001818 1.557e-06 0)
(0.0001801 1.391e-06 0)
(0.0001785 1.24e-06 0)
(0.0001771 1.105e-06 0)
(0.0001759 9.834e-07 0)
(0.0001747 8.751e-07 0)
(0.0001738 7.791e-07 0)
(0.0001729 6.946e-07 0)
(0.0001721 6.212e-07 0)
(0.0001714 5.587e-07 0)
(0.0001707 5.069e-07 0)
(0.0001701 4.662e-07 0)
(0.0001696 4.373e-07 0)
(0.0001691 4.216e-07 0)
(0.0001686 4.214e-07 0)
(0.0001681 4.403e-07 0)
(0.0001675 4.845e-07 0)
(0.000167 5.625e-07 0)
(0.0001663 6.784e-07 0)
(0.0001657 7.994e-07 0)
(0.001226 0.0002775 0)
(0.001243 0.0004027 0)
(0.001194 0.0003664 0)
(0.001102 0.0002982 0)
(0.0009998 0.0002345 0)
(0.0009017 0.000183 0)
(0.0008145 0.0001437 0)
(0.0007394 0.0001141 0)
(0.0006758 9.173e-05 0)
(0.0006222 7.468e-05 0)
(0.000577 6.145e-05 0)
(0.0005388 5.102e-05 0)
(0.0005065 4.264e-05 0)
(0.0004791 3.581e-05 0)
(0.0004558 3.016e-05 0)
(0.000436 2.543e-05 0)
(0.0004193 2.14e-05 0)
(0.0004051 1.794e-05 0)
(0.0003933 1.493e-05 0)
(0.0003834 1.227e-05 0)
(0.0003754 9.89e-06 0)
(0.0003689 7.741e-06 0)
(0.000364 5.773e-06 0)
(0.0003604 3.946e-06 0)
(0.0003582 2.226e-06 0)
(0.0003572 5.859e-07 0)
(0.0003573 -9.99e-07 0)
(0.0003586 -2.55e-06 0)
(0.000361 -4.086e-06 0)
(0.0003646 -5.623e-06 0)
(0.0003693 -7.175e-06 0)
(0.0003751 -8.756e-06 0)
(0.0003822 -1.038e-05 0)
(0.0003904 -1.204e-05 0)
(0.0003998 -1.377e-05 0)
(0.0004105 -1.555e-05 0)
(0.0004226 -1.74e-05 0)
(0.0004359 -1.93e-05 0)
(0.0004507 -2.127e-05 0)
(0.0004669 -2.328e-05 0)
(0.0004846 -2.534e-05 0)
(0.0005038 -2.742e-05 0)
(0.0005244 -2.951e-05 0)
(0.0005466 -3.157e-05 0)
(0.0005701 -3.359e-05 0)
(0.0005951 -3.551e-05 0)
(0.0006213 -3.73e-05 0)
(0.0006488 -3.891e-05 0)
(0.0006773 -4.028e-05 0)
(0.0007066 -4.136e-05 0)
(0.0007365 -4.209e-05 0)
(0.0007668 -4.241e-05 0)
(0.0007971 -4.225e-05 0)
(0.0008271 -4.157e-05 0)
(0.0008563 -4.031e-05 0)
(0.0008844 -3.845e-05 0)
(0.0009109 -3.596e-05 0)
(0.0009355 -3.285e-05 0)
(0.0009575 -2.913e-05 0)
(0.0009768 -2.484e-05 0)
(0.0009928 -2.007e-05 0)
(0.001005 -1.49e-05 0)
(0.001014 -9.448e-06 0)
(0.001019 -3.831e-06 0)
(0.00102 1.817e-06 0)
(0.001016 7.366e-06 0)
(0.001009 1.27e-05 0)
(0.0009985 1.771e-05 0)
(0.0009844 2.232e-05 0)
(0.0009671 2.646e-05 0)
(0.000947 3.008e-05 0)
(0.0009245 3.317e-05 0)
(0.0009 3.571e-05 0)
(0.0008738 3.77e-05 0)
(0.0008464 3.918e-05 0)
(0.000818 4.015e-05 0)
(0.0007891 4.065e-05 0)
(0.0007599 4.073e-05 0)
(0.0007307 4.043e-05 0)
(0.0007019 3.978e-05 0)
(0.0006735 3.884e-05 0)
(0.000646 3.766e-05 0)
(0.0006192 3.628e-05 0)
(0.0005935 3.474e-05 0)
(0.000569 3.308e-05 0)
(0.0005456 3.134e-05 0)
(0.0005235 2.956e-05 0)
(0.0005026 2.775e-05 0)
(0.000483 2.595e-05 0)
(0.0004647 2.418e-05 0)
(0.0004477 2.245e-05 0)
(0.0004318 2.078e-05 0)
(0.0004172 1.918e-05 0)
(0.0004036 1.765e-05 0)
(0.0003912 1.62e-05 0)
(0.0003798 1.483e-05 0)
(0.0003693 1.355e-05 0)
(0.0003597 1.235e-05 0)
(0.000351 1.124e-05 0)
(0.000343 1.021e-05 0)
(0.0003358 9.251e-06 0)
(0.0003293 8.371e-06 0)
(0.0003233 7.563e-06 0)
(0.000318 6.821e-06 0)
(0.0003131 6.143e-06 0)
(0.0003088 5.523e-06 0)
(0.0003048 4.959e-06 0)
(0.0003013 4.447e-06 0)
(0.0002981 3.982e-06 0)
(0.0002953 3.561e-06 0)
(0.0002928 3.181e-06 0)
(0.0002905 2.838e-06 0)
(0.0002884 2.531e-06 0)
(0.0002866 2.256e-06 0)
(0.000285 2.012e-06 0)
(0.0002836 1.797e-06 0)
(0.0002823 1.61e-06 0)
(0.0002811 1.449e-06 0)
(0.00028 1.315e-06 0)
(0.0002791 1.208e-06 0)
(0.0002782 1.129e-06 0)
(0.0002773 1.08e-06 0)
(0.0002765 1.065e-06 0)
(0.0002758 1.087e-06 0)
(0.000275 1.152e-06 0)
(0.0002742 1.264e-06 0)
(0.0002734 1.415e-06 0)
(0.0002725 1.546e-06 0)
(0.001224 0.0002275 0)
(0.00126 0.0004003 0)
(0.001258 0.0004193 0)
(0.001216 0.0003789 0)
(0.001149 0.0003229 0)
(0.001074 0.0002685 0)
(0.0009976 0.0002214 0)
(0.0009264 0.0001826 0)
(0.000862 0.0001512 0)
(0.0008049 0.0001259 0)
(0.0007549 0.0001054 0)
(0.0007114 8.873e-05 0)
(0.0006736 7.497e-05 0)
(0.000641 6.352e-05 0)
(0.0006128 5.388e-05 0)
(0.0005886 4.568e-05 0)
(0.0005679 3.863e-05 0)
(0.0005503 3.251e-05 0)
(0.0005354 2.713e-05 0)
(0.000523 2.235e-05 0)
(0.0005128 1.805e-05 0)
(0.0005046 1.415e-05 0)
(0.0004984 1.056e-05 0)
(0.0004939 7.212e-06 0)
(0.000491 4.054e-06 0)
(0.0004898 1.036e-06 0)
(0.0004901 -1.886e-06 0)
(0.0004918 -4.748e-06 0)
(0.0004951 -7.582e-06 0)
(0.0004998 -1.042e-05 0)
(0.000506 -1.328e-05 0)
(0.0005138 -1.62e-05 0)
(0.000523 -1.918e-05 0)
(0.0005338 -2.225e-05 0)
(0.0005462 -2.542e-05 0)
(0.0005603 -2.869e-05 0)
(0.000576 -3.206e-05 0)
(0.0005936 -3.555e-05 0)
(0.0006129 -3.914e-05 0)
(0.0006341 -4.281e-05 0)
(0.0006571 -4.655e-05 0)
(0.0006821 -5.033e-05 0)
(0.000709 -5.411e-05 0)
(0.0007377 -5.784e-05 0)
(0.0007683 -6.147e-05 0)
(0.0008006 -6.492e-05 0)
(0.0008346 -6.813e-05 0)
(0.0008701 -7.101e-05 0)
(0.0009069 -7.345e-05 0)
(0.0009447 -7.536e-05 0)
(0.0009833 -7.662e-05 0)
(0.001022 -7.714e-05 0)
(0.001061 -7.68e-05 0)
(0.0011 -7.552e-05 0)
(0.001137 -7.32e-05 0)
(0.001174 -6.978e-05 0)
(0.001208 -6.524e-05 0)
(0.001239 -5.958e-05 0)
(0.001267 -5.282e-05 0)
(0.001292 -4.507e-05 0)
(0.001313 -3.643e-05 0)
(0.001329 -2.708e-05 0)
(0.00134 -1.721e-05 0)
(0.001346 -7.052e-06 0)
(0.001347 3.164e-06 0)
(0.001343 1.321e-05 0)
(0.001334 2.286e-05 0)
(0.001321 3.195e-05 0)
(0.001303 4.032e-05 0)
(0.001281 4.784e-05 0)
(0.001255 5.445e-05 0)
(0.001226 6.009e-05 0)
(0.001195 6.475e-05 0)
(0.001161 6.843e-05 0)
(0.001126 7.117e-05 0)
(0.001089 7.3e-05 0)
(0.001052 7.399e-05 0)
(0.001014 7.42e-05 0)
(0.0009768 7.372e-05 0)
(0.0009395 7.261e-05 0)
(0.0009029 7.097e-05 0)
(0.0008671 6.888e-05 0)
(0.0008325 6.642e-05 0)
(0.0007991 6.366e-05 0)
(0.0007671 6.069e-05 0)
(0.0007367 5.756e-05 0)
(0.0007078 5.434e-05 0)
(0.0006806 5.108e-05 0)
(0.0006549 4.782e-05 0)
(0.000631 4.46e-05 0)
(0.0006086 4.146e-05 0)
(0.0005878 3.841e-05 0)
(0.0005685 3.549e-05 0)
(0.0005507 3.269e-05 0)
(0.0005342 3.004e-05 0)
(0.0005191 2.754e-05 0)
(0.0005053 2.518e-05 0)
(0.0004926 2.298e-05 0)
(0.000481 2.093e-05 0)
(0.0004704 1.903e-05 0)
(0.0004608 1.727e-05 0)
(0.000452 1.565e-05 0)
(0.0004441 1.415e-05 0)
(0.0004369 1.278e-05 0)
(0.0004304 1.152e-05 0)
(0.0004246 1.037e-05 0)
(0.0004193 9.324e-06 0)
(0.0004145 8.37e-06 0)
(0.0004103 7.505e-06 0)
(0.0004064 6.72e-06 0)
(0.000403 6.011e-06 0)
(0.0003999 5.371e-06 0)
(0.0003971 4.796e-06 0)
(0.0003947 4.282e-06 0)
(0.0003924 3.824e-06 0)
(0.0003905 3.419e-06 0)
(0.0003887 3.066e-06 0)
(0.0003871 2.761e-06 0)
(0.0003856 2.504e-06 0)
(0.0003843 2.295e-06 0)
(0.0003831 2.136e-06 0)
(0.000382 2.027e-06 0)
(0.0003809 1.971e-06 0)
(0.0003799 1.972e-06 0)
(0.000379 2.031e-06 0)
(0.000378 2.144e-06 0)
(0.0003771 2.291e-06 0)
(0.0003761 2.407e-06 0)
(0.001219 0.0001846 0)
(0.001255 0.0003712 0)
(0.001275 0.00043 0)
(0.001265 0.0004209 0)
(0.001229 0.0003826 0)
(0.001178 0.0003353 0)
(0.00112 0.0002885 0)
(0.001061 0.0002462 0)
(0.001003 0.0002096 0)
(0.0009495 0.0001783 0)
(0.0009006 0.000152 0)
(0.0008565 0.0001297 0)
(0.0008174 0.0001109 0)
(0.0007828 9.483e-05 0)
(0.0007524 8.106e-05 0)
(0.000726 6.916e-05 0)
(0.0007031 5.879e-05 0)
(0.0006834 4.968e-05 0)
(0.0006666 4.16e-05 0)
(0.0006526 3.436e-05 0)
(0.000641 2.781e-05 0)
(0.0006317 2.182e-05 0)
(0.0006246 1.627e-05 0)
(0.0006195 1.109e-05 0)
(0.0006164 6.174e-06 0)
(0.0006151 1.465e-06 0)
(0.0006156 -3.104e-06 0)
(0.0006178 -7.585e-06 0)
(0.0006219 -1.203e-05 0)
(0.0006276 -1.648e-05 0)
(0.0006352 -2.097e-05 0)
(0.0006445 -2.554e-05 0)
(0.0006556 -3.022e-05 0)
(0.0006686 -3.502e-05 0)
(0.0006835 -3.997e-05 0)
(0.0007004 -4.508e-05 0)
(0.0007193 -5.035e-05 0)
(0.0007403 -5.578e-05 0)
(0.0007634 -6.136e-05 0)
(0.0007887 -6.707e-05 0)
(0.0008163 -7.287e-05 0)
(0.000846 -7.872e-05 0)
(0.000878 -8.456e-05 0)
(0.0009122 -9.032e-05 0)
(0.0009485 -9.591e-05 0)
(0.000987 -0.0001012 0)
(0.001027 -0.0001062 0)
(0.001069 -0.0001106 0)
(0.001113 -0.0001143 0)
(0.001158 -0.0001172 0)
(0.001203 -0.0001191 0)
(0.00125 -0.0001198 0)
(0.001296 -0.0001192 0)
(0.001341 -0.0001172 0)
(0.001386 -0.0001136 0)
(0.001428 -0.0001082 0)
(0.001469 -0.0001012 0)
(0.001506 -9.239e-05 0)
(0.00154 -8.192e-05 0)
(0.001569 -6.99e-05 0)
(0.001593 -5.653e-05 0)
(0.001612 -4.206e-05 0)
(0.001626 -2.679e-05 0)
(0.001633 -1.107e-05 0)
(0.001634 4.743e-06 0)
(0.00163 2.029e-05 0)
(0.001619 3.525e-05 0)
(0.001603 4.933e-05 0)
(0.001582 6.23e-05 0)
(0.001556 7.398e-05 0)
(0.001525 8.426e-05 0)
(0.001492 9.305e-05 0)
(0.001454 0.0001003 0)
(0.001415 0.0001061 0)
(0.001373 0.0001104 0)
(0.00133 0.0001133 0)
(0.001286 0.000115 0)
(0.001241 0.0001154 0)
(0.001197 0.0001147 0)
(0.001153 0.0001131 0)
(0.001109 0.0001106 0)
(0.001067 0.0001074 0)
(0.001026 0.0001037 0)
(0.0009858 9.948e-05 0)
(0.0009477 9.491e-05 0)
(0.0009114 9.01e-05 0)
(0.0008769 8.514e-05 0)
(0.0008443 8.01e-05 0)
(0.0008137 7.506e-05 0)
(0.000785 7.007e-05 0)
(0.0007581 6.52e-05 0)
(0.0007331 6.047e-05 0)
(0.0007099 5.591e-05 0)
(0.0006885 5.156e-05 0)
(0.0006687 4.742e-05 0)
(0.0006504 4.351e-05 0)
(0.0006336 3.984e-05 0)
(0.0006183 3.639e-05 0)
(0.0006042 3.318e-05 0)
(0.0005914 3.019e-05 0)
(0.0005797 2.743e-05 0)
(0.000569 2.487e-05 0)
(0.0005594 2.252e-05 0)
(0.0005506 2.035e-05 0)
(0.0005427 1.837e-05 0)
(0.0005355 1.656e-05 0)
(0.000529 1.49e-05 0)
(0.0005232 1.339e-05 0)
(0.0005179 1.202e-05 0)
(0.0005132 1.078e-05 0)
(0.0005089 9.65e-06 0)
(0.0005051 8.634e-06 0)
(0.0005017 7.719e-06 0)
(0.0004986 6.899e-06 0)
(0.0004959 6.167e-06 0)
(0.0004934 5.519e-06 0)
(0.0004912 4.951e-06 0)
(0.0004892 4.458e-06 0)
(0.0004875 4.04e-06 0)
(0.0004858 3.694e-06 0)
(0.0004844 3.42e-06 0)
(0.000483 3.221e-06 0)
(0.0004817 3.095e-06 0)
(0.0004805 3.045e-06 0)
(0.0004794 3.066e-06 0)
(0.0004783 3.15e-06 0)
(0.0004773 3.268e-06 0)
(0.0004763 3.36e-06 0)
(0.001214 0.000152 0)
(0.001246 0.0003354 0)
(0.001274 0.0004181 0)
(0.001282 0.0004353 0)
(0.001269 0.0004167 0)
(0.00124 0.0003813 0)
(0.0012 0.0003403 0)
(0.001155 0.0002993 0)
(0.001108 0.0002611 0)
(0.001061 0.0002268 0)
(0.001017 0.0001966 0)
(0.0009761 0.0001702 0)
(0.0009386 0.0001471 0)
(0.0009047 0.000127 0)
(0.0008745 0.0001095 0)
(0.0008477 9.401e-05 0)
(0.0008242 8.036e-05 0)
(0.0008038 6.821e-05 0)
(0.0007863 5.731e-05 0)
(0.0007715 4.746e-05 0)
(0.0007593 3.848e-05 0)
(0.0007495 3.021e-05 0)
(0.000742 2.251e-05 0)
(0.0007367 1.526e-05 0)
(0.0007335 8.373e-06 0)
(0.0007323 1.746e-06 0)
(0.0007331 -4.7e-06 0)
(0.0007359 -1.104e-05 0)
(0.0007406 -1.733e-05 0)
(0.0007473 -2.364e-05 0)
(0.000756 -3.001e-05 0)
(0.0007666 -3.649e-05 0)
(0.0007793 -4.311e-05 0)
(0.0007941 -4.992e-05 0)
(0.0008111 -5.693e-05 0)
(0.0008302 -6.416e-05 0)
(0.0008516 -7.16e-05 0)
(0.0008754 -7.927e-05 0)
(0.0009015 -8.714e-05 0)
(0.0009301 -9.518e-05 0)
(0.0009612 -0.0001033 0)
(0.0009948 -0.0001116 0)
(0.001031 -0.0001198 0)
(0.001069 -0.0001278 0)
(0.00111 -0.0001357 0)
(0.001154 -0.0001431 0)
(0.001199 -0.00015 0)
(0.001246 -0.0001561 0)
(0.001295 -0.0001613 0)
(0.001346 -0.0001653 0)
(0.001397 -0.000168 0)
(0.001449 -0.000169 0)
(0.001501 -0.0001681 0)
(0.001552 -0.0001652 0)
(0.001602 -0.00016 0)
(0.00165 -0.0001525 0)
(0.001696 -0.0001426 0)
(0.001738 -0.0001302 0)
(0.001776 -0.0001155 0)
(0.001809 -9.857e-05 0)
(0.001836 -7.975e-05 0)
(0.001858 -5.938e-05 0)
(0.001873 -3.788e-05 0)
(0.001881 -1.575e-05 0)
(0.001883 6.513e-06 0)
(0.001877 2.84e-05 0)
(0.001866 4.946e-05 0)
(0.001847 6.928e-05 0)
(0.001824 8.755e-05 0)
(0.001794 0.000104 0)
(0.00176 0.0001185 0)
(0.001722 0.0001309 0)
(0.00168 0.0001412 0)
(0.001636 0.0001494 0)
(0.001589 0.0001556 0)
(0.001541 0.0001598 0)
(0.001491 0.0001621 0)
(0.001441 0.0001628 0)
(0.001391 0.000162 0)
(0.001341 0.0001598 0)
(0.001292 0.0001564 0)
(0.001244 0.000152 0)
(0.001198 0.0001468 0)
(0.001153 0.0001409 0)
(0.00111 0.0001345 0)
(0.001069 0.0001278 0)
(0.00103 0.0001209 0)
(0.0009933 0.0001138 0)
(0.0009586 0.0001067 0)
(0.000926 9.971e-05 0)
(0.0008956 9.285e-05 0)
(0.0008672 8.618e-05 0)
(0.0008408 7.976e-05 0)
(0.0008164 7.361e-05 0)
(0.0007938 6.776e-05 0)
(0.000773 6.223e-05 0)
(0.0007539 5.702e-05 0)
(0.0007363 5.214e-05 0)
(0.0007202 4.758e-05 0)
(0.0007055 4.334e-05 0)
(0.0006921 3.94e-05 0)
(0.0006799 3.576e-05 0)
(0.0006687 3.241e-05 0)
(0.0006586 2.932e-05 0)
(0.0006495 2.649e-05 0)
(0.0006412 2.39e-05 0)
(0.0006337 2.153e-05 0)
(0.000627 1.937e-05 0)
(0.0006209 1.74e-05 0)
(0.0006154 1.562e-05 0)
(0.0006104 1.4e-05 0)
(0.000606 1.254e-05 0)
(0.000602 1.122e-05 0)
(0.0005985 1.004e-05 0)
(0.0005952 8.98e-06 0)
(0.0005924 8.041e-06 0)
(0.0005898 7.215e-06 0)
(0.0005875 6.495e-06 0)
(0.0005854 5.878e-06 0)
(0.0005835 5.361e-06 0)
(0.0005818 4.942e-06 0)
(0.0005802 4.621e-06 0)
(0.0005788 4.395e-06 0)
(0.0005775 4.263e-06 0)
(0.0005762 4.219e-06 0)
(0.0005751 4.248e-06 0)
(0.0005739 4.321e-06 0)
(0.0005729 4.384e-06 0)
(0.00121 0.0001279 0)
(0.001237 0.0003007 0)
(0.001267 0.0003955 0)
(0.001285 0.0004318 0)
(0.001287 0.0004309 0)
(0.001274 0.0004089 0)
(0.00125 0.0003763 0)
(0.001219 0.0003398 0)
(0.001183 0.0003032 0)
(0.001146 0.0002684 0)
(0.001109 0.0002363 0)
(0.001073 0.0002073 0)
(0.001039 0.0001813 0)
(0.001008 0.000158 0)
(0.0009796 0.0001372 0)
(0.000954 0.0001186 0)
(0.0009313 0.000102 0)
(0.0009113 8.694e-05 0)
(0.0008941 7.331e-05 0)
(0.0008794 6.087e-05 0)
(0.0008673 4.942e-05 0)
(0.0008576 3.88e-05 0)
(0.0008501 2.885e-05 0)
(0.0008449 1.944e-05 0)
(0.0008419 1.044e-05 0)
(0.000841 1.755e-06 0)
(0.0008422 -6.72e-06 0)
(0.0008455 -1.507e-05 0)
(0.0008508 -2.338e-05 0)
(0.0008583 -3.172e-05 0)
(0.0008679 -4.015e-05 0)
(0.0008796 -4.873e-05 0)
(0.0008935 -5.75e-05 0)
(0.0009097 -6.651e-05 0)
(0.0009282 -7.578e-05 0)
(0.0009491 -8.533e-05 0)
(0.0009724 -9.518e-05 0)
(0.0009982 -0.0001053 0)
(0.001027 -0.0001157 0)
(0.001058 -0.0001263 0)
(0.001091 -0.000137 0)
(0.001128 -0.0001479 0)
(0.001167 -0.0001587 0)
(0.001209 -0.0001693 0)
(0.001253 -0.0001796 0)
(0.0013 -0.0001893 0)
(0.001349 -0.0001984 0)
(0.001401 -0.0002064 0)
(0.001454 -0.0002132 0)
(0.001509 -0.0002185 0)
(0.001564 -0.0002219 0)
(0.001621 -0.0002232 0)
(0.001677 -0.0002221 0)
(0.001733 -0.0002183 0)
(0.001787 -0.0002115 0)
(0.00184 -0.0002016 0)
(0.001889 -0.0001885 0)
(0.001935 -0.0001722 0)
(0.001976 -0.0001527 0)
(0.002012 -0.0001304 0)
(0.002043 -0.0001056 0)
(0.002066 -7.863e-05 0)
(0.002083 -5.021e-05 0)
(0.002092 -2.096e-05 0)
(0.002094 8.465e-06 0)
(0.002088 3.739e-05 0)
(0.002075 6.52e-05 0)
(0.002055 9.137e-05 0)
(0.002029 0.0001155 0)
(0.001997 0.0001372 0)
(0.00196 0.0001563 0)
(0.001919 0.0001727 0)
(0.001873 0.0001864 0)
(0.001825 0.0001972 0)
(0.001774 0.0002054 0)
(0.001722 0.000211 0)
(0.001668 0.0002142 0)
(0.001613 0.0002152 0)
(0.001559 0.0002141 0)
(0.001505 0.0002113 0)
(0.001452 0.0002069 0)
(0.0014 0.0002012 0)
(0.001349 0.0001944 0)
(0.001301 0.0001868 0)
(0.001254 0.0001784 0)
(0.001209 0.0001696 0)
(0.001167 0.0001605 0)
(0.001127 0.0001512 0)
(0.001089 0.0001419 0)
(0.001054 0.0001326 0)
(0.00102 0.0001236 0)
(0.0009894 0.0001148 0)
(0.0009606 0.0001063 0)
(0.0009339 9.819e-05 0)
(0.0009092 9.046e-05 0)
(0.0008864 8.313e-05 0)
(0.0008654 7.623e-05 0)
(0.0008462 6.976e-05 0)
(0.0008285 6.371e-05 0)
(0.0008123 5.807e-05 0)
(0.0007976 5.284e-05 0)
(0.0007841 4.8e-05 0)
(0.0007719 4.354e-05 0)
(0.0007607 3.942e-05 0)
(0.0007506 3.565e-05 0)
(0.0007415 3.219e-05 0)
(0.0007332 2.902e-05 0)
(0.0007257 2.613e-05 0)
(0.0007189 2.35e-05 0)
(0.0007128 2.111e-05 0)
(0.0007073 1.894e-05 0)
(0.0007024 1.697e-05 0)
(0.0006979 1.52e-05 0)
(0.000694 1.361e-05 0)
(0.0006904 1.219e-05 0)
(0.0006872 1.092e-05 0)
(0.0006843 9.797e-06 0)
(0.0006817 8.815e-06 0)
(0.0006794 7.968e-06 0)
(0.0006773 7.249e-06 0)
(0.0006754 6.656e-06 0)
(0.0006737 6.185e-06 0)
(0.0006721 5.832e-06 0)
(0.0006707 5.593e-06 0)
(0.0006693 5.459e-06 0)
(0.0006681 5.414e-06 0)
(0.0006669 5.429e-06 0)
(0.0006658 5.46e-06 0)
(0.001208 0.0001097 0)
(0.00123 0.0002696 0)
(0.001258 0.0003689 0)
(0.001281 0.000418 0)
(0.001292 0.0004313 0)
(0.001292 0.0004217 0)
(0.001281 0.0003984 0)
(0.001262 0.0003682 0)
(0.001237 0.000335 0)
(0.001209 0.0003017 0)
(0.00118 0.0002696 0)
(0.00115 0.0002394 0)
(0.001122 0.0002116 0)
(0.001094 0.0001861 0)
(0.001069 0.0001629 0)
(0.001046 0.0001418 0)
(0.001025 0.0001225 0)
(0.001006 0.0001049 0)
(0.0009902 8.876e-05 0)
(0.0009764 7.387e-05 0)
(0.0009649 6.005e-05 0)
(0.0009557 4.712e-05 0)
(0.0009487 3.493e-05 0)
(0.0009439 2.333e-05 0)
(0.0009413 1.219e-05 0)
(0.0009408 1.385e-06 0)
(0.0009425 -9.194e-06 0)
(0.0009462 -1.965e-05 0)
(0.0009521 -3.007e-05 0)
(0.0009602 -4.055e-05 0)
(0.0009705 -5.115e-05 0)
(0.000983 -6.194e-05 0)
(0.0009978 -7.299e-05 0)
(0.001015 -8.434e-05 0)
(0.001034 -9.601e-05 0)
(0.001057 -0.000108 0)
(0.001081 -0.0001204 0)
(0.001108 -0.0001332 0)
(0.001138 -0.0001462 0)
(0.001171 -0.0001595 0)
(0.001207 -0.0001731 0)
(0.001245 -0.0001867 0)
(0.001286 -0.0002002 0)
(0.00133 -0.0002135 0)
(0.001377 -0.0002265 0)
(0.001426 -0.0002387 0)
(0.001478 -0.0002501 0)
(0.001532 -0.0002602 0)
(0.001588 -0.0002688 0)
(0.001646 -0.0002754 0)
(0.001705 -0.0002798 0)
(0.001765 -0.0002814 0)
(0.001825 -0.00028 0)
(0.001884 -0.0002753 0)
(0.001942 -0.0002668 0)
(0.001997 -0.0002544 0)
(0.00205 -0.000238 0)
(0.002099 -0.0002174 0)
(0.002143 -0.000193 0)
(0.002182 -0.0001648 0)
(0.002214 -0.0001335 0)
(0.002239 -9.945e-05 0)
(0.002257 -6.354e-05 0)
(0.002266 -2.656e-05 0)
(0.002268 1.061e-05 0)
(0.002262 4.713e-05 0)
(0.002248 8.222e-05 0)
(0.002227 0.0001152 0)
(0.002199 0.0001456 0)
(0.002165 0.0001729 0)
(0.002126 0.000197 0)
(0.002082 0.0002176 0)
(0.002034 0.0002348 0)
(0.001982 0.0002485 0)
(0.001929 0.0002588 0)
(0.001873 0.0002659 0)
(0.001816 0.00027 0)
(0.001759 0.0002713 0)
(0.001701 0.00027 0)
(0.001644 0.0002665 0)
(0.001588 0.0002611 0)
(0.001533 0.0002539 0)
(0.00148 0.0002454 0)
(0.001428 0.0002358 0)
(0.001379 0.0002254 0)
(0.001332 0.0002143 0)
(0.001287 0.0002029 0)
(0.001245 0.0001912 0)
(0.001205 0.0001795 0)
(0.001167 0.0001679 0)
(0.001132 0.0001566 0)
(0.001099 0.0001455 0)
(0.001069 0.0001348 0)
(0.001041 0.0001246 0)
(0.001014 0.0001149 0)
(0.0009903 0.0001056 0)
(0.0009681 9.694e-05 0)
(0.0009476 8.877e-05 0)
(0.0009288 8.113e-05 0)
(0.0009116 7.401e-05 0)
(0.0008959 6.739e-05 0)
(0.0008816 6.126e-05 0)
(0.0008685 5.56e-05 0)
(0.0008566 5.039e-05 0)
(0.0008458 4.559e-05 0)
(0.000836 4.12e-05 0)
(0.0008272 3.718e-05 0)
(0.0008191 3.35e-05 0)
(0.0008119 3.015e-05 0)
(0.0008053 2.71e-05 0)
(0.0007994 2.434e-05 0)
(0.0007941 2.183e-05 0)
(0.0007893 1.957e-05 0)
(0.000785 1.753e-05 0)
(0.0007812 1.57e-05 0)
(0.0007777 1.407e-05 0)
(0.0007746 1.263e-05 0)
(0.0007718 1.136e-05 0)
(0.0007693 1.025e-05 0)
(0.0007671 9.307e-06 0)
(0.000765 8.515e-06 0)
(0.0007632 7.87e-06 0)
(0.0007616 7.368e-06 0)
(0.00076 7e-06 0)
(0.0007587 6.757e-06 0)
(0.0007574 6.623e-06 0)
(0.0007562 6.571e-06 0)
(0.0007551 6.567e-06 0)
(0.001206 9.565e-05 0)
(0.001225 0.0002425 0)
(0.001251 0.0003417 0)
(0.001275 0.0003985 0)
(0.001292 0.0004225 0)
(0.0013 0.0004234 0)
(0.001299 0.0004091 0)
(0.00129 0.0003856 0)
(0.001275 0.0003571 0)
(0.001256 0.0003265 0)
(0.001234 0.0002957 0)
(0.001211 0.0002657 0)
(0.001188 0.0002371 0)
(0.001166 0.0002104 0)
(0.001144 0.0001855 0)
(0.001124 0.0001624 0)
(0.001106 0.0001411 0)
(0.001089 0.0001213 0)
(0.001075 0.000103 0)
(0.001063 8.59e-05 0)
(0.001052 6.988e-05 0)
(0.001044 5.478e-05 0)
(0.001038 4.045e-05 0)
(0.001034 2.672e-05 0)
(0.001032 1.347e-05 0)
(0.001032 5.547e-07 0)
(0.001034 -1.213e-05 0)
(0.001038 -2.471e-05 0)
(0.001044 -3.728e-05 0)
(0.001053 -4.993e-05 0)
(0.001064 -6.275e-05 0)
(0.001077 -7.583e-05 0)
(0.001092 -8.921e-05 0)
(0.00111 -0.000103 0)
(0.00113 -0.0001171 0)
(0.001152 -0.0001317 0)
(0.001178 -0.0001467 0)
(0.001206 -0.0001621 0)
(0.001236 -0.000178 0)
(0.00127 -0.0001941 0)
(0.001307 -0.0002105 0)
(0.001346 -0.000227 0)
(0.001388 -0.0002434 0)
(0.001433 -0.0002596 0)
(0.001482 -0.0002753 0)
(0.001532 -0.0002902 0)
(0.001586 -0.0003039 0)
(0.001642 -0.0003163 0)
(0.001699 -0.0003267 0)
(0.001759 -0.0003349 0)
(0.00182 -0.0003402 0)
(0.001882 -0.0003424 0)
(0.001944 -0.0003408 0)
(0.002005 -0.0003351 0)
(0.002065 -0.000325 0)
(0.002124 -0.0003101 0)
(0.002179 -0.0002902 0)
(0.00223 -0.0002653 0)
(0.002276 -0.0002356 0)
(0.002317 -0.0002013 0)
(0.00235 -0.000163 0)
(0.002377 -0.0001215 0)
(0.002395 -7.761e-05 0)
(0.002405 -3.242e-05 0)
(0.002407 1.299e-05 0)
(0.002401 5.755e-05 0)
(0.002386 0.0001003 0)
(0.002364 0.0001405 0)
(0.002334 0.0001774 0)
(0.002299 0.0002106 0)
(0.002258 0.0002398 0)
(0.002212 0.0002648 0)
(0.002162 0.0002856 0)
(0.002109 0.0003022 0)
(0.002053 0.0003147 0)
(0.001995 0.0003233 0)
(0.001936 0.0003283 0)
(0.001877 0.0003299 0)
(0.001817 0.0003284 0)
(0.001758 0.0003242 0)
(0.0017 0.0003176 0)
(0.001644 0.000309 0)
(0.001589 0.0002987 0)
(0.001536 0.000287 0)
(0.001485 0.0002744 0)
(0.001436 0.000261 0)
(0.00139 0.0002471 0)
(0.001347 0.000233 0)
(0.001306 0.0002188 0)
(0.001267 0.0002048 0)
(0.001231 0.000191 0)
(0.001197 0.0001776 0)
(0.001166 0.0001647 0)
(0.001136 0.0001522 0)
(0.001109 0.0001404 0)
(0.001084 0.0001292 0)
(0.001061 0.0001186 0)
(0.00104 0.0001087 0)
(0.001021 9.939e-05 0)
(0.001003 9.071e-05 0)
(0.0009869 8.266e-05 0)
(0.0009721 7.519e-05 0)
(0.0009585 6.829e-05 0)
(0.0009462 6.192e-05 0)
(0.000935 5.607e-05 0)
(0.0009248 5.07e-05 0)
(0.0009155 4.578e-05 0)
(0.0009072 4.129e-05 0)
(0.0008996 3.718e-05 0)
(0.0008928 3.345e-05 0)
(0.0008866 3.006e-05 0)
(0.0008811 2.698e-05 0)
(0.0008761 2.42e-05 0)
(0.0008716 2.169e-05 0)
(0.0008675 1.944e-05 0)
(0.0008639 1.742e-05 0)
(0.0008607 1.563e-05 0)
(0.0008578 1.405e-05 0)
(0.0008551 1.267e-05 0)
(0.0008528 1.148e-05 0)
(0.0008507 1.047e-05 0)
(0.0008488 9.635e-06 0)
(0.0008471 8.965e-06 0)
(0.0008456 8.452e-06 0)
(0.0008442 8.086e-06 0)
(0.0008429 7.851e-06 0)
(0.0008417 7.727e-06 0)
(0.0008405 7.685e-06 0)
(0.001205 8.444e-05 0)
(0.001221 0.0002189 0)
(0.001245 0.0003155 0)
(0.001269 0.0003763 0)
(0.001289 0.0004078 0)
(0.001302 0.0004171 0)
(0.001308 0.0004107 0)
(0.001307 0.0003938 0)
(0.001301 0.0003703 0)
(0.00129 0.0003433 0)
(0.001275 0.0003146 0)
(0.001259 0.0002857 0)
(0.001242 0.0002574 0)
(0.001224 0.0002302 0)
(0.001207 0.0002044 0)
(0.001191 0.00018 0)
(0.001175 0.0001571 0)
(0.001161 0.0001357 0)
(0.001149 0.0001155 0)
(0.001138 9.65e-05 0)
(0.001129 7.854e-05 0)
(0.001122 6.147e-05 0)
(0.001117 4.515e-05 0)
(0.001114 2.942e-05 0)
(0.001113 1.415e-05 0)
(0.001113 -7.836e-07 0)
(0.001116 -1.552e-05 0)
(0.00112 -3.017e-05 0)
(0.001127 -4.486e-05 0)
(0.001136 -5.967e-05 0)
(0.001147 -7.47e-05 0)
(0.00116 -9.005e-05 0)
(0.001176 -0.0001058 0)
(0.001193 -0.0001219 0)
(0.001214 -0.0001386 0)
(0.001236 -0.0001557 0)
(0.001262 -0.0001734 0)
(0.00129 -0.0001916 0)
(0.001321 -0.0002102 0)
(0.001355 -0.0002292 0)
(0.001391 -0.0002485 0)
(0.001431 -0.0002679 0)
(0.001473 -0.0002873 0)
(0.001519 -0.0003064 0)
(0.001567 -0.0003249 0)
(0.001618 -0.0003425 0)
(0.001672 -0.0003588 0)
(0.001728 -0.0003735 0)
(0.001787 -0.0003859 0)
(0.001847 -0.0003957 0)
(0.001909 -0.0004022 0)
(0.001972 -0.0004049 0)
(0.002035 -0.0004033 0)
(0.002097 -0.0003968 0)
(0.002159 -0.0003851 0)
(0.002219 -0.0003676 0)
(0.002275 -0.0003443 0)
(0.002328 -0.000315 0)
(0.002376 -0.0002799 0)
(0.002417 -0.0002393 0)
(0.002452 -0.0001938 0)
(0.00248 -0.0001444 0)
(0.002499 -9.219e-05 0)
(0.002509 -3.839e-05 0)
(0.002511 1.564e-05 0)
(0.002503 6.859e-05 0)
(0.002488 0.0001193 0)
(0.002465 0.0001668 0)
(0.002435 0.0002105 0)
(0.002398 0.0002496 0)
(0.002356 0.000284 0)
(0.002309 0.0003135 0)
(0.002258 0.0003379 0)
(0.002204 0.0003574 0)
(0.002147 0.0003721 0)
(0.002088 0.0003822 0)
(0.002029 0.000388 0)
(0.001968 0.0003899 0)
(0.001908 0.0003881 0)
(0.001848 0.0003831 0)
(0.00179 0.0003753 0)
(0.001732 0.0003651 0)
(0.001677 0.000353 0)
(0.001623 0.0003393 0)
(0.001572 0.0003243 0)