/*--------------------------------*- C++ -*----------------------------------*\
  =========                 |
  \\      /  F ield         | OpenFOAM: The Open Source CFD Toolbox
   \\    /   O peration     | Website:  https://openfoam.org
    \\  /    A nd           | Version:  7
     \\/     M anipulation  |
\*---------------------------------------------------------------------------*/
FoamFile
{
    version     2.0;
    format      ascii;
    class       volScalarField;
    location    "1439.99947341967936";
    object      Y.K;
}
// * * * * * * * * * * * * * * * * * * * * * * * * * * * * * * * * * * * * * //

dimensions      [0 0 0 0 0 0 0];

internalField   nonuniform List<scalar> 
4096
(
2.452e-71
2.187e-69
-7.551e-70
1.051e-69
-3.542e-70
-8.097e-70
3.516e-70
2.583e-70
-1.472e-70
3.986e-71
-1.041e-70
2.304e-69
-3.218e-68
4.677e-67
-6.295e-66
8.544e-65
-1.132e-63
1.523e-62
-2e-61
2.645e-60
-3.351e-59
4.18e-58
-5.214e-57
6.293e-56
-7.181e-55
8.107e-54
-8.601e-53
9.003e-52
-9.175e-51
9.168e-50
-8.965e-49
8.59e-48
-7.879e-47
7.076e-46
-6.102e-45
5.119e-44
-4.061e-43
3.012e-42
-2.113e-41
1.398e-40
-8.422e-40
4.57e-39
-2.164e-38
8.282e-38
-2.183e-37
-1.83e-37
5.937e-36
-4.959e-35
2.16e-34
-6.391e-34
-3.127e-34
2.165e-32
-1.5e-31
1.177e-30
-4.269e-30
4.115e-29
-1.106e-28
1.206e-27
-1.535e-27
2.011e-26
1.269e-26
3.608e-25
1.248e-24
3.079e-24
2.427e-23
7.413e-23
2.125e-22
1.495e-21
6.647e-21
9.1e-20
1.316e-18
3.784e-18
8.035e-18
1.514e-17
2.673e-17
4.524e-17
7.417e-17
1.184e-16
1.847e-16
2.82e-16
4.224e-16
6.214e-16
8.986e-16
1.279e-15
1.794e-15
2.48e-15
3.384e-15
4.56e-15
6.074e-15
8.004e-15
1.044e-14
1.349e-14
1.727e-14
2.192e-14
2.762e-14
3.455e-14
4.292e-14
5.298e-14
6.501e-14
7.933e-14
9.629e-14
1.163e-13
1.399e-13
1.674e-13
1.996e-13
2.371e-13
2.805e-13
3.309e-13
3.889e-13
4.557e-13
5.325e-13
6.204e-13
7.209e-13
8.355e-13
9.661e-13
1.114e-12
1.283e-12
1.473e-12
1.688e-12
1.931e-12
2.203e-12
2.51e-12
2.852e-12
3.232e-12
3.647e-12
4.089e-12
4.524e-12
4.867e-12
-7.279e-69
3.843e-68
-4.946e-68
7.615e-69
3.469e-68
-3.066e-68
8.823e-70
1.763e-68
-3.679e-69
-3.9e-71
-6.957e-69
1.204e-67
-1.766e-66
2.422e-65
-3.259e-64
4.349e-63
-5.801e-62
7.745e-61
-1.026e-59
1.345e-58
-1.739e-57
2.18e-56
-2.68e-55
3.204e-54
-3.708e-53
4.163e-52
-4.435e-51
4.583e-50
-4.667e-49
4.659e-48
-4.554e-47
4.342e-46
-4.022e-45
3.606e-44
-3.114e-43
2.577e-42
-2.033e-41
1.52e-40
-1.068e-39
6.995e-39
-4.217e-38
2.298e-37
-1.099e-36
4.313e-36
-1.262e-35
3.836e-37
2.497e-34
-2.316e-33
1.054e-32
-3.484e-32
2.228e-32
8.752e-31
-6.173e-30
5.081e-29
-1.546e-28
1.808e-27
-3.226e-27
5.552e-26
-4.066e-26
9.39e-25
1.204e-24
1.747e-23
6.108e-23
1.63e-22
1.091e-21
3.372e-21
9.301e-21
5.592e-20
1.921e-19
1.217e-18
3.393e-18
7.21e-18
1.365e-17
2.419e-17
4.099e-17
6.714e-17
1.07e-16
1.664e-16
2.533e-16
3.782e-16
5.544e-16
7.992e-16
1.134e-15
1.586e-15
2.188e-15
2.98e-15
4.01e-15
5.336e-15
7.026e-15
9.161e-15
1.184e-14
1.516e-14
1.926e-14
2.429e-14
3.041e-14
3.782e-14
4.674e-14
5.744e-14
7.019e-14
8.534e-14
1.033e-13
1.244e-13
1.491e-13
1.781e-13
2.119e-13
2.512e-13
2.967e-13
3.493e-13
4.1e-13
4.799e-13
5.6e-13
6.518e-13
7.566e-13
8.761e-13
1.012e-12
1.167e-12
1.342e-12
1.54e-12
1.764e-12
2.016e-12
2.3e-12
2.618e-12
2.975e-12
3.373e-12
3.813e-12
4.292e-12
4.797e-12
5.274e-12
1.632e-67
-1.137e-66
2.863e-66
-3.864e-66
2.726e-66
-4.633e-67
-9.344e-67
8.548e-67
1.328e-67
-1.114e-67
-4.457e-67
5.943e-66
-8.589e-65
1.147e-63
-1.511e-62
1.99e-61
-2.64e-60
3.528e-59
-4.682e-58
6.175e-57
-8.016e-56
1.006e-54
-1.238e-53
1.48e-52
-1.711e-51
1.917e-50
-2.044e-49
2.116e-48
-2.158e-47
2.156e-46
-2.107e-45
2.009e-44
-1.86e-43
1.667e-42
-1.439e-41
1.191e-40
-9.397e-40
7.033e-39
-4.955e-38
3.259e-37
-1.979e-36
1.092e-35
-5.332e-35
2.189e-34
-7.267e-34
7.088e-34
7.794e-33
-9.821e-32
4.851e-31
-1.829e-30
3.038e-30
2.617e-29
-1.893e-28
1.94e-27
-3e-27
7.195e-26
-3.501e-27
2.423e-24
6.019e-25
4.157e-23
9.496e-23
8.525e-22
2.926e-21
8.301e-21
4.645e-20
1.41e-19
3.657e-19
1.693e-18
4.473e-18
9.283e-18
1.743e-17
3.08e-17
5.21e-17
8.509e-17
1.349e-16
2.082e-16
3.137e-16
4.625e-16
6.684e-16
9.486e-16
1.324e-15
1.819e-15
2.465e-15
3.298e-15
4.361e-15
5.705e-15
7.39e-15
9.488e-15
1.208e-14
1.527e-14
1.916e-14
2.389e-14
2.961e-14
3.649e-14
4.474e-14
5.459e-14
6.63e-14
8.017e-14
9.655e-14
1.158e-13
1.385e-13
1.649e-13
1.958e-13
2.317e-13
2.733e-13
3.215e-13
3.771e-13
4.411e-13
5.147e-13
5.991e-13
6.957e-13
8.059e-13
9.315e-13
1.074e-12
1.237e-12
1.42e-12
1.628e-12
1.863e-12
2.127e-12
2.425e-12
2.759e-12
3.134e-12
3.554e-12
4.022e-12
4.542e-12
5.118e-12
5.753e-12
6.465e-12
-2.677e-66
2.128e-65
-7.513e-65
1.631e-64
-2.313e-64
2.177e-64
-1.26e-64
2.749e-65
1.612e-65
-8e-66
-2.962e-65
2.577e-64
-3.654e-63
4.62e-62
-5.84e-61
7.5e-60
-9.868e-59
1.328e-57
-1.775e-56
2.38e-55
-3.124e-54
3.935e-53
-4.87e-52
5.843e-51
-6.77e-50
7.585e-49
-8.115e-48
8.444e-47
-8.644e-46
8.655e-45
-8.474e-44
8.091e-43
-7.504e-42
6.735e-41
-5.825e-40
4.833e-39
-3.829e-38
2.88e-37
-2.044e-36
1.358e-35
-8.362e-35
4.712e-34
-2.378e-33
1.04e-32
-3.587e-32
7.856e-32
6.789e-32
-3.438e-30
1.96e-29
-8.721e-29
2.512e-28
2.714e-28
-2.663e-27
6.258e-26
7.202e-26
2.549e-24
6.214e-24
9.67e-23
1.352e-22
1.636e-21
5.967e-21
3.82e-20
1.254e-19
3.588e-19
1.556e-18
4.343e-18
9.53e-18
1.895e-17
3.538e-17
6.291e-17
1.073e-16
1.763e-16
2.803e-16
4.323e-16
6.482e-16
9.473e-16
1.352e-15
1.889e-15
2.588e-15
3.482e-15
4.611e-15
6.018e-15
7.753e-15
9.874e-15
1.245e-14
1.554e-14
1.926e-14
2.369e-14
2.897e-14
3.522e-14
4.261e-14
5.133e-14
6.158e-14
7.363e-14
8.775e-14
1.043e-13
1.236e-13
1.46e-13
1.722e-13
2.025e-13
2.377e-13
2.784e-13
3.254e-13
3.796e-13
4.42e-13
5.136e-13
5.956e-13
6.895e-13
7.967e-13
9.19e-13
1.058e-12
1.216e-12
1.396e-12
1.599e-12
1.828e-12
2.087e-12
2.379e-12
2.708e-12
3.077e-12
3.49e-12
3.953e-12
4.47e-12
5.046e-12
5.688e-12
6.4e-12
7.191e-12
8.075e-12
9.188e-12
3.795e-65
-3.278e-64
1.432e-63
-4.155e-63
8.453e-63
-1.252e-62
1.366e-62
-1.072e-62
5.505e-63
-1.313e-63
-1.334e-63
8.804e-63
-1.259e-61
1.401e-60
-1.597e-59
1.938e-58
-2.543e-57
3.559e-56
-4.927e-55
7.002e-54
-9.527e-53
1.218e-51
-1.536e-50
1.869e-49
-2.183e-48
2.46e-47
-2.655e-46
2.788e-45
-2.877e-44
2.895e-43
-2.846e-42
2.73e-41
-2.543e-40
2.293e-39
-1.994e-38
1.665e-37
-1.33e-36
1.01e-35
-7.263e-35
4.906e-34
-3.09e-33
1.796e-32
-9.476e-32
4.465e-31
-1.722e-30
6.062e-30
-7.853e-30
-7.577e-29
6.171e-28
-3.116e-27
1.511e-26
-1.842e-26
7.916e-26
1.75e-24
1.184e-23
8.697e-23
5.718e-22
3.427e-21
1.116e-20
7.177e-20
2.866e-19
1.326e-18
4.109e-18
1.005e-17
2.211e-17
4.532e-17
8.771e-17
1.613e-16
2.835e-16
4.773e-16
7.727e-16
1.206e-15
1.82e-15
2.662e-15
3.783e-15
5.238e-15
7.081e-15
9.367e-15
1.215e-14
1.549e-14
1.945e-14
2.41e-14
2.949e-14
3.574e-14
4.292e-14
5.117e-14
6.062e-14
7.145e-14
8.384e-14
9.802e-14
1.143e-13
1.329e-13
1.543e-13
1.788e-13
2.069e-13
2.391e-13
2.761e-13
3.185e-13
3.672e-13
4.229e-13
4.868e-13
5.598e-13
6.433e-13
7.386e-13
8.473e-13
9.71e-13
1.112e-12
1.272e-12
1.453e-12
1.659e-12
1.892e-12
2.155e-12
2.452e-12
2.786e-12
3.162e-12
3.584e-12
4.058e-12
4.589e-12
5.182e-12
5.844e-12
6.581e-12
7.402e-12
8.314e-12
9.324e-12
1.044e-11
1.168e-11
1.305e-11
1.492e-11
-4.944e-64
4.507e-63
-2.283e-62
8.141e-62
-2.132e-61
4.246e-61
-6.566e-61
7.903e-61
-7.25e-61
4.801e-61
-2.351e-61
1.517e-61
-2.616e-60
1.471e-59
-4.223e-59
-1.253e-58
-3.376e-57
2.395e-55
-5.264e-54
1.152e-52
-1.848e-51
2.531e-50
-3.42e-49
4.388e-48
-5.275e-47
6.063e-46
-6.688e-45
7.153e-44
-7.503e-43
7.627e-42
-7.558e-41
7.31e-40
-6.871e-39
6.256e-38
-5.499e-37
4.645e-36
-3.764e-35
2.908e-34
-2.134e-33
1.479e-32
-9.616e-32
5.827e-31
-3.251e-30
1.664e-29
-7.275e-29
2.685e-28
-7.215e-28
5.266e-28
8.39e-27
-8.402e-26
6.685e-25
-1.101e-24
9.321e-24
8.477e-23
6.665e-22
4.703e-21
3.319e-20
1.555e-19
5.525e-19
2.529e-18
8.311e-18
2.189e-17
5.196e-17
1.147e-16
2.375e-16
4.644e-16
8.602e-16
1.515e-15
2.544e-15
4.086e-15
6.297e-15
9.341e-15
1.337e-14
1.853e-14
2.493e-14
3.266e-14
4.174e-14
5.222e-14
6.407e-14
7.729e-14
9.19e-14
1.079e-13
1.254e-13
1.444e-13
1.652e-13
1.879e-13
2.128e-13
2.402e-13
2.705e-13
3.041e-13
3.417e-13
3.836e-13
4.308e-13
4.839e-13
5.438e-13
6.115e-13
6.881e-13
7.749e-13
8.733e-13
9.849e-13
1.111e-12
1.255e-12
1.417e-12
1.602e-12
1.81e-12
2.046e-12
2.312e-12
2.613e-12
2.952e-12
3.335e-12
3.765e-12
4.248e-12
4.79e-12
5.398e-12
6.079e-12
6.84e-12
7.69e-12
8.637e-12
9.692e-12
1.086e-11
1.216e-11
1.36e-11
1.52e-11
1.695e-11
1.889e-11
2.102e-11
2.337e-11
2.671e-11
6.096e-63
-5.759e-62
3.248e-61
-1.354e-60
4.301e-60
-1.073e-59
2.145e-59
-3.462e-59
4.472e-59
-4.474e-59
3.149e-59
-2.885e-59
7.82e-59
-1.824e-57
2.94e-56
-3.798e-55
4.206e-54
-3.97e-53
3.764e-52
-2.132e-51
2.22e-51
1.111e-49
-3.108e-48
5.72e-47
-7.83e-46
9.703e-45
-1.139e-43
1.276e-42
-1.39e-41
1.447e-40
-1.45e-39
1.425e-38
-1.361e-37
1.262e-36
-1.13e-35
9.745e-35
-8.101e-34
6.438e-33
-4.885e-32
3.517e-31
-2.393e-30
1.533e-29
-9.17e-29
5.155e-28
-2.493e-27
1.103e-26
-4.023e-26
1.471e-25
-2.131e-25
-3.926e-25
2.136e-23
-3.877e-24
6.238e-22
4.519e-21
3.671e-20
2.253e-19
1.298e-18
5.033e-18
1.579e-17
4.459e-17
1.164e-16
2.829e-16
6.426e-16
1.368e-15
2.737e-15
5.158e-15
9.18e-15
1.549e-14
2.484e-14
3.802e-14
5.569e-14
7.837e-14
1.063e-13
1.393e-13
1.772e-13
2.192e-13
2.647e-13
3.126e-13
3.624e-13
4.133e-13
4.651e-13
5.175e-13
5.707e-13
6.248e-13
6.806e-13
7.385e-13
7.994e-13
8.643e-13
9.342e-13
1.01e-12
1.094e-12
1.186e-12
1.289e-12
1.403e-12
1.532e-12
1.676e-12
1.838e-12
2.021e-12
2.227e-12
2.46e-12
2.722e-12
3.018e-12
3.351e-12
3.727e-12
4.15e-12
4.626e-12
5.161e-12
5.762e-12
6.436e-12
7.192e-12
8.039e-12
8.986e-12
1.004e-11
1.122e-11
1.254e-11
1.4e-11
1.563e-11
1.744e-11
1.944e-11
2.166e-11
2.411e-11
2.681e-11
2.979e-11
3.306e-11
3.665e-11
4.059e-11
4.488e-11
5.12e-11
-7.206e-62
6.974e-61
-4.264e-60
2.008e-59
-7.453e-59
2.232e-58
-5.493e-58
1.119e-57
-1.882e-57
2.548e-57
-2.624e-57
-3.794e-59
1.088e-56
-1.666e-55
2.187e-54
-2.525e-53
2.671e-52
-2.623e-51
2.413e-50
-2.098e-49
1.638e-48
-1.419e-47
1.2e-46
-3.641e-46
-9.984e-46
4.848e-44
-8.277e-43
1.082e-41
-1.277e-40
1.419e-39
-1.516e-38
1.575e-37
-1.571e-36
1.52e-35
-1.424e-34
1.28e-33
-1.13e-32
9.502e-32
-7.69e-31
5.902e-30
-4.305e-29
2.979e-28
-1.944e-27
1.213e-26
-6.45e-26
3.331e-25
-1.451e-24
5.996e-24
-2.292e-23
5.339e-23
2.482e-22
1.315e-21
3.519e-20
2.271e-19
1.464e-18
6.469e-18
2.326e-17
7.529e-17
2.244e-16
6.191e-16
1.585e-15
3.773e-15
8.36e-15
1.729e-14
3.343e-14
6.063e-14
1.035e-13
1.669e-13
2.552e-13
3.714e-13
5.161e-13
6.878e-13
8.82e-13
1.093e-12
1.312e-12
1.531e-12
1.744e-12
1.943e-12
2.127e-12
2.293e-12
2.442e-12
2.575e-12
2.695e-12
2.807e-12
2.913e-12
3.018e-12
3.125e-12
3.238e-12
3.362e-12
3.499e-12
3.654e-12
3.829e-12
4.028e-12
4.255e-12
4.513e-12
4.808e-12
5.143e-12
5.524e-12
5.955e-12
6.443e-12
6.994e-12
7.616e-12
8.317e-12
9.105e-12
9.991e-12
1.098e-11
1.21e-11
1.335e-11
1.474e-11
1.63e-11
1.804e-11
1.997e-11
2.213e-11
2.452e-11
2.718e-11
3.013e-11
3.339e-11
3.7e-11
4.099e-11
4.538e-11
5.022e-11
5.554e-11
6.137e-11
6.775e-11
7.474e-11
8.236e-11
9.058e-11
1.03e-10
8.199e-61
-8.065e-60
5.247e-59
-2.728e-58
1.151e-57
-4.022e-57
1.181e-56
-2.935e-56
6.164e-56
-1.074e-55
1.49e-55
-2.106e-55
6.554e-55
-8.317e-54
9.646e-53
-9.983e-52
9.786e-51
-9.147e-50
8.235e-49
-7.183e-48
6.088e-47
-5.017e-46
4.009e-45
-3.093e-44
2.283e-43
-1.592e-42
9.982e-42
-6.1e-41
3.259e-40
-9.257e-40
-9.741e-39
2.488e-37
-3.291e-36
3.945e-35
-4.37e-34
4.435e-33
-4.736e-32
4.471e-31
-4.18e-30
3.494e-29
-2.734e-28
2.018e-27
-1.401e-26
9.25e-26
-5.605e-25
3.321e-24
-1.835e-23
1.009e-22
-4.448e-22
3.114e-21
3.51e-21
1.339e-19
1.188e-18
6.177e-18
2.611e-17
9.911e-17
3.449e-16
1.105e-15
3.267e-15
8.91e-15
2.244e-14
5.229e-14
1.128e-13
2.26e-13
4.214e-13
7.341e-13
1.199e-12
1.844e-12
2.681e-12
3.7e-12
4.869e-12
6.135e-12
7.428e-12
8.684e-12
9.825e-12
1.081e-11
1.16e-11
1.22e-11
1.261e-11
1.285e-11
1.298e-11
1.296e-11
1.29e-11
1.279e-11
1.266e-11
1.254e-11
1.244e-11
1.236e-11
1.236e-11
1.239e-11
1.249e-11
1.266e-11
1.291e-11
1.325e-11
1.367e-11
1.42e-11
1.482e-11
1.556e-11
1.643e-11
1.742e-11
1.856e-11
1.987e-11
2.134e-11
2.301e-11
2.489e-11
2.701e-11
2.937e-11
3.202e-11
3.498e-11
3.828e-11
4.195e-11
4.602e-11
5.054e-11
5.556e-11
6.11e-11
6.723e-11
7.399e-11
8.144e-11
8.964e-11
9.865e-11
1.085e-10
1.193e-10
1.312e-10
1.441e-10
1.581e-10
1.734e-10
1.898e-10
2.149e-10
-8.96e-60
8.91e-59
-6.088e-58
3.434e-57
-1.616e-56
6.45e-56
-2.21e-55
6.55e-55
-1.676e-54
3.642e-54
-6.344e-54
4.069e-54
2.753e-53
-2.748e-52
2.748e-51
-2.499e-50
2.244e-49
-1.953e-48
1.664e-47
-1.394e-46
1.151e-45
-9.374e-45
7.522e-44
-5.932e-43
4.584e-42
-3.477e-41
2.566e-40
-2.02e-39
1.517e-38
-1.193e-37
9.745e-37
-8.14e-36
7.774e-35
-7.108e-34
6.207e-33
-5.162e-32
3.886e-31
-2.991e-30
2.119e-29
-1.47e-28
9.562e-28
-5.744e-27
3.299e-26
-1.613e-25
6.051e-25
-2.031e-24
3.024e-25
1.54e-22
5.066e-22
5.454e-20
4.545e-19
3.71e-18
2.053e-17
9.426e-17
3.907e-16
1.484e-15
5.172e-15
1.654e-14
4.855e-14
1.308e-13
3.235e-13
7.36e-13
1.543e-12
2.986e-12
5.354e-12
8.929e-12
1.391e-11
2.035e-11
2.806e-11
3.667e-11
4.559e-11
5.426e-11
6.191e-11
6.824e-11
7.261e-11
7.531e-11
7.604e-11
7.54e-11
7.377e-11
7.127e-11
6.82e-11
6.482e-11
6.137e-11
5.802e-11
5.487e-11
5.202e-11
4.95e-11
4.733e-11
4.553e-11
4.409e-11
4.3e-11
4.227e-11
4.177e-11
4.179e-11
4.203e-11
4.255e-11
4.342e-11
4.462e-11
4.616e-11
4.805e-11
5.03e-11
5.295e-11
5.601e-11
5.952e-11
6.351e-11
6.802e-11
7.31e-11
7.879e-11
8.516e-11
9.225e-11
1.001e-10
1.089e-10
1.186e-10
1.293e-10
1.411e-10
1.542e-10
1.685e-10
1.843e-10
2.015e-10
2.205e-10
2.411e-10
2.637e-10
2.883e-10
3.151e-10
3.441e-10
3.756e-10
4.09e-10
4.61e-10
9.338e-59
-9.345e-58
6.641e-57
-4.011e-56
2.075e-55
-9.313e-55
3.666e-54
-1.274e-53
3.914e-53
-1.054e-52
2.438e-52
-4.798e-52
1.075e-51
-4.522e-51
4.691e-50
-3.854e-49
3.172e-48
-2.521e-47
1.996e-46
-1.587e-45
1.268e-44
-1.014e-43
8.106e-43
-6.407e-42
4.942e-41
-3.676e-40
2.504e-39
-1.897e-38
7.998e-38
-1.236e-37
-2.15e-36
3.634e-35
-3.209e-34
2.705e-33
-2.324e-32
1.695e-31
-1.201e-30
4.651e-30
-3.812e-30
-1.949e-28
2.995e-27
-3.135e-26
2.715e-25
-2.178e-24
1.484e-23
-1.003e-22
7.27e-22
-1.466e-21
1.473e-19
1.675e-18
1.113e-17
6.132e-17
3.055e-16
1.394e-15
5.824e-15
2.227e-14
7.779e-14
2.48e-13
7.217e-13
1.916e-12
4.646e-12
1.03e-11
2.091e-11
3.898e-11
6.697e-11
1.066e-10
1.58e-10
2.191e-10
2.86e-10
3.532e-10
4.139e-10
4.651e-10
4.983e-10
5.18e-10
5.154e-10
5.039e-10
4.823e-10
4.531e-10
4.194e-10
3.839e-10
3.488e-10
3.155e-10
2.848e-10
2.573e-10
2.33e-10
2.12e-10
1.94e-10
1.788e-10
1.662e-10
1.557e-10
1.472e-10
1.405e-10
1.354e-10
1.317e-10
1.293e-10
1.278e-10
1.28e-10
1.289e-10
1.309e-10
1.338e-10
1.378e-10
1.428e-10
1.489e-10
1.561e-10
1.644e-10
1.74e-10
1.849e-10
1.972e-10
2.11e-10
2.264e-10
2.435e-10
2.625e-10
2.836e-10
3.068e-10
3.324e-10
3.606e-10
3.916e-10
4.254e-10
4.625e-10
5.03e-10
5.471e-10
5.952e-10
6.474e-10
7.039e-10
7.651e-10
8.314e-10
9.01e-10
1.011e-09
-9.157e-58
9.187e-57
-6.738e-56
4.314e-55
-2.424e-54
1.208e-53
-5.394e-53
2.171e-52
-7.889e-52
2.568e-51
-7.281e-51
1.656e-50
-1.516e-50
-6.8e-50
8.016e-49
-3.609e-48
1.744e-47
-8.422e-47
5.136e-46
-3.915e-45
3.317e-44
-3.037e-43
3.122e-42
-3.384e-41
3.761e-40
-4.174e-39
4.062e-38
-3.644e-37
3.024e-36
-2.389e-35
1.726e-34
-1.174e-33
8.329e-33
-2.983e-32
3.065e-32
1.201e-30
-1.937e-29
2.123e-28
-1.969e-27
1.644e-26
-1.265e-25
9.115e-25
-6.21e-24
3.938e-23
-2.419e-22
1.512e-21
-4.631e-21
2.8e-19
3.483e-18
2.537e-17
1.552e-16
8.601e-16
4.362e-15
2.022e-14
8.549e-14
3.29e-13
1.151e-12
3.652e-12
1.052e-11
2.746e-11
6.507e-11
1.401e-10
2.747e-10
4.916e-10
8.066e-10
1.221e-09
1.716e-09
2.25e-09
2.774e-09
3.232e-09
3.56e-09
3.781e-09
3.767e-09
3.674e-09
3.483e-09
3.217e-09
2.908e-09
2.585e-09
2.268e-09
1.972e-09
1.706e-09
1.472e-09
1.271e-09
1.1e-09
9.572e-10
8.383e-10
7.401e-10
6.593e-10
5.933e-10
5.395e-10
4.959e-10
4.609e-10
4.331e-10
4.115e-10
3.951e-10
3.833e-10
3.757e-10
3.709e-10
3.712e-10
3.736e-10
3.789e-10
3.871e-10
3.982e-10
4.122e-10
4.291e-10
4.49e-10
4.721e-10
4.984e-10
5.283e-10
5.618e-10
5.992e-10
6.408e-10
6.869e-10
7.379e-10
7.939e-10
8.555e-10
9.23e-10
9.968e-10
1.077e-09
1.165e-09
1.261e-09
1.364e-09
1.477e-09
1.598e-09
1.729e-09
1.87e-09
2.018e-09
2.251e-09
8.275e-57
-8.292e-56
6.234e-55
-4.195e-54
2.535e-53
-1.388e-52
6.953e-52
-3.208e-51
1.37e-50
-5.41e-50
1.955e-49
-6.259e-49
1.612e-48
-9.433e-49
-1.62e-47
1.425e-46
-8.502e-46
4.822e-45
-2.569e-44
1.596e-43
-1.339e-42
1.344e-41
-1.331e-40
1.264e-39
-1.096e-38
8.145e-38
-6.048e-37
3.599e-36
-1.154e-35
-2.225e-35
1.043e-33
-1.462e-32
1.586e-31
-1.515e-30
1.331e-29
-1.097e-28
8.58e-28
-6.397e-27
4.564e-26
-3.119e-25
2.049e-24
-1.289e-23
7.793e-23
-4.503e-22
2.649e-21
-9.622e-21
4.453e-19
6.089e-18
4.885e-17
3.326e-16
2.058e-15
1.166e-14
6.029e-14
2.838e-13
1.213e-12
4.69e-12
1.639e-11
5.17e-11
1.47e-10
3.766e-10
8.697e-10
1.813e-09
3.419e-09
5.851e-09
9.131e-09
1.31e-08
1.739e-08
2.15e-08
2.506e-08
2.741e-08
2.833e-08
2.786e-08
2.654e-08
2.444e-08
2.186e-08
1.908e-08
1.633e-08
1.377e-08
1.149e-08
9.522e-09
7.867e-09
6.499e-09
5.384e-09
4.483e-09
3.759e-09
3.18e-09
2.717e-09
2.348e-09
2.053e-09
1.817e-09
1.629e-09
1.478e-09
1.359e-09
1.264e-09
1.19e-09
1.134e-09
1.092e-09
1.062e-09
1.044e-09
1.036e-09
1.038e-09
1.047e-09
1.064e-09
1.089e-09
1.122e-09
1.162e-09
1.21e-09
1.266e-09
1.33e-09
1.402e-09
1.484e-09
1.576e-09
1.677e-09
1.789e-09
1.912e-09
2.048e-09
2.196e-09
2.358e-09
2.535e-09
2.727e-09
2.936e-09
3.161e-09
3.405e-09
3.668e-09
3.951e-09
4.256e-09
4.572e-09
5.076e-09
-6.675e-56
6.656e-55
-5.099e-54
3.576e-53
-2.301e-52
1.368e-51
-7.585e-51
3.953e-50
-1.951e-49
9.169e-49
-4.11e-48
1.748e-47
-6.908e-47
2.375e-46
-5.496e-46
-1.856e-45
3.673e-44
-3.109e-43
2.477e-42
-1.801e-41
1.209e-40
-7.465e-40
4.201e-39
-1.892e-38
2.871e-38
5.723e-37
-9.445e-36
1.053e-34
-1.012e-33
8.956e-33
-7.497e-32
6.012e-31
-4.649e-30
3.48e-29
-2.527e-28
1.781e-27
-1.219e-26
8.099e-26
-5.221e-25
3.267e-24
-1.973e-23
1.163e-22
-6.515e-22
3.76e-21
-1.47e-20
5.82e-19
8.766e-18
7.762e-17
5.892e-16
4.082e-15
2.591e-14
1.501e-13
7.909e-13
3.774e-12
1.627e-11
6.312e-11
2.2e-10
6.878e-10
1.925e-09
4.824e-09
1.082e-08
2.175e-08
3.93e-08
6.403e-08
9.462e-08
1.281e-07
1.602e-07
1.868e-07
2.063e-07
2.074e-07
2.018e-07
1.886e-07
1.696e-07
1.476e-07
1.249e-07
1.033e-07
8.405e-08
6.751e-08
5.378e-08
4.265e-08
3.38e-08
2.684e-08
2.143e-08
1.723e-08
1.398e-08
1.147e-08
9.526e-09
8.012e-09
6.831e-09
5.906e-09
5.178e-09
4.604e-09
4.15e-09
3.792e-09
3.511e-09
3.291e-09
3.122e-09
2.996e-09
2.906e-09
2.848e-09
2.81e-09
2.812e-09
2.828e-09
2.865e-09
2.922e-09
2.999e-09
3.096e-09
3.213e-09
3.349e-09
3.506e-09
3.684e-09
3.884e-09
4.107e-09
4.354e-09
4.627e-09
4.926e-09
5.254e-09
5.611e-09
6.001e-09
6.423e-09
6.881e-09
7.376e-09
7.909e-09
8.483e-09
9.099e-09
9.763e-09
1.044e-08
1.154e-08
4.6e-55
-4.551e-54
3.532e-53
-2.56e-52
1.733e-51
-1.103e-50
6.645e-50
-3.826e-49
2.124e-48
-1.148e-47
6.111e-47
-3.242e-46
1.736e-45
-9.507e-45
5.375e-44
-3.156e-43
1.925e-42
-1.214e-41
7.862e-41
-5.202e-40
3.503e-39
-2.397e-38
1.669e-37
-1.183e-36
8.588e-36
-6.254e-35
4.537e-34
-3.276e-33
2.35e-32
-1.67e-31
1.173e-30
-8.138e-30
5.563e-29
-3.742e-28
2.474e-27
-1.604e-26
1.019e-25
-6.338e-25
3.851e-24
-2.278e-23
1.327e-22
-7.314e-22
4.225e-21
-1.705e-20
6.16e-19
1.022e-17
9.983e-17
8.452e-16
6.559e-15
4.671e-14
3.04e-13
1.798e-12
9.631e-12
4.649e-11
2.016e-10
7.825e-10
2.712e-09
8.376e-09
2.301e-08
5.614e-08
1.218e-07
2.35e-07
4.048e-07
6.249e-07
8.705e-07
1.108e-06
1.304e-06
1.448e-06
1.444e-06
1.392e-06
1.282e-06
1.132e-06
9.626e-07
7.939e-07
6.385e-07
5.034e-07
3.911e-07
3.007e-07
2.298e-07
1.753e-07
1.339e-07
1.028e-07
7.943e-08
6.198e-08
4.89e-08
3.908e-08
3.167e-08
2.604e-08
2.173e-08
1.842e-08
1.585e-08
1.385e-08
1.229e-08
1.106e-08
1.009e-08
9.333e-09
8.743e-09
8.29e-09
7.951e-09
7.707e-09
7.546e-09
7.443e-09
7.435e-09
7.471e-09
7.557e-09
7.696e-09
7.884e-09
8.122e-09
8.409e-09
8.744e-09
9.13e-09
9.566e-09
1.006e-08
1.06e-08
1.12e-08
1.186e-08
1.259e-08
1.338e-08
1.424e-08
1.517e-08
1.618e-08
1.727e-08
1.844e-08
1.97e-08
2.105e-08
2.249e-08
2.397e-08
2.636e-08
-2.569e-54
2.522e-53
-1.973e-52
1.465e-51
-1.03e-50
6.887e-50
-4.402e-49
2.705e-48
-1.607e-47
9.275e-47
-5.226e-46
2.886e-45
-1.568e-44
8.41e-44
-4.476e-43
2.381e-42
-1.282e-41
7.098e-41
-4.138e-40
2.581e-39
-1.737e-38
1.248e-37
-9.395e-37
7.255e-36
-5.694e-35
4.297e-34
-3.155e-33
2.269e-32
-1.602e-31
1.112e-30
-7.589e-30
5.098e-29
-3.37e-28
2.191e-27
-1.401e-26
8.795e-26
-5.422e-25
3.279e-24
-1.941e-23
1.132e-22
-6.234e-22
3.714e-21
-1.52e-20
5.215e-19
9.506e-18
1.023e-16
9.648e-16
8.375e-15
6.689e-14
4.89e-13
3.253e-12
1.96e-11
1.063e-10
5.173e-10
2.248e-09
8.692e-09
2.982e-08
9.053e-08
2.427e-07
5.736e-07
1.196e-06
2.205e-06
3.603e-06
5.244e-06
6.853e-06
8.191e-06
9.207e-06
9.177e-06
8.81e-06
8.051e-06
7.021e-06
5.879e-06
4.758e-06
3.744e-06
2.88e-06
2.177e-06
1.626e-06
1.204e-06
8.886e-07
6.558e-07
4.858e-07
3.622e-07
2.725e-07
2.074e-07
1.599e-07
1.251e-07
9.933e-08
8.017e-08
6.577e-08
5.486e-08
4.651e-08
4.008e-08
3.509e-08
3.12e-08
2.815e-08
2.575e-08
2.388e-08
2.243e-08
2.131e-08
2.048e-08
1.988e-08
1.95e-08
1.924e-08
1.924e-08
1.934e-08
1.956e-08
1.991e-08
2.038e-08
2.097e-08
2.169e-08
2.252e-08
2.346e-08
2.454e-08
2.573e-08
2.706e-08
2.852e-08
3.013e-08
3.187e-08
3.377e-08
3.583e-08
3.806e-08
4.046e-08
4.303e-08
4.58e-08
4.875e-08
5.191e-08
5.514e-08
6.034e-08
1.138e-53
-1.101e-52
8.637e-52
-6.533e-51
4.747e-50
-3.324e-49
2.254e-48
-1.488e-47
9.634e-47
-6.155e-46
3.904e-45
-2.471e-44
1.566e-43
-9.947e-43
6.341e-42
-4.053e-41
2.594e-40
-1.666e-39
1.064e-38
-6.819e-38
4.352e-37
-2.78e-36
1.777e-35
-1.138e-34
7.321e-34
-4.687e-33
2.992e-32
-1.902e-31
1.204e-30
-7.586e-30
4.749e-29
-2.952e-28
1.82e-27
-1.112e-26
6.72e-26
-4.016e-25
2.369e-24
-1.378e-23
7.914e-23
-4.382e-22
2.697e-21
-1.044e-20
3.498e-19
6.988e-18
8.265e-17
8.648e-16
8.371e-15
7.48e-14
6.134e-13
4.587e-12
3.108e-11
1.898e-10
1.038e-09
5.063e-09
2.191e-08
8.384e-08
2.826e-07
8.369e-07
2.171e-06
4.933e-06
9.828e-06
1.719e-05
2.649e-05
3.618e-05
4.418e-05
5.063e-05
5.099e-05
4.91e-05
4.484e-05
3.894e-05
3.237e-05
2.593e-05
2.014e-05
1.525e-05
1.131e-05
8.27e-06
5.982e-06
4.301e-06
3.086e-06
2.219e-06
1.604e-06
1.169e-06
8.615e-07
6.43e-07
4.869e-07
3.746e-07
2.93e-07
2.332e-07
1.888e-07
1.556e-07
1.305e-07
1.112e-07
9.645e-08
8.497e-08
7.6e-08
6.897e-08
6.347e-08
5.917e-08
5.583e-08
5.329e-08
5.141e-08
5.008e-08
4.924e-08
4.874e-08
4.88e-08
4.911e-08
4.972e-08
5.064e-08
5.185e-08
5.334e-08
5.512e-08
5.717e-08
5.951e-08
6.214e-08
6.506e-08
6.829e-08
7.182e-08
7.569e-08
7.988e-08
8.443e-08
8.933e-08
9.461e-08
1.003e-07
1.063e-07
1.128e-07
1.197e-07
1.268e-07
1.381e-07
-3.063e-53
3.026e-52
-2.404e-51
1.83e-50
-1.332e-49
9.275e-49
-6.175e-48
3.931e-47
-2.389e-46
1.384e-45
-7.617e-45
3.95e-44
-1.905e-43
8.298e-43
-3.042e-42
7.097e-42
1.186e-41
-7.324e-40
3.528e-39
-3.325e-38
1.277e-37
-4.112e-37
-5.798e-37
3.031e-35
-3.98e-34
3.8e-33
-3.163e-32
2.44e-31
-1.79e-30
1.266e-29
-8.707e-29
5.845e-28
-3.843e-27
2.481e-26
-1.574e-25
9.821e-25
-6.031e-24
3.648e-23
-2.155e-22
1.334e-21
-4.248e-21
1.834e-19
4.025e-18
5.222e-17
6.037e-16
6.487e-15
6.459e-14
5.922e-13
4.965e-12
3.781e-11
2.596e-10
1.597e-09
8.748e-09
4.242e-08
1.812e-07
6.791e-07
2.225e-06
6.35e-06
1.576e-05
3.405e-05
6.416e-05
0.0001056
0.0001525
0.0001946
0.0002258
0.0002367
0.0002293
0.0002109
0.0001842
0.0001536
0.0001232
9.551e-05
7.201e-05
5.306e-05
3.838e-05
2.739e-05
1.937e-05
1.363e-05
9.588e-06
6.766e-06
4.806e-06
3.447e-06
2.502e-06
1.842e-06
1.378e-06
1.048e-06
8.111e-07
6.393e-07
5.131e-07
4.194e-07
3.49e-07
2.956e-07
2.546e-07
2.229e-07
1.982e-07
1.789e-07
1.638e-07
1.519e-07
1.426e-07
1.355e-07
1.301e-07
1.261e-07
1.235e-07
1.218e-07
1.212e-07
1.215e-07
1.225e-07
1.243e-07
1.267e-07
1.299e-07
1.337e-07
1.381e-07
1.432e-07
1.489e-07
1.554e-07
1.625e-07
1.703e-07
1.788e-07
1.88e-07
1.98e-07
2.088e-07
2.204e-07
2.329e-07
2.462e-07
2.604e-07
2.755e-07
2.908e-07
3.156e-07
1.401e-52
-1.27e-51
9.687e-51
-7.448e-50
5.712e-49
-4.347e-48
3.267e-47
-2.416e-46
1.754e-45
-1.249e-44
8.716e-44
-5.97e-43
4.019e-42
-2.663e-41
1.74e-40
-1.123e-39
7.17e-39
-4.537e-38
2.849e-37
-1.777e-36
1.102e-35
-6.8e-35
4.177e-34
-2.554e-33
1.555e-32
-9.405e-32
5.656e-31
-3.382e-30
2.011e-29
-1.189e-28
6.994e-28
-4.09e-27
2.378e-26
-1.374e-25
7.897e-25
-4.51e-24
2.561e-23
-1.44e-22
8.287e-22
-3.63e-21
5.498e-20
1.758e-18
2.567e-17
3.273e-16
3.882e-15
4.284e-14
4.371e-13
4.094e-12
3.493e-11
2.693e-10
1.862e-09
1.146e-08
6.227e-08
2.971e-07
1.237e-06
4.478e-06
1.403e-05
3.8e-05
8.882e-05
0.0001801
0.0003163
0.0004848
0.0006516
0.0007827
0.0008611
0.0008459
0.0007922
0.0007041
0.000597
0.000486
0.0003818
0.000291
0.000216
0.0001568
0.0001119
7.883e-05
5.504e-05
3.826e-05
2.66e-05
1.856e-05
1.305e-05
9.271e-06
6.672e-06
4.873e-06
3.619e-06
2.735e-06
2.105e-06
1.651e-06
1.319e-06
1.074e-06
8.901e-07
7.512e-07
6.449e-07
5.628e-07
4.99e-07
4.491e-07
4.098e-07
3.79e-07
3.549e-07
3.361e-07
3.218e-07
3.111e-07
3.036e-07
2.988e-07
2.958e-07
2.961e-07
2.977e-07
3.01e-07
3.059e-07
3.124e-07
3.205e-07
3.301e-07
3.412e-07
3.538e-07
3.679e-07
3.835e-07
4.006e-07
4.193e-07
4.397e-07
4.617e-07
4.854e-07
5.109e-07
5.381e-07
5.672e-07
5.981e-07
6.312e-07
6.643e-07
7.182e-07
4.24e-52
-4.168e-51
3.344e-50
-2.609e-49
1.969e-48
-1.44e-47
1.02e-46
-7.014e-46
4.693e-45
-3.063e-44
1.956e-43
-1.226e-42
7.573e-42
-4.628e-41
2.809e-40
-1.7e-39
1.03e-38
-6.27e-38
3.845e-37
-2.379e-36
1.487e-35
-9.393e-35
5.991e-34
-3.856e-33
2.493e-32
-1.602e-31
1.022e-30
-6.467e-30
4.066e-29
-2.541e-28
1.579e-27
-9.754e-27
5.997e-26
-3.669e-25
2.235e-24
-1.355e-23
8.185e-23
-4.897e-22
3.067e-21
-1.156e-20
3.862e-19
9.499e-18
1.378e-16
1.796e-15
2.183e-14
2.465e-13
2.566e-12
2.444e-11
2.111e-10
1.638e-09
1.132e-08
6.906e-08
3.686e-07
1.708e-06
6.833e-06
2.347e-05
6.908e-05
0.0001741
0.0003769
0.000705
0.001134
0.001604
0.002011
0.00231
0.002355
0.002268
0.002075
0.001811
0.001518
0.001228
0.0009619
0.000732
0.000543
0.000394
0.0002807
0.0001973
0.0001374
9.521e-05
6.596e-05
4.587e-05
3.214e-05
2.277e-05
1.634e-05
1.191e-05
8.83e-06
6.665e-06
5.125e-06
4.016e-06
3.207e-06
2.61e-06
2.163e-06
1.825e-06
1.567e-06
1.367e-06
1.212e-06
1.09e-06
9.942e-07
9.187e-07
8.594e-07
8.131e-07
7.775e-07
7.507e-07
7.313e-07
7.187e-07
7.101e-07
7.092e-07
7.117e-07
7.18e-07
7.281e-07
7.419e-07
7.593e-07
7.801e-07
8.043e-07
8.318e-07
8.626e-07
8.969e-07
9.345e-07
9.756e-07
1.02e-06
1.068e-06
1.12e-06
1.176e-06
1.236e-06
1.299e-06
1.366e-06
1.438e-06
1.509e-06
1.626e-06
-1.181e-51
1.09e-50
-8.408e-50
6.474e-49
-4.934e-48
3.712e-47
-2.751e-46
2.005e-45
-1.435e-44
1.008e-43
-6.955e-43
4.715e-42
-3.143e-41
2.063e-40
-1.334e-39
8.52e-39
-5.378e-38
3.359e-37
-2.079e-36
1.277e-35
-7.786e-35
4.72e-34
-2.846e-33
1.708e-32
-1.02e-31
6.058e-31
-3.582e-30
2.111e-29
-1.24e-28
7.265e-28
-4.249e-27
2.481e-26
-1.448e-25
8.446e-25
-4.929e-24
2.88e-23
-1.68e-22
1.012e-21
-4.579e-21
8.605e-20
2.848e-18
4.552e-17
6.465e-16
8.594e-15
1.067e-13
1.228e-12
1.299e-11
1.252e-10
1.088e-09
8.45e-09
5.796e-08
3.473e-07
1.8e-06
7.995e-06
3.02e-05
9.662e-05
0.000262
0.0006039
0.001194
0.002022
0.002944
0.003843
0.004645
0.004962
0.004877
0.004607
0.004164
0.003625
0.003057
0.002501
0.001987
0.001533
0.001152
0.0008461
0.000609
0.0004316
0.0003025
0.0002108
0.0001466
0.0001024
7.198e-05
5.115e-05
3.684e-05
2.694e-05
2.004e-05
1.518e-05
1.172e-05
9.215e-06
7.386e-06
6.031e-06
5.015e-06
4.245e-06
3.654e-06
3.196e-06
2.839e-06
2.559e-06
2.338e-06
2.163e-06
2.025e-06
1.918e-06
1.834e-06
1.771e-06
1.725e-06
1.694e-06
1.675e-06
1.669e-06
1.674e-06
1.687e-06
1.708e-06
1.738e-06
1.775e-06
1.821e-06
1.874e-06
1.934e-06
2.002e-06
2.077e-06
2.159e-06
2.249e-06
2.347e-06
2.452e-06
2.565e-06
2.686e-06
2.815e-06
2.952e-06
3.097e-06
3.251e-06
3.405e-06
3.654e-06
-2.103e-51
2.057e-50
-1.656e-49
1.307e-48
-1.004e-47
7.517e-47
-5.48e-46
3.893e-45
-2.7e-44
1.831e-43
-1.217e-42
7.942e-42
-5.105e-41
3.239e-40
-2.034e-39
1.267e-38
-7.843e-38
4.837e-37
-2.977e-36
1.831e-35
-1.127e-34
6.945e-34
-4.291e-33
2.661e-32
-1.65e-31
1.02e-30
-6.273e-30
3.847e-29
-2.354e-28
1.438e-27
-8.778e-27
5.359e-26
-3.274e-25
2.004e-24
-1.23e-23
7.577e-23
-4.662e-22
3.034e-21
-1.175e-20
4.242e-19
1.145e-17
1.824e-16
2.637e-15
3.574e-14
4.516e-13
5.276e-12
5.65e-11
5.487e-10
4.781e-09
3.693e-08
2.496e-07
1.457e-06
7.257e-06
3.046e-05
0.0001069
0.000313
0.0007689
0.001601
0.002871
0.004325
0.005799
0.007088
0.009468
0.01014
0.009873
0.00852
0.006855
0.005871
0.005065
0.004253
0.003463
0.002736
0.002102
0.001575
0.001155
0.0008321
0.0005917
0.0004175
0.0002938
0.0002072
0.0001471
0.0001055
7.666e-05
5.656e-05
4.243e-05
3.241e-05
2.521e-05
1.998e-05
1.613e-05
1.327e-05
1.11e-05
9.456e-06
8.185e-06
7.198e-06
6.423e-06
5.813e-06
5.33e-06
4.948e-06
4.646e-06
4.409e-06
4.226e-06
4.087e-06
3.985e-06
3.917e-06
3.873e-06
3.861e-06
3.871e-06
3.9e-06
3.947e-06
4.013e-06
4.096e-06
4.196e-06
4.313e-06
4.445e-06
4.594e-06
4.758e-06
4.938e-06
5.134e-06
5.346e-06
5.574e-06
5.818e-06
6.079e-06
6.356e-06
6.649e-06
6.958e-06
7.285e-06
7.61e-06
8.134e-06
4.019e-51
-3.747e-50
2.913e-49
-2.254e-48
1.723e-47
-1.297e-46
9.604e-46
-6.986e-45
4.988e-44
-3.496e-43
2.406e-42
-1.626e-41
1.08e-40
-7.065e-40
4.551e-39
-2.892e-38
1.815e-37
-1.127e-36
6.928e-36
-4.223e-35
2.555e-34
-1.537e-33
9.196e-33
-5.481e-32
3.25e-31
-1.919e-30
1.13e-29
-6.644e-29
3.905e-28
-2.297e-27
1.353e-26
-7.998e-26
4.746e-25
-2.831e-24
1.701e-23
-1.027e-22
6.458e-22
-2.969e-21
6.883e-20
2.366e-18
4.094e-17
6.384e-16
9.373e-15
1.291e-13
1.655e-12
1.957e-11
2.114e-10
2.062e-09
1.793e-08
1.371e-07
9.083e-07
5.13e-06
2.432e-05
9.534e-05
0.0003064
0.0008095
0.001783
0.003348
0.005487
0.007301
0.01028
0.01009
0.01305
0.01172
0.01102
0.01005
0.0103
0.01026
0.008188
0.006484
0.005336
0.004305
0.003386
0.002597
0.001948
0.001433
0.001039
0.0007466
0.0005342
0.0003828
0.0002759
0.0002007
0.0001479
0.0001106
8.407e-05
6.503e-05
5.12e-05
4.105e-05
3.351e-05
2.784e-05
2.353e-05
2.022e-05
1.765e-05
1.564e-05
1.405e-05
1.28e-05
1.18e-05
1.101e-05
1.038e-05