/*--------------------------------*- C++ -*----------------------------------*\
  =========                 |
  \\      /  F ield         | OpenFOAM: The Open Source CFD Toolbox
   \\    /   O peration     | Website:  https://openfoam.org
    \\  /    A nd           | Version:  7
     \\/     M anipulation  |
\*---------------------------------------------------------------------------*/
FoamFile
{
    version     2.0;
    format      ascii;
    class       volScalarField;
    location    "2519.99947344325346";
    object      p;
}
// * * * * * * * * * * * * * * * * * * * * * * * * * * * * * * * * * * * * * //

dimensions      [0 2 -2 0 0 0 0];

internalField   nonuniform List<scalar> 
4096
(
0.0005496
0.0003786
0.0002944
0.0002522
0.0002288
0.0002149
0.000206
0.0001999
0.0001955
0.0001922
0.0001897
0.0001876
0.000186
0.0001846
0.0001834
0.0001824
0.0001815
0.0001807
0.00018
0.0001794
0.0001788
0.0001782
0.0001776
0.0001771
0.0001766
0.0001761
0.0001757
0.0001752
0.0001747
0.0001743
0.0001738
0.0001733
0.0001728
0.0001724
0.0001718
0.0001713
0.0001708
0.0001702
0.0001695
0.0001689
0.0001681
0.0001673
0.0001664
0.0001654
0.0001643
0.0001631
0.0001617
0.0001601
0.0001583
0.0001564
0.0001542
0.0001517
0.000149
0.0001459
0.0001426
0.000139
0.0001351
0.0001309
0.0001264
0.0001216
0.0001166
0.0001114
0.0001061
0.0001007
9.524e-05
8.977e-05
8.437e-05
7.907e-05
7.391e-05
6.894e-05
6.418e-05
5.967e-05
5.541e-05
5.142e-05
4.77e-05
4.426e-05
4.11e-05
3.82e-05
3.556e-05
3.317e-05
3.1e-05
2.905e-05
2.729e-05
2.571e-05
2.429e-05
2.302e-05
2.188e-05
2.084e-05
1.991e-05
1.906e-05
1.828e-05
1.757e-05
1.691e-05
1.629e-05
1.57e-05
1.515e-05
1.462e-05
1.412e-05
1.362e-05
1.314e-05
1.267e-05
1.22e-05
1.174e-05
1.128e-05
1.083e-05
1.037e-05
9.916e-06
9.461e-06
9.004e-06
8.545e-06
8.085e-06
7.623e-06
7.158e-06
6.691e-06
6.222e-06
5.75e-06
5.275e-06
4.798e-06
4.317e-06
3.835e-06
3.35e-06
2.863e-06
2.376e-06
1.889e-06
1.405e-06
9.299e-07
4.748e-07
1.048e-07
0.0004051
0.0003413
0.0002915
0.0002595
0.0002385
0.0002242
0.0002142
0.0002069
0.0002014
0.0001971
0.0001938
0.0001911
0.0001889
0.0001871
0.0001856
0.0001842
0.0001831
0.0001821
0.0001811
0.0001803
0.0001795
0.0001788
0.0001782
0.0001775
0.0001769
0.0001763
0.0001757
0.0001752
0.0001746
0.0001741
0.0001735
0.0001729
0.0001724
0.0001718
0.0001712
0.0001705
0.0001699
0.0001692
0.0001685
0.0001677
0.0001668
0.0001659
0.0001649
0.0001638
0.0001626
0.0001613
0.0001598
0.0001581
0.0001563
0.0001543
0.000152
0.0001495
0.0001468
0.0001438
0.0001406
0.000137
0.0001332
0.0001292
0.0001248
0.0001203
0.0001155
0.0001106
0.0001055
0.0001004
9.518e-05
8.999e-05
8.485e-05
7.98e-05
7.489e-05
7.014e-05
6.558e-05
6.123e-05
5.712e-05
5.326e-05
4.964e-05
4.627e-05
4.315e-05
4.028e-05
3.765e-05
3.523e-05
3.304e-05
3.104e-05
2.922e-05
2.757e-05
2.608e-05
2.472e-05
2.349e-05
2.237e-05
2.135e-05
2.041e-05
1.954e-05
1.874e-05
1.799e-05
1.729e-05
1.663e-05
1.6e-05
1.54e-05
1.483e-05
1.427e-05
1.373e-05
1.321e-05
1.269e-05
1.218e-05
1.168e-05
1.119e-05
1.07e-05
1.021e-05
9.725e-06
9.241e-06
8.757e-06
8.275e-06
7.792e-06
7.31e-06
6.827e-06
6.343e-06
5.858e-06
5.372e-06
4.885e-06
4.397e-06
3.908e-06
3.418e-06
2.927e-06
2.437e-06
1.949e-06
1.464e-06
9.861e-07
5.216e-07
1.241e-07
0.0003216
0.0003
0.0002745
0.0002537
0.0002382
0.0002265
0.0002175
0.0002104
0.0002049
0.0002004
0.0001968
0.0001938
0.0001913
0.0001892
0.0001874
0.0001858
0.0001845
0.0001832
0.0001822
0.0001812
0.0001803
0.0001794
0.0001786
0.0001779
0.0001772
0.0001765
0.0001758
0.0001751
0.0001745
0.0001738
0.0001732
0.0001725
0.0001719
0.0001712
0.0001705
0.0001698
0.000169
0.0001683
0.0001674
0.0001665
0.0001656
0.0001646
0.0001635
0.0001623
0.000161
0.0001596
0.000158
0.0001563
0.0001544
0.0001523
0.0001501
0.0001476
0.0001449
0.000142
0.0001388
0.0001353
0.0001316
0.0001277
0.0001235
0.0001191
0.0001146
0.0001098
0.000105
0.0001001
9.511e-05
9.015e-05
8.525e-05
8.042e-05
7.572e-05
7.116e-05
6.679e-05
6.26e-05
5.863e-05
5.488e-05
5.136e-05
4.806e-05
4.5e-05
4.216e-05
3.953e-05
3.712e-05
3.49e-05
3.287e-05
3.101e-05
2.931e-05
2.775e-05
2.633e-05
2.502e-05
2.382e-05
2.272e-05
2.17e-05
2.075e-05
1.987e-05
1.904e-05
1.827e-05
1.753e-05
1.684e-05
1.617e-05
1.553e-05
1.492e-05
1.432e-05
1.375e-05
1.318e-05
1.263e-05
1.209e-05
1.155e-05
1.103e-05
1.051e-05
9.992e-06
9.481e-06
8.974e-06
8.469e-06
7.966e-06
7.466e-06
6.966e-06
6.468e-06
5.97e-06
5.473e-06
4.976e-06
4.48e-06
3.983e-06
3.487e-06
2.991e-06
2.496e-06
2.003e-06
1.512e-06
1.026e-06
5.462e-07
1.272e-07
0.0002769
0.0002698
0.0002565
0.0002433
0.0002324
0.0002236
0.0002165
0.0002106
0.0002057
0.0002016
0.0001981
0.0001952
0.0001927
0.0001905
0.0001886
0.0001869
0.0001854
0.0001841
0.0001829
0.0001818
0.0001808
0.0001799
0.000179
0.0001782
0.0001774
0.0001766
0.0001758
0.0001751
0.0001744
0.0001736
0.0001729
0.0001722
0.0001715
0.0001707
0.0001699
0.0001691
0.0001683
0.0001674
0.0001665
0.0001655
0.0001645
0.0001634
0.0001623
0.000161
0.0001596
0.0001581
0.0001565
0.0001548
0.0001529
0.0001508
0.0001485
0.000146
0.0001433
0.0001404
0.0001373
0.0001339
0.0001303
0.0001265
0.0001225
0.0001182
0.0001138
0.0001092
0.0001046
9.982e-05
9.504e-05
9.026e-05
8.553e-05
8.088e-05
7.634e-05
7.195e-05
6.771e-05
6.366e-05
5.981e-05
5.616e-05
5.272e-05
4.95e-05
4.649e-05
4.368e-05
4.108e-05
3.867e-05
3.645e-05
3.44e-05
3.251e-05
3.077e-05
2.917e-05
2.77e-05
2.634e-05
2.508e-05
2.391e-05
2.283e-05
2.182e-05
2.087e-05
1.998e-05
1.914e-05
1.835e-05
1.759e-05
1.687e-05
1.617e-05
1.551e-05
1.486e-05
1.424e-05
1.363e-05
1.304e-05
1.246e-05
1.189e-05
1.133e-05
1.078e-05
1.024e-05
9.707e-06
9.177e-06
8.651e-06
8.13e-06
7.613e-06
7.098e-06
6.587e-06
6.077e-06
5.569e-06
5.063e-06
4.557e-06
4.053e-06
3.55e-06
3.048e-06
2.546e-06
2.046e-06
1.548e-06
1.051e-06
5.573e-07
1.247e-07
0.00025
0.000249
0.000242
0.0002334
0.0002256
0.0002191
0.0002135
0.0002089
0.0002048
0.0002013
0.0001982
0.0001955
0.0001931
0.000191
0.0001892
0.0001875
0.000186
0.0001846
0.0001834
0.0001823
0.0001812
0.0001802
0.0001792
0.0001783
0.0001775
0.0001766
0.0001758
0.000175
0.0001742
0.0001734
0.0001727
0.0001719
0.0001711
0.0001702
0.0001694
0.0001685
0.0001676
0.0001667
0.0001657
0.0001647
0.0001636
0.0001624
0.0001612
0.0001599
0.0001585
0.0001569
0.0001553
0.0001535
0.0001516
0.0001495
0.0001472
0.0001448
0.0001421
0.0001393
0.0001362
0.0001329
0.0001294
0.0001256
0.0001217
0.0001175
0.0001132
0.0001088
0.0001042
9.962e-05
9.496e-05
9.032e-05
8.572e-05
8.12e-05
7.679e-05
7.252e-05
6.841e-05
6.447e-05
6.071e-05
5.715e-05
5.379e-05
5.063e-05
4.767e-05
4.49e-05
4.232e-05
3.993e-05
3.771e-05
3.566e-05
3.375e-05
3.199e-05
3.036e-05
2.885e-05
2.745e-05
2.615e-05
2.493e-05
2.38e-05
2.273e-05
2.174e-05
2.079e-05
1.99e-05
1.906e-05
1.825e-05
1.748e-05
1.674e-05
1.603e-05
1.534e-05
1.468e-05
1.403e-05
1.341e-05
1.28e-05
1.22e-05
1.161e-05
1.103e-05
1.047e-05
9.911e-06
9.361e-06
8.817e-06
8.28e-06
7.747e-06
7.219e-06
6.695e-06
6.174e-06
5.656e-06
5.141e-06
4.628e-06
4.116e-06
3.606e-06
3.098e-06
2.59e-06
2.082e-06
1.576e-06
1.07e-06
5.641e-07
1.218e-07
0.0002326
0.0002341
0.0002308
0.0002251
0.0002194
0.0002144
0.00021
0.0002063
0.000203
0.0002001
0.0001974
0.0001951
0.0001929
0.000191
0.0001893
0.0001877
0.0001862
0.0001849
0.0001836
0.0001825
0.0001814
0.0001804
0.0001794
0.0001784
0.0001775
0.0001766
0.0001758
0.0001749
0.0001741
0.0001733
0.0001724
0.0001716
0.0001707
0.0001698
0.000169
0.000168
0.0001671
0.0001661
0.0001651
0.000164
0.0001628
0.0001616
0.0001603
0.000159
0.0001575
0.000156
0.0001543
0.0001525
0.0001506
0.0001485
0.0001462
0.0001438
0.0001412
0.0001384
0.0001353
0.0001321
0.0001286
0.000125
0.0001211
0.000117
0.0001128
0.0001084
0.000104
9.945e-05
9.488e-05
9.033e-05
8.583e-05
8.141e-05
7.71e-05
7.292e-05
6.89e-05
6.505e-05
6.138e-05
5.789e-05
5.459e-05
5.149e-05
4.857e-05
4.584e-05
4.33e-05
4.092e-05
3.871e-05
3.666e-05
3.475e-05
3.298e-05
3.133e-05
2.98e-05
2.837e-05
2.703e-05
2.578e-05
2.461e-05
2.351e-05
2.247e-05
2.148e-05
2.055e-05
1.966e-05
1.881e-05
1.8e-05
1.723e-05
1.648e-05
1.576e-05
1.506e-05
1.438e-05
1.373e-05
1.309e-05
1.246e-05
1.185e-05
1.125e-05
1.067e-05
1.009e-05
9.522e-06
8.963e-06
8.41e-06
7.865e-06
7.325e-06
6.79e-06
6.26e-06
5.733e-06
5.21e-06
4.689e-06
4.171e-06
3.655e-06
3.14e-06
2.626e-06
2.113e-06
1.599e-06
1.085e-06
5.695e-07
1.196e-07
0.0002207
0.0002232
0.0002219
0.0002182
0.000214
0.0002101
0.0002066
0.0002035
0.0002008
0.0001984
0.0001962
0.0001941
0.0001923
0.0001906
0.000189
0.0001875
0.0001861
0.0001848
0.0001836
0.0001825
0.0001814
0.0001804
0.0001794
0.0001784
0.0001775
0.0001766
0.0001757
0.0001748
0.000174
0.0001731
0.0001722
0.0001713
0.0001704
0.0001695
0.0001686
0.0001676
0.0001666
0.0001656
0.0001645
0.0001634
0.0001622
0.000161
0.0001597
0.0001583
0.0001568
0.0001552
0.0001535
0.0001517
0.0001498
0.0001477
0.0001455
0.0001431
0.0001405
0.0001377
0.0001347
0.0001315
0.0001281
0.0001245
0.0001207
0.0001167
0.0001125
0.0001082
0.0001038
9.93e-05
9.479e-05
9.03e-05
8.586e-05
8.151e-05
7.727e-05
7.317e-05
6.922e-05
6.544e-05
6.183e-05
5.841e-05
5.516e-05
5.211e-05
4.923e-05
4.654e-05
4.402e-05
4.167e-05
3.947e-05
3.743e-05
3.552e-05
3.375e-05
3.209e-05
3.054e-05
2.909e-05
2.774e-05
2.646e-05
2.526e-05
2.413e-05
2.306e-05
2.204e-05
2.108e-05
2.016e-05
1.928e-05
1.844e-05
1.763e-05
1.685e-05
1.61e-05
1.537e-05
1.467e-05
1.399e-05
1.333e-05
1.268e-05
1.205e-05
1.143e-05
1.083e-05
1.024e-05
9.656e-06
9.083e-06
8.519e-06
7.963e-06
7.413e-06
6.869e-06
6.331e-06
5.797e-06
5.267e-06
4.74e-06
4.217e-06
3.695e-06
3.175e-06
2.656e-06
2.137e-06
1.618e-06
1.098e-06
5.748e-07
1.187e-07
0.0002121
0.0002148
0.0002147
0.0002125
0.0002094
0.0002063
0.0002034
0.0002009
0.0001986
0.0001965
0.0001947
0.0001929
0.0001913
0.0001898
0.0001884
0.0001871
0.0001858
0.0001846
0.0001834
0.0001824
0.0001813
0.0001803
0.0001793
0.0001784
0.0001774
0.0001765
0.0001756
0.0001747
0.0001738
0.0001729
0.000172
0.0001711
0.0001702
0.0001692
0.0001683
0.0001673
0.0001663
0.0001652
0.0001641
0.0001629
0.0001617
0.0001605
0.0001591
0.0001577
0.0001562
0.0001546
0.000153
0.0001512
0.0001492
0.0001472
0.0001449
0.0001426
0.00014
0.0001372
0.0001343
0.0001311
0.0001278
0.0001242
0.0001204
0.0001165
0.0001123
0.000108
0.0001036
9.918e-05
9.469e-05
9.023e-05
8.583e-05
8.152e-05
7.733e-05
7.328e-05
6.938e-05
6.565e-05
6.21e-05
5.872e-05
5.552e-05
5.25e-05
4.967e-05
4.7e-05
4.451e-05
4.218e-05
4.001e-05
3.798e-05
3.608e-05
3.431e-05
3.265e-05
3.11e-05
2.964e-05
2.827e-05
2.698e-05
2.576e-05
2.461e-05
2.352e-05
2.248e-05
2.149e-05
2.054e-05
1.964e-05
1.877e-05
1.794e-05
1.714e-05
1.637e-05
1.562e-05
1.49e-05
1.42e-05
1.352e-05
1.285e-05
1.221e-05
1.158e-05
1.096e-05
1.035e-05
9.76e-06
9.177e-06
8.604e-06
8.039e-06
7.481e-06
6.93e-06
6.386e-06
5.846e-06
5.311e-06
4.78e-06
4.252e-06
3.726e-06
3.203e-06
2.68e-06
2.157e-06
1.634e-06
1.109e-06
5.803e-07
1.192e-07
0.0002056
0.0002083
0.0002089
0.0002076
0.0002055
0.000203
0.0002006
0.0001985
0.0001965
0.0001948
0.0001932
0.0001917
0.0001903
0.0001889
0.0001877
0.0001865
0.0001853
0.0001842
0.0001831
0.0001821
0.0001811
0.0001801
0.0001792
0.0001782
0.0001773
0.0001764
0.0001755
0.0001746
0.0001737
0.0001728
0.0001719
0.0001709
0.00017
0.000169
0.0001681
0.000167
0.000166
0.0001649
0.0001638
0.0001626
0.0001614
0.0001601
0.0001588
0.0001574
0.0001559
0.0001543
0.0001526
0.0001508
0.0001489
0.0001468
0.0001446
0.0001423
0.0001397
0.000137
0.0001341
0.000131
0.0001276
0.0001241
0.0001203
0.0001164
0.0001122
0.0001079
0.0001035
9.907e-05
9.458e-05
9.012e-05
8.573e-05
8.144e-05
7.728e-05
7.326e-05
6.94e-05
6.571e-05
6.219e-05
5.884e-05
5.568e-05
5.27e-05
4.989e-05
4.725e-05
4.479e-05
4.248e-05
4.033e-05
3.831e-05
3.643e-05
3.467e-05
3.302e-05
3.147e-05
3.001e-05
2.863e-05
2.734e-05
2.611e-05
2.495e-05
2.384e-05
2.279e-05
2.178e-05
2.082e-05
1.99e-05
1.901e-05
1.817e-05
1.735e-05
1.656e-05
1.58e-05
1.506e-05
1.434e-05
1.365e-05
1.297e-05
1.232e-05
1.168e-05
1.105e-05
1.043e-05
9.833e-06
9.242e-06
8.662e-06
8.091e-06
7.528e-06
6.972e-06
6.423e-06
5.88e-06
5.341e-06
4.807e-06
4.276e-06
3.748e-06
3.222e-06
2.697e-06
2.173e-06
1.647e-06
1.119e-06
5.865e-07
1.213e-07
0.0002006
0.0002031
0.000204
0.0002035
0.000202
0.0002001
0.0001982
0.0001963
0.0001946
0.0001931
0.0001917
0.0001904
0.0001892
0.000188
0.0001869
0.0001858
0.0001847
0.0001837
0.0001827
0.0001818
0.0001808
0.0001799
0.000179
0.000178
0.0001771
0.0001763
0.0001754
0.0001745
0.0001736
0.0001727
0.0001717
0.0001708
0.0001699
0.0001689
0.0001679
0.0001669
0.0001658
0.0001647
0.0001636
0.0001624
0.0001612
0.0001599
0.0001586
0.0001572
0.0001557
0.0001541
0.0001524
0.0001506
0.0001487
0.0001467
0.0001445
0.0001422
0.0001397
0.000137
0.0001341
0.000131
0.0001277
0.0001241
0.0001204
0.0001164
0.0001122
0.0001079
0.0001035
9.897e-05
9.445e-05
8.997e-05
8.556e-05
8.127e-05
7.712e-05
7.311e-05
6.927e-05
6.56e-05
6.211e-05
5.879e-05
5.565e-05
5.269e-05
4.99e-05
4.73e-05
4.485e-05
4.257e-05
4.044e-05
3.844e-05
3.658e-05
3.483e-05
3.319e-05
3.165e-05
3.02e-05
2.883e-05
2.754e-05
2.631e-05
2.514e-05
2.403e-05
2.297e-05
2.195e-05
2.098e-05
2.005e-05
1.916e-05
1.83e-05
1.747e-05
1.667e-05
1.59e-05
1.515e-05
1.443e-05
1.373e-05
1.304e-05
1.238e-05
1.173e-05
1.11e-05
1.048e-05
9.872e-06
9.277e-06
8.692e-06
8.118e-06
7.552e-06
6.994e-06
6.442e-06
5.897e-06
5.357e-06
4.822e-06
4.29e-06
3.761e-06
3.234e-06
2.709e-06
2.183e-06
1.656e-06
1.127e-06
5.935e-07
1.25e-07
0.0001965
0.0001988
0.0002
0.0001999
0.0001989
0.0001975
0.000196
0.0001944
0.000193
0.0001916
0.0001903
0.0001892
0.0001881
0.000187
0.000186
0.0001851
0.0001841
0.0001832
0.0001823
0.0001814
0.0001805
0.0001796
0.0001787
0.0001778
0.000177
0.0001761
0.0001752
0.0001744
0.0001735
0.0001726
0.0001717
0.0001707
0.0001698
0.0001688
0.0001678
0.0001668
0.0001658
0.0001647
0.0001636
0.0001624
0.0001612
0.0001599
0.0001585
0.0001571
0.0001556
0.0001541
0.0001524
0.0001506
0.0001488
0.0001468
0.0001446
0.0001423
0.0001398
0.0001371
0.0001343
0.0001312
0.0001279
0.0001243
0.0001205
0.0001165
0.0001123
0.000108
0.0001035
9.889e-05
9.431e-05
8.977e-05
8.533e-05
8.102e-05
7.685e-05
7.285e-05
6.901e-05
6.535e-05
6.186e-05
5.855e-05
5.543e-05
5.248e-05
4.972e-05
4.713e-05
4.471e-05
4.245e-05
4.034e-05
3.837e-05
3.653e-05
3.481e-05
3.319e-05
3.167e-05
3.023e-05
2.887e-05
2.758e-05
2.636e-05
2.519e-05
2.408e-05
2.302e-05
2.201e-05
2.103e-05
2.01e-05
1.92e-05
1.834e-05
1.751e-05
1.671e-05
1.593e-05
1.518e-05
1.445e-05
1.375e-05
1.306e-05
1.239e-05
1.174e-05
1.111e-05
1.048e-05
9.876e-06
9.28e-06
8.695e-06
8.119e-06
7.553e-06
6.994e-06
6.443e-06
5.898e-06
5.358e-06
4.823e-06
4.292e-06
3.764e-06
3.238e-06
2.713e-06
2.189e-06
1.663e-06
1.135e-06
6.013e-07
1.305e-07
0.0001932
0.0001953
0.0001966
0.0001968
0.0001962
0.0001952
0.000194
0.0001927
0.0001914
0.0001902
0.0001891
0.0001881
0.0001871
0.0001861
0.0001852
0.0001843
0.0001835
0.0001826
0.0001818
0.0001809
0.0001801
0.0001793
0.0001785
0.0001776
0.0001768
0.000176
0.0001751
0.0001743
0.0001734
0.0001725
0.0001716
0.0001707
0.0001698
0.0001688
0.0001679
0.0001669
0.0001658
0.0001647
0.0001636
0.0001625
0.0001612
0.00016
0.0001586
0.0001573
0.0001558
0.0001542
0.0001526
0.0001509
0.000149
0.000147
0.0001449
0.0001426
0.0001402
0.0001375
0.0001346
0.0001316
0.0001282
0.0001247
0.0001209
0.0001168
0.0001125
0.0001081
0.0001035
9.881e-05
9.414e-05
8.953e-05
8.503e-05
8.067e-05
7.648e-05
7.246e-05
6.861e-05
6.494e-05
6.144e-05
5.813e-05
5.501e-05
5.207e-05
4.932e-05
4.675e-05
4.435e-05
4.212e-05
4.004e-05
3.81e-05
3.629e-05
3.459e-05
3.3e-05
3.15e-05
3.009e-05
2.874e-05
2.747e-05
2.626e-05
2.511e-05
2.401e-05
2.295e-05
2.194e-05
2.098e-05
2.005e-05
1.915e-05
1.829e-05
1.746e-05
1.666e-05
1.589e-05
1.514e-05
1.441e-05
1.371e-05
1.302e-05
1.236e-05
1.171e-05
1.107e-05
1.045e-05
9.847e-06
9.253e-06
8.669e-06
8.095e-06
7.531e-06
6.974e-06
6.425e-06
5.882e-06
5.344e-06
4.812e-06
4.283e-06
3.757e-06
3.234e-06
2.712e-06
2.19e-06
1.667e-06
1.141e-06
6.102e-07
1.378e-07
0.0001904
0.0001924
0.0001937
0.0001941
0.0001938
0.0001932
0.0001922
0.0001911
0.0001901
0.000189
0.000188
0.0001871
0.0001862
0.0001853
0.0001845
0.0001837
0.0001829
0.0001821
0.0001813
0.0001805
0.0001798
0.000179
0.0001782
0.0001774
0.0001766
0.0001758
0.000175
0.0001742
0.0001734
0.0001725
0.0001716
0.0001708
0.0001698
0.0001689
0.000168
0.000167
0.0001659
0.0001649
0.0001638
0.0001627
0.0001615
0.0001602
0.0001589
0.0001576
0.0001561
0.0001546
0.000153
0.0001513
0.0001495
0.0001475
0.0001454
0.0001432
0.0001407
0.0001381
0.0001352
0.0001322
0.0001288
0.0001252
0.0001214
0.0001172
0.0001129
0.0001083
0.0001036
9.874e-05
9.394e-05
8.923e-05
8.465e-05
8.023e-05
7.599e-05
7.194e-05
6.806e-05
6.436e-05
6.084e-05
5.752e-05
5.438e-05
5.144e-05
4.869e-05
4.614e-05
4.377e-05
4.157e-05
3.952e-05
3.762e-05
3.585e-05
3.419e-05
3.263e-05
3.116e-05
2.978e-05
2.846e-05
2.721e-05
2.602e-05
2.489e-05
2.38e-05
2.277e-05
2.177e-05
2.081e-05
1.989e-05
1.901e-05
1.816e-05
1.734e-05
1.654e-05
1.578e-05
1.503e-05
1.431e-05
1.362e-05
1.294e-05
1.227e-05
1.163e-05
1.1e-05
1.039e-05
9.784e-06
9.195e-06
8.615e-06
8.046e-06
7.486e-06
6.933e-06
6.388e-06
5.849e-06
5.316e-06
4.787e-06
4.263e-06
3.741e-06
3.222e-06
2.704e-06
2.187e-06
1.668e-06
1.146e-06
6.201e-07
1.468e-07
0.0001881
0.0001899
0.0001912
0.0001918
0.0001917
0.0001913
0.0001906
0.0001897
0.0001888
0.0001879
0.000187
0.0001862
0.0001853
0.0001845
0.0001838
0.000183
0.0001823
0.0001816
0.0001809
0.0001802
0.0001794
0.0001787
0.000178
0.0001772
0.0001765
0.0001757
0.0001749
0.0001742
0.0001734
0.0001725
0.0001717
0.0001708
0.00017
0.0001691
0.0001681
0.0001672
0.0001662
0.0001652
0.0001641
0.000163
0.0001618
0.0001606
0.0001593
0.000158
0.0001566
0.0001551
0.0001536
0.0001519
0.0001501
0.0001482
0.0001462
0.0001439
0.0001415
0.0001389
0.0001361
0.000133
0.0001296
0.000126
0.000122
0.0001178
0.0001133
0.0001086
0.0001037
9.869e-05
9.372e-05
8.887e-05
8.418e-05
7.968e-05
7.538e-05
7.127e-05
6.734e-05
6.36e-05
6.004e-05
5.668e-05
5.352e-05
5.057e-05
4.783e-05
4.529e-05
4.295e-05
4.078e-05
3.878e-05
3.693e-05
3.52e-05
3.359e-05
3.207e-05
3.065e-05
2.93e-05
2.802e-05
2.681e-05
2.564e-05
2.454e-05
2.348e-05
2.246e-05
2.148e-05
2.055e-05
1.964e-05
1.878e-05
1.794e-05
1.713e-05
1.635e-05
1.56e-05
1.486e-05
1.416e-05
1.347e-05
1.28e-05
1.215e-05
1.151e-05
1.089e-05
1.028e-05
9.69e-06
9.107e-06
8.535e-06
7.973e-06
7.419e-06
6.873e-06
6.334e-06
5.801e-06
5.274e-06
4.751e-06
4.232e-06
3.716e-06
3.203e-06
2.691e-06
2.179e-06
1.666e-06
1.151e-06
6.309e-07
1.575e-07
0.0001861
0.0001878
0.0001891
0.0001897
0.0001899
0.0001896
0.0001891
0.0001885
0.0001877
0.0001869
0.0001861
0.0001853
0.0001846
0.0001839
0.0001832
0.0001825
0.0001818
0.0001811
0.0001805
0.0001798
0.0001791
0.0001784
0.0001778
0.0001771
0.0001764
0.0001756
0.0001749
0.0001742
0.0001734
0.0001726
0.0001718
0.000171
0.0001701
0.0001693
0.0001684
0.0001675
0.0001665
0.0001655
0.0001645
0.0001634
0.0001623
0.0001611
0.0001599
0.0001586
0.0001573
0.0001559
0.0001544
0.0001527
0.000151
0.0001492
0.0001472
0.000145
0.0001426
0.00014
0.0001372
0.0001341
0.0001307
0.0001269
0.0001229
0.0001186
0.0001139
0.000109
0.0001039
9.864e-05
9.347e-05
8.844e-05
8.361e-05
7.901e-05
7.462e-05
7.043e-05
6.643e-05
6.261e-05
5.899e-05
5.558e-05
5.239e-05
4.943e-05
4.67e-05
4.418e-05
4.188e-05
3.976e-05
3.781e-05
3.602e-05
3.435e-05
3.279e-05
3.134e-05
2.996e-05
2.866e-05
2.743e-05
2.625e-05
2.513e-05
2.405e-05
2.303e-05
2.204e-05
2.109e-05
2.018e-05
1.93e-05
1.845e-05
1.764e-05
1.685e-05
1.609e-05
1.535e-05
1.464e-05
1.394e-05
1.327e-05
1.261e-05
1.198e-05
1.135e-05
1.074e-05
1.015e-05
9.565e-06
8.992e-06
8.43e-06
7.876e-06
7.332e-06
6.794e-06
6.263e-06
5.738e-06
5.218e-06
4.703e-06
4.192e-06
3.683e-06
3.177e-06
2.672e-06
2.167e-06
1.662e-06
1.154e-06
6.427e-07
1.697e-07
0.0001844
0.000186
0.0001872
0.000188
0.0001882
0.0001882
0.0001878
0.0001873
0.0001867
0.000186
0.0001853
0.0001846
0.0001839
0.0001833
0.0001826
0.000182
0.0001814
0.0001807
0.0001801
0.0001795
0.0001789
0.0001782
0.0001776
0.0001769
0.0001763
0.0001756
0.0001749
0.0001742
0.0001735
0.0001727
0.000172
0.0001712
0.0001704
0.0001696
0.0001687
0.0001678
0.0001669
0.000166
0.000165
0.000164
0.0001629
0.0001618
0.0001607
0.0001594
0.0001582
0.0001568
0.0001554
0.0001538
0.0001522
0.0001504
0.0001484
0.0001463
0.000144
0.0001414
0.0001386
0.0001355
0.000132
0.0001282
0.0001241
0.0001196
0.0001147
0.0001095
0.0001041
9.862e-05
9.317e-05
8.792e-05
8.292e-05
7.819e-05
7.368e-05
6.938e-05
6.527e-05
6.136e-05
5.766e-05
5.419e-05
5.096e-05
4.798e-05
4.526e-05
4.278e-05
4.053e-05
3.848e-05
3.66e-05
3.488e-05
3.329e-05
3.18e-05
3.041e-05
2.91e-05
2.786e-05
2.668e-05
2.556e-05
2.448e-05
2.345e-05
2.246e-05
2.151e-05
2.059e-05
1.971e-05
1.887e-05
1.805e-05
1.726e-05
1.65e-05
1.576e-05
1.504e-05
1.435e-05
1.368e-05
1.302e-05
1.239e-05
1.176e-05
1.116e-05
1.056e-05
9.982e-06
9.412e-06
8.852e-06
8.301e-06
7.759e-06
7.225e-06
6.698e-06
6.177e-06
5.662e-06
5.151e-06
4.645e-06
4.142e-06
3.642e-06
3.144e-06
2.648e-06
2.152e-06
1.655e-06
1.157e-06
6.553e-07
1.835e-07
0.0001829
0.0001844
0.0001856
0.0001864
0.0001868
0.0001868
0.0001866
0.0001863
0.0001858
0.0001852
0.0001846
0.000184
0.0001834
0.0001828
0.0001822
0.0001816
0.000181
0.0001804
0.0001798
0.0001792
0.0001786
0.000178
0.0001774
0.0001768
0.0001762
0.0001756
0.0001749
0.0001743
0.0001736
0.0001729
0.0001722
0.0001715
0.0001707
0.0001699
0.0001691
0.0001683
0.0001674
0.0001666
0.0001656
0.0001647
0.0001637
0.0001626
0.0001615
0.0001604
0.0001592
0.0001579
0.0001566
0.0001551
0.0001536
0.0001519
0.00015
0.000148
0.0001458
0.0001432
0.0001404
0.0001373
0.0001338
0.0001299
0.0001256
0.0001209
0.0001158
0.0001103
0.0001045
9.863e-05
9.283e-05
8.729e-05
8.208e-05
7.716e-05
7.25e-05
6.804e-05
6.38e-05
5.976e-05
5.597e-05
5.242e-05
4.916e-05
4.618e-05
4.349e-05
4.106e-05
3.888e-05
3.692e-05
3.513e-05
3.351e-05
3.201e-05
3.062e-05
2.931e-05
2.808e-05
2.691e-05
2.579e-05
2.473e-05
2.371e-05
2.273e-05
2.178e-05
2.088e-05
2.001e-05
1.916e-05
1.835e-05
1.757e-05
1.681e-05
1.608e-05
1.537e-05
1.468e-05
1.402e-05
1.337e-05
1.273e-05
1.212e-05
1.152e-05
1.093e-05
1.035e-05
9.788e-06
9.234e-06
8.689e-06
8.152e-06
7.624e-06
7.102e-06
6.587e-06
6.077e-06
5.573e-06
5.073e-06
4.577e-06
4.084e-06
3.594e-06
3.106e-06
2.619e-06
2.133e-06
1.647e-06
1.159e-06
6.686e-07
1.984e-07
0.0001817
0.0001831
0.0001843
0.0001851
0.0001855
0.0001857
0.0001856
0.0001853
0.0001849
0.0001845
0.000184
0.0001834
0.0001829
0.0001823
0.0001817
0.0001812
0.0001806
0.0001801
0.0001796
0.000179
0.0001785
0.0001779
0.0001774
0.0001768
0.0001762
0.0001756
0.000175
0.0001744
0.0001738
0.0001731
0.0001725
0.0001718
0.0001711
0.0001704
0.0001696
0.0001688
0.000168
0.0001672
0.0001664
0.0001655
0.0001645
0.0001636
0.0001626
0.0001615
0.0001604
0.0001592
0.000158
0.0001566
0.0001552
0.0001537
0.0001519
0.00015
0.0001479
0.0001455
0.0001428
0.0001396
0.0001361
0.0001321
0.0001276
0.0001227
0.0001172
0.0001114
0.0001051
9.869e-05
9.242e-05
8.65e-05
8.1e-05
7.585e-05
7.097e-05
6.632e-05
6.19e-05
5.773e-05
5.382e-05
5.022e-05
4.693e-05
4.397e-05
4.133e-05
3.899e-05
3.691e-05
3.507e-05
3.341e-05
3.19e-05
3.052e-05
2.923e-05
2.803e-05
2.689e-05
2.58e-05
2.476e-05
2.377e-05
2.281e-05
2.189e-05
2.101e-05
2.015e-05
1.933e-05
1.853e-05
1.776e-05
1.702e-05
1.63e-05
1.561e-05
1.493e-05
1.427e-05
1.364e-05
1.301e-05
1.241e-05
1.182e-05
1.124e-05
1.067e-05
1.012e-05
9.571e-06
9.034e-06
8.506e-06
7.986e-06
7.472e-06
6.965e-06
6.463e-06
5.966e-06
5.474e-06
4.986e-06
4.501e-06
4.019e-06
3.54e-06
3.063e-06
2.587e-06
2.112e-06
1.636e-06
1.16e-06
6.824e-07
2.144e-07
0.0001806
0.0001819
0.0001831
0.0001839
0.0001844
0.0001846
0.0001846
0.0001845
0.0001842
0.0001838
0.0001834
0.0001829
0.0001824
0.0001819
0.0001814
0.0001809
0.0001804
0.0001799
0.0001794
0.0001788
0.0001783
0.0001778
0.0001773
0.0001768
0.0001762
0.0001757
0.0001751
0.0001746
0.000174
0.0001734
0.0001728
0.0001721
0.0001715
0.0001708
0.0001701
0.0001694
0.0001687
0.000168
0.0001672
0.0001664
0.0001655
0.0001646
0.0001637
0.0001628
0.0001618
0.0001607
0.0001596
0.0001584
0.0001571
0.0001557
0.0001542
0.0001525
0.0001505
0.0001483
0.0001456
0.0001426
0.0001391
0.000135
0.0001303
0.0001251
0.0001193
0.0001129
0.000106
9.885e-05
9.191e-05
8.547e-05
7.956e-05
7.408e-05
6.891e-05
6.402e-05
5.942e-05
5.511e-05
5.112e-05
4.747e-05
4.42e-05
4.129e-05
3.875e-05
3.654e-05
3.461e-05
3.292e-05
3.142e-05
3.006e-05
2.882e-05
2.767e-05
2.658e-05
2.555e-05
2.456e-05
2.361e-05
2.269e-05
2.181e-05
2.096e-05
2.014e-05
1.934e-05
1.858e-05
1.783e-05
1.711e-05
1.641e-05
1.574e-05
1.508e-05
1.444e-05
1.382e-05
1.322e-05
1.263e-05
1.205e-05
1.149e-05
1.093e-05
1.039e-05
9.858e-06
9.334e-06
8.817e-06
8.308e-06
7.805e-06
7.308e-06
6.816e-06
6.329e-06
5.846e-06
5.367e-06
4.891e-06
4.419e-06
3.949e-06
3.481e-06
3.016e-06
2.551e-06
2.088e-06
1.625e-06
1.161e-06
6.967e-07
2.312e-07
0.0001796
0.0001809
0.000182
0.0001828
0.0001834
0.0001837
0.0001838
0.0001837
0.0001835
0.0001832
0.0001829
0.0001825
0.000182
0.0001816
0.0001811
0.0001806
0.0001801
0.0001797
0.0001792
0.0001787
0.0001782
0.0001778
0.0001773
0.0001768
0.0001763
0.0001758
0.0001753
0.0001747
0.0001742
0.0001737
0.0001731
0.0001725
0.000172
0.0001714
0.0001707
0.0001701
0.0001694
0.0001688
0.0001681
0.0001673
0.0001666
0.0001658
0.000165
0.0001642
0.0001633
0.0001624
0.0001614
0.0001604
0.0001593
0.0001581
0.0001568
0.0001553
0.0001536
0.0001516
0.0001492
0.0001463
0.0001429
0.0001388
0.0001341
0.0001286
0.0001223
0.0001152
0.0001074
9.917e-05
9.123e-05
8.398e-05
7.747e-05
7.153e-05
6.604e-05
6.09e-05
5.614e-05
5.175e-05
4.772e-05
4.41e-05
4.089e-05
3.81e-05
3.572e-05
3.369e-05
3.197e-05
3.048e-05
2.918e-05
2.801e-05
2.693e-05
2.593e-05
2.498e-05
2.406e-05
2.319e-05
2.234e-05
2.151e-05
2.072e-05
1.994e-05
1.919e-05
1.846e-05
1.776e-05
1.707e-05
1.641e-05
1.576e-05
1.513e-05
1.452e-05
1.392e-05
1.334e-05
1.277e-05
1.221e-05
1.167e-05
1.114e-05
1.061e-05
1.009e-05
9.584e-06
9.083e-06
8.587e-06
8.098e-06
7.613e-06
7.134e-06
6.658e-06
6.187e-06
5.719e-06
5.254e-06
4.791e-06
4.332e-06
3.875e-06
3.419e-06
2.966e-06
2.513e-06
2.062e-06
1.612e-06
1.162e-06
7.111e-07
2.486e-07
0.0001788
0.00018
0.0001811
0.0001819
0.0001825
0.0001829
0.0001831
0.0001831
0.0001829
0.0001827
0.0001824
0.0001821
0.0001817
0.0001813
0.0001808
0.0001804
0.00018
0.0001795
0.0001791
0.0001786
0.0001782
0.0001777
0.0001773
0.0001768
0.0001764
0.0001759
0.0001754
0.000175
0.0001745
0.000174
0.0001735
0.000173
0.0001724
0.0001719
0.0001714
0.0001708
0.0001702
0.0001696
0.000169
0.0001684
0.0001677
0.0001671
0.0001664
0.0001656
0.0001649
0.0001642
0.0001634
0.0001625
0.0001617
0.0001607
0.0001597
0.0001585
0.0001572
0.0001555
0.0001535
0.0001509
0.0001478
0.0001439
0.0001392
0.0001336
0.0001269
0.000119
0.0001098
9.983e-05
9.012e-05
8.15e-05
7.41e-05
6.764e-05
6.186e-05
5.659e-05
5.181e-05
4.746e-05
4.352e-05
4.002e-05
3.697e-05
3.438e-05
3.223e-05
3.046e-05
2.9e-05
2.777e-05
2.67e-05
2.575e-05
2.487e-05
2.404e-05
2.324e-05
2.246e-05
2.171e-05
2.097e-05
2.025e-05
1.954e-05
1.885e-05
1.818e-05
1.752e-05
1.689e-05
1.626e-05
1.566e-05
1.507e-05
1.449e-05
1.392e-05
1.337e-05
1.283e-05
1.23e-05
1.178e-05
1.127e-05
1.077e-05
1.027e-05
9.783e-06
9.299e-06
8.821e-06
8.348e-06
7.879e-06
7.414e-06
6.953e-06
6.495e-06
6.039e-06
5.587e-06
5.136e-06
4.688e-06
4.242e-06
3.797e-06
3.355e-06
2.914e-06
2.474e-06
2.035e-06
1.598e-06
1.161e-06
7.256e-07
2.662e-07
0.0001781
0.0001793
0.0001803
0.0001812
0.0001818
0.0001822
0.0001824
0.0001825
0.0001824
0.0001823
0.000182
0.0001817
0.0001814
0.000181
0.0001806
0.0001802
0.0001798
0.0001794
0.000179
0.0001786
0.0001782
0.0001778
0.0001773
0.0001769
0.0001765
0.0001761
0.0001756
0.0001752
0.0001748
0.0001743
0.0001739
0.0001734
0.000173
0.0001725
0.000172
0.0001715
0.000171
0.0001705
0.00017
0.0001695
0.0001689
0.0001684
0.0001678
0.0001672
0.0001666
0.000166
0.0001654
0.0001648
0.0001642
0.0001635
0.0001628
0.0001621
0.0001611
0.0001599
0.0001584
0.0001564
0.0001538
0.0001505
0.0001463
0.0001411
0.0001345
0.000126
0.0001149
0.0001012
8.768e-05
7.666e-05
6.822e-05
6.138e-05
5.566e-05
5.062e-05
4.617e-05
4.214e-05
3.847e-05
3.522e-05
3.243e-05
3.014e-05
2.83e-05
2.686e-05
2.573e-05
2.481e-05
2.403e-05
2.332e-05
2.266e-05
2.202e-05
2.139e-05
2.077e-05
2.014e-05
1.952e-05
1.891e-05
1.83e-05
1.771e-05
1.712e-05
1.654e-05
1.598e-05
1.542e-05
1.488e-05
1.435e-05
1.383e-05
1.331e-05
1.281e-05
1.231e-05
1.182e-05
1.134e-05
1.086e-05
1.039e-05
9.928e-06
9.467e-06
9.009e-06
8.556e-06
8.106e-06
7.658e-06
7.213e-06
6.77e-06
6.329e-06
5.89e-06
5.453e-06
5.018e-06
4.583e-06
4.151e-06
3.719e-06
3.289e-06
2.861e-06
2.434e-06
2.008e-06
1.584e-06
1.161e-06
7.398e-07
2.837e-07
0.0001775
0.0001786
0.0001797
0.0001805
0.0001811
0.0001816
0.0001818
0.000182
0.000182
0.0001819
0.0001817
0.0001814
0.0001811
0.0001808
0.0001805
0.0001801
0.0001797
0.0001793
0.0001789
0.0001786
0.0001782
0.0001778
0.0001774
0.000177
0.0001766
0.0001762
0.0001759
0.0001755
0.0001751
0.0001747
0.0001743
0.0001739
0.0001735
0.0001731
0.0001727
0.0001723
0.0001718
0.0001714
0.000171
0.0001706
0.0001701
0.0001697
0.0001693
0.0001688
0.0001684
0.000168
0.0001676
0.0001672
0.0001668
0.0001665
0.0001661
0.0001658
0.0001654
0.0001648
0.0001639
0.0001627
0.0001609
0.0001586
0.0001556
0.0001518
0.0001471
0.0001394
0.0001251
0.0001039
8.187e-05
6.749e-05
5.812e-05
5.134e-05
4.672e-05
4.269e-05
3.912e-05
3.579e-05
3.263e-05
2.978e-05
2.736e-05
2.544e-05
2.401e-05
2.298e-05
2.224e-05
2.168e-05
2.121e-05
2.078e-05
2.036e-05
1.992e-05
1.947e-05
1.9e-05
1.852e-05
1.803e-05
1.753e-05
1.703e-05
1.653e-05
1.603e-05
1.554e-05
1.505e-05
1.457e-05
1.409e-05
1.362e-05
1.315e-05
1.269e-05
1.224e-05
1.179e-05
1.134e-05
1.09e-05
1.046e-05
1.002e-05
9.583e-06
9.151e-06
8.72e-06
8.291e-06
7.864e-06
7.438e-06
7.012e-06
6.588e-06
6.165e-06
5.742e-06
5.321e-06
4.9e-06
4.479e-06
4.06e-06
3.642e-06
3.224e-06
2.808e-06
2.394e-06
1.98e-06
1.569e-06
1.16e-06
7.536e-07
3.008e-07
0.000177
0.0001781
0.0001791
0.0001799
0.0001806
0.000181
0.0001813
0.0001815
0.0001816
0.0001815
0.0001814
0.0001812
0.0001809
0.0001806