/*--------------------------------*- C++ -*----------------------------------*\
  =========                 |
  \\      /  F ield         | OpenFOAM: The Open Source CFD Toolbox
   \\    /   O peration     | Website:  https://openfoam.org
    \\  /    A nd           | Version:  7
     \\/     M anipulation  |
\*---------------------------------------------------------------------------*/
FoamFile
{
    version     2.0;
    format      ascii;
    class       surfaceScalarField;
    location    "2519.99947344325346";
    object      phi;
}
// * * * * * * * * * * * * * * * * * * * * * * * * * * * * * * * * * * * * * //

dimensions      [0 3 -1 0 0 0 0];

internalField   nonuniform List<scalar> 
8032
(
6.857e-10
2.518e-10
4.804e-10
2.053e-10
3.48e-10
1.324e-10
2.643e-10
8.373e-11
2.101e-10
5.417e-11
1.737e-10
3.639e-11
1.482e-10
2.553e-11
1.295e-10
1.869e-11
1.153e-10
1.418e-11
1.043e-10
1.108e-11
9.542e-11
8.851e-12
8.823e-11
7.195e-12
8.23e-11
5.926e-12
7.737e-11
4.927e-12
7.325e-11
4.125e-12
6.978e-11
3.469e-12
6.686e-11
2.923e-12
6.439e-11
2.463e-12
6.232e-11
2.069e-12
6.06e-11
1.728e-12
5.917e-11
1.429e-12
5.8e-11
1.164e-12
5.708e-11
9.26e-13
5.637e-11
7.092e-13
5.586e-11
5.092e-13
5.554e-11
3.223e-13
5.539e-11
1.453e-13
5.541e-11
-2.46e-14
5.56e-11
-1.899e-13
5.596e-11
-3.527e-13
5.647e-11
-5.148e-13
5.715e-11
-6.779e-13
5.799e-11
-8.434e-13
5.901e-11
-1.013e-12
6.019e-11
-1.187e-12
6.156e-11
-1.366e-12
6.311e-11
-1.552e-12
6.485e-11
-1.744e-12
6.68e-11
-1.943e-12
6.895e-11
-2.148e-12
7.13e-11
-2.358e-12
7.388e-11
-2.573e-12
7.667e-11
-2.791e-12
7.968e-11
-3.01e-12
8.29e-11
-3.226e-12
8.634e-11
-3.437e-12
8.998e-11
-3.638e-12
9.38e-11
-3.825e-12
9.779e-11
-3.992e-12
1.019e-10
-4.133e-12
1.062e-10
-4.243e-12
1.105e-10
-4.313e-12
1.148e-10
-4.337e-12
1.191e-10
-4.309e-12
1.234e-10
-4.223e-12
1.274e-10
-4.074e-12
1.313e-10
-3.858e-12
1.349e-10
-3.574e-12
1.381e-10
-3.223e-12
1.409e-10
-2.808e-12
1.432e-10
-2.335e-12
1.45e-10
-1.814e-12
1.463e-10
-1.256e-12
1.47e-10
-6.738e-13
1.471e-10
-8.207e-14
1.465e-10
5.05e-13
1.455e-10
1.074e-12
1.439e-10
1.612e-12
1.418e-10
2.11e-12
1.392e-10
2.56e-12
1.362e-10
2.956e-12
1.329e-10
3.296e-12
1.294e-10
3.576e-12
1.256e-10
3.798e-12
1.216e-10
3.964e-12
1.175e-10
4.075e-12
1.134e-10
4.136e-12
1.092e-10
4.15e-12
1.051e-10
4.122e-12
1.011e-10
4.058e-12
9.71e-11
3.962e-12
9.326e-11
3.84e-12
8.956e-11
3.697e-12
8.602e-11
3.537e-12
8.266e-11
3.364e-12
7.948e-11
3.184e-12
7.648e-11
2.998e-12
7.367e-11
2.811e-12
7.104e-11
2.625e-12
6.86e-11
2.442e-12
6.633e-11
2.264e-12
6.424e-11
2.092e-12
6.232e-11
1.927e-12
6.055e-11
1.77e-12
5.892e-11
1.622e-12
5.744e-11
1.483e-12
5.609e-11
1.352e-12
5.486e-11
1.23e-12
5.374e-11
1.117e-12
5.273e-11
1.013e-12
5.181e-11
9.16e-13
5.099e-11
8.271e-13
5.024e-11
7.456e-13
4.957e-11
6.71e-13
4.897e-11
6.029e-13
4.842e-11
5.409e-13
4.794e-11
4.844e-13
4.751e-11
4.332e-13
4.712e-11
3.869e-13
4.678e-11
3.45e-13
4.647e-11
3.072e-13
4.619e-11
2.733e-13
4.595e-11
2.429e-13
4.574e-11
2.158e-13
4.554e-11
1.918e-13
4.537e-11
1.707e-13
4.522e-11
1.524e-13
4.508e-11
1.369e-13
4.496e-11
1.241e-13
4.485e-11
1.142e-13
4.474e-11
1.075e-13
4.463e-11
1.045e-13
4.453e-11
1.06e-13
4.441e-11
1.139e-13
4.428e-11
1.314e-13
4.412e-11
1.64e-13
4.39e-11
2.179e-13
2.832e-13
9.523e-10
2.37e-10
8.501e-10
3.075e-10
7.275e-10
2.55e-10
6.182e-10
1.93e-10
5.293e-10
1.431e-10
4.591e-10
1.066e-10
4.04e-10
8.066e-11
3.604e-10
6.229e-11
3.255e-10
4.908e-11
2.972e-10
3.937e-11
2.74e-10
3.206e-11
2.548e-10
2.642e-11
2.387e-10
2.199e-11
2.252e-10
1.843e-11
2.138e-10
1.553e-11
2.041e-10
1.312e-11
1.96e-10
1.111e-11
1.89e-10
9.39e-12
1.832e-10
7.914e-12
1.783e-10
6.629e-12
1.742e-10
5.497e-12
1.709e-10
4.489e-12
1.682e-10
3.579e-12
1.662e-10
2.75e-12
1.647e-10
1.984e-12
1.638e-10
1.266e-12
1.633e-10
5.865e-13
1.634e-10
-6.626e-14
1.639e-10
-7.009e-13
1.649e-10
-1.325e-12
1.663e-10
-1.946e-12
1.682e-10
-2.57e-12
1.705e-10
-3.201e-12
1.734e-10
-3.845e-12
1.767e-10
-4.505e-12
1.805e-10
-5.185e-12
1.849e-10
-5.885e-12
1.897e-10
-6.608e-12
1.951e-10
-7.353e-12
2.011e-10
-8.119e-12
2.076e-10
-8.903e-12
2.148e-10
-9.701e-12
2.225e-10
-1.051e-11
2.308e-10
-1.131e-11
2.397e-10
-1.21e-11
2.491e-10
-1.287e-11
2.591e-10
-1.36e-11
2.695e-10
-1.427e-11
2.804e-10
-1.487e-11
2.916e-10
-1.537e-11
3.031e-10
-1.575e-11
3.148e-10
-1.598e-11
3.265e-10
-1.605e-11
3.381e-10
-1.592e-11
3.495e-10
-1.557e-11
3.604e-10
-1.5e-11
3.707e-10
-1.419e-11
3.803e-10
-1.313e-11
3.889e-10
-1.183e-11
3.964e-10
-1.031e-11
4.026e-10
-8.573e-12
4.075e-10
-6.667e-12
4.109e-10
-4.628e-12
4.127e-10
-2.504e-12
4.13e-10
-3.437e-13
4.117e-10
1.802e-12
4.088e-10
3.884e-12
4.046e-10
5.86e-12
3.99e-10
7.694e-12
3.922e-10
9.357e-12
3.843e-10
1.083e-11
3.755e-10
1.21e-11
3.66e-10
1.315e-11
3.558e-10
1.399e-11
3.451e-10
1.463e-11
3.341e-10
1.507e-11
3.229e-10
1.532e-11
3.117e-10
1.54e-11
3.005e-10
1.533e-11
2.894e-10
1.511e-11
2.786e-10
1.479e-11
2.681e-10
1.436e-11
2.579e-10
1.385e-11
2.482e-10
1.327e-11
2.389e-10
1.265e-11
2.301e-10
1.199e-11
2.218e-10
1.131e-11
2.14e-10
1.063e-11
2.067e-10
9.943e-12
1.998e-10
9.267e-12
1.935e-10
8.606e-12
1.876e-10
7.967e-12
1.822e-10
7.353e-12
1.772e-10
6.767e-12
1.726e-10
6.211e-12
1.684e-10
5.687e-12
1.646e-10
5.196e-12
1.611e-10
4.736e-12
1.579e-10
4.309e-12
1.55e-10
3.912e-12
1.523e-10
3.545e-12
1.5e-10
3.207e-12
1.478e-10
2.897e-12
1.459e-10
2.612e-12
1.441e-10
2.351e-12
1.425e-10
2.114e-12
1.411e-10
1.897e-12
1.399e-10
1.7e-12
1.387e-10
1.522e-12
1.377e-10
1.36e-12
1.368e-10
1.214e-12
1.36e-10
1.083e-12
1.353e-10
9.648e-13
1.346e-10
8.595e-13
1.341e-10
7.66e-13
1.335e-10
6.837e-13
1.331e-10
6.122e-13
1.327e-10
5.512e-13
1.323e-10
5.006e-13
1.319e-10
4.608e-13
1.316e-10
4.323e-13
1.313e-10
4.165e-13
1.31e-10
4.151e-13
1.307e-10
4.311e-13
1.303e-10
4.688e-13
1.3e-10
5.33e-13
1.296e-10
6.228e-13
7.076e-13
9.779e-10
1.966e-10
9.637e-10
3.217e-10
9.013e-10
3.175e-10
8.211e-10
2.731e-10
7.408e-10
2.234e-10
6.677e-10
1.796e-10
6.042e-10
1.442e-10
5.501e-10
1.164e-10
5.045e-10
9.475e-11
4.66e-10
7.79e-11
4.334e-10
6.462e-11
4.058e-10
5.402e-11
3.823e-10
4.546e-11
3.623e-10
3.844e-11
3.452e-10
3.261e-11
3.306e-10
2.773e-11
3.181e-10
2.358e-11
3.075e-10
2.001e-11
2.985e-10
1.692e-11
2.909e-10
1.422e-11
2.846e-10
1.182e-11
2.794e-10
9.671e-12
2.753e-10
7.728e-12
2.721e-10
5.948e-12
2.698e-10
4.3e-12
2.683e-10
2.754e-12
2.676e-10
1.286e-12
2.676e-10
-1.245e-13
2.684e-10
-1.497e-12
2.699e-10
-2.847e-12
2.722e-10
-4.188e-12
2.752e-10
-5.535e-12
2.789e-10
-6.897e-12
2.833e-10
-8.284e-12
2.885e-10
-9.704e-12
2.945e-10
-1.116e-11
3.012e-10
-1.266e-11
3.088e-10
-1.421e-11
3.173e-10
-1.58e-11
3.266e-10
-1.743e-11
3.368e-10
-1.91e-11
3.479e-10
-2.079e-11
3.599e-10
-2.25e-11
3.728e-10
-2.419e-11
3.865e-10
-2.586e-11
4.011e-10
-2.748e-11
4.166e-10
-2.901e-11
4.327e-10
-3.041e-11
4.495e-10
-3.165e-11
4.668e-10
-3.268e-11
4.845e-10
-3.346e-11
5.024e-10
-3.392e-11
5.204e-10
-3.403e-11
5.382e-10
-3.372e-11
5.556e-10
-3.298e-11
5.724e-10
-3.175e-11
5.882e-10
-3.001e-11
6.028e-10
-2.776e-11
6.16e-10
-2.501e-11
6.275e-10
-2.178e-11
6.37e-10
-1.812e-11
6.445e-10
-1.411e-11
6.496e-10
-9.811e-12
6.525e-10
-5.336e-12
6.529e-10
-7.856e-13
6.51e-10
3.736e-12
6.467e-10
8.129e-12
6.403e-10
1.23e-11
6.318e-10
1.618e-11
6.214e-10
1.971e-11
6.094e-10
2.283e-11
5.96e-10
2.553e-11
5.814e-10
2.779e-11
5.658e-10
2.96e-11
5.494e-10
3.098e-11
5.325e-10
3.194e-11
5.153e-10
3.251e-11
4.98e-10
3.272e-11
4.807e-10
3.259e-11
4.637e-10
3.218e-11
4.469e-10
3.152e-11
4.307e-10
3.064e-11
4.149e-10
2.958e-11
3.998e-10
2.838e-11
3.854e-10
2.708e-11
3.717e-10
2.571e-11
3.587e-10
2.428e-11
3.465e-10
2.284e-11
3.35e-10
2.139e-11
3.244e-10
1.996e-11
3.144e-10
1.856e-11
3.052e-10
1.72e-11
2.966e-10
1.589e-11
2.887e-10
1.464e-11
2.815e-10
1.346e-11
2.749e-10
1.234e-11
2.688e-10
1.129e-11
2.632e-10
1.03e-11
2.581e-10
9.382e-12
2.535e-10
8.529e-12
2.493e-10
7.739e-12
2.455e-10
7.011e-12
2.421e-10
6.34e-12
2.39e-10
5.725e-12
2.361e-10
5.161e-12
2.336e-10
4.645e-12
2.313e-10
4.175e-12
2.293e-10
3.748e-12
2.275e-10
3.359e-12
2.258e-10
3.007e-12
2.243e-10
2.689e-12
2.23e-10
2.402e-12
2.218e-10
2.144e-12
2.208e-10
1.913e-12
2.198e-10
1.708e-12
2.19e-10
1.527e-12
2.182e-10
1.369e-12
2.176e-10
1.234e-12
2.169e-10
1.12e-12
2.164e-10
1.029e-12
2.158e-10
9.617e-13
2.153e-10
9.183e-13
2.148e-10
9.016e-13
2.144e-10
9.14e-13
2.139e-10
9.579e-13
2.134e-10
1.033e-12
2.129e-10
1.13e-12
1.209e-12
9.752e-10
1.589e-10
9.93e-10
3.039e-10
9.727e-10
3.378e-10
9.267e-10
3.191e-10
8.687e-10
2.814e-10
8.08e-10
2.404e-10
7.497e-10
2.024e-10
6.963e-10
1.698e-10
6.486e-10
1.425e-10
6.065e-10
1.199e-10
5.698e-10
1.014e-10
5.378e-10
8.601e-11
5.1e-10
7.323e-11
4.859e-10
6.253e-11
4.651e-10
5.347e-11
4.471e-10
4.575e-11
4.315e-10
3.912e-11
4.182e-10
3.335e-11
4.068e-10
2.831e-11
3.972e-10
2.386e-11
3.891e-10
1.988e-11
3.825e-10
1.63e-11
3.771e-10
1.305e-11
3.73e-10
1.006e-11
3.701e-10
7.272e-12
3.682e-10
4.654e-12
3.673e-10
2.162e-12
3.674e-10
-2.37e-13
3.685e-10
-2.573e-12
3.705e-10
-4.873e-12
3.735e-10
-7.16e-12
3.774e-10
-9.454e-12
3.823e-10
-1.177e-11
3.881e-10
-1.413e-11
3.95e-10
-1.655e-11
4.028e-10
-1.902e-11
4.117e-10
-2.157e-11
4.217e-10
-2.419e-11
4.328e-10
-2.687e-11
4.45e-10
-2.963e-11
4.583e-10
-3.244e-11
4.728e-10
-3.528e-11
4.884e-10
-3.814e-11
5.052e-10
-4.099e-11
5.231e-10
-4.378e-11
5.421e-10
-4.648e-11
5.622e-10
-4.903e-11
5.831e-10
-5.136e-11
6.049e-10
-5.341e-11
6.273e-10
-5.511e-11
6.502e-10
-5.637e-11
6.734e-10
-5.712e-11
6.966e-10
-5.726e-11
7.196e-10
-5.673e-11
7.421e-10
-5.544e-11
7.637e-10
-5.335e-11
7.841e-10
-5.042e-11
8.03e-10
-4.663e-11
8.2e-10
-4.201e-11
8.348e-10
-3.659e-11
8.471e-10
-3.045e-11
8.567e-10
-2.372e-11
8.635e-10
-1.652e-11
8.671e-10
-9.023e-12
8.678e-10
-1.397e-12
8.653e-10
6.182e-12
8.599e-10
1.355e-11
8.516e-10
2.056e-11
8.407e-10
2.707e-11
8.274e-10
3.3e-11
8.12e-10
3.827e-11
7.947e-10
4.283e-11
7.759e-10
4.665e-11
7.557e-10
4.973e-11
7.346e-10
5.209e-11
7.128e-10
5.374e-11
6.906e-10
5.474e-11
6.682e-10
5.514e-11
6.458e-10
5.497e-11
6.237e-10
5.432e-11
6.019e-10
5.324e-11
5.808e-10
5.18e-11
5.603e-10
5.006e-11
5.406e-10
4.809e-11
5.217e-10
4.592e-11
5.038e-10
4.363e-11
4.868e-10
4.126e-11
4.708e-10
3.884e-11
4.558e-10
3.641e-11
4.418e-10
3.401e-11
4.287e-10
3.165e-11
4.165e-10
2.937e-11
4.052e-10
2.716e-11
3.948e-10
2.505e-11
3.852e-10
2.305e-11
3.764e-10
2.115e-11
3.683e-10
1.937e-11
3.609e-10
1.77e-11
3.542e-10
1.614e-11
3.48e-10
1.468e-11
3.424e-10
1.334e-11
3.373e-10
1.21e-11
3.327e-10
1.095e-11
3.286e-10
9.9e-12
3.248e-10
8.935e-12
3.214e-10
8.052e-12
3.183e-10
7.246e-12
3.155e-10
6.512e-12
3.131e-10
5.844e-12
3.108e-10
5.238e-12
3.088e-10
4.69e-12
3.07e-10
4.195e-12
3.054e-10
3.75e-12
3.04e-10
3.351e-12
3.027e-10
2.995e-12
3.015e-10
2.681e-12
3.005e-10
2.405e-12
2.996e-10
2.168e-12
2.987e-10
1.967e-12
2.98e-10
1.802e-12
2.972e-10
1.675e-12
2.966e-10
1.586e-12
2.959e-10
1.536e-12
2.953e-10
1.527e-12
2.947e-10
1.557e-12
2.941e-10
1.623e-12
2.936e-10
1.709e-12
1.774e-12
9.668e-10
1.296e-10
9.944e-10
2.763e-10
9.977e-10
3.344e-10
9.778e-10
3.391e-10
9.421e-10
3.171e-10
8.98e-10
2.844e-10
8.51e-10
2.495e-10
8.045e-10
2.163e-10
7.604e-10
1.865e-10
7.199e-10
1.605e-10
6.831e-10
1.381e-10
6.502e-10
1.189e-10
6.21e-10
1.025e-10
5.951e-10
8.839e-11
5.723e-10
7.622e-11
5.524e-10
6.567e-11
5.351e-10
5.647e-11
5.201e-10
4.838e-11
5.071e-10
4.123e-11
4.961e-10
3.486e-11
4.869e-10
2.913e-11
4.792e-10
2.394e-11
4.731e-10
1.918e-11
4.684e-10
1.479e-11
4.65e-10
1.069e-11
4.628e-10
6.812e-12
4.618e-10
3.115e-12
4.621e-10
-4.539e-13
4.634e-10
-3.935e-12
4.659e-10
-7.366e-12
4.695e-10
-1.078e-11
4.743e-10
-1.421e-11
4.802e-10
-1.767e-11
4.872e-10
-2.119e-11
4.955e-10
-2.479e-11
5.049e-10
-2.848e-11
5.157e-10
-3.227e-11
5.276e-10
-3.616e-11
5.409e-10
-4.016e-11
5.555e-10
-4.424e-11
5.715e-10
-4.84e-11
5.888e-10
-5.261e-11
6.075e-10
-5.684e-11
6.276e-10
-6.104e-11
6.49e-10
-6.516e-11
6.716e-10
-6.913e-11
6.955e-10
-7.288e-11
7.204e-10
-7.63e-11
7.463e-10
-7.931e-11
7.73e-10
-8.179e-11
8.003e-10
-8.363e-11
8.278e-10
-8.47e-11
8.555e-10
-8.488e-11
8.828e-10
-8.406e-11
9.095e-10
-8.214e-11
9.352e-10
-7.903e-11
9.594e-10
-7.469e-11
9.819e-10
-6.908e-11
1.002e-09
-6.223e-11
1.02e-09
-5.421e-11
1.034e-09
-4.513e-11
1.046e-09
-3.517e-11
1.054e-09
-2.453e-11
1.058e-09
-1.344e-11
1.059e-09
-2.157e-12
1.056e-09
9.056e-12
1.05e-09
1.996e-11
1.04e-09
3.032e-11
1.027e-09
3.997e-11
1.011e-09
4.876e-11
9.93e-10
5.657e-11
9.725e-10
6.334e-11
9.501e-10
6.903e-11
9.262e-10
7.362e-11
9.012e-10
7.715e-11
8.753e-10
7.965e-11
8.489e-10
8.117e-11
8.222e-10
8.18e-11
7.955e-10
8.161e-11
7.692e-10
8.07e-11
7.433e-10
7.915e-11
7.18e-10
7.706e-11
6.936e-10
7.452e-11
6.7e-10
7.163e-11
6.475e-10
6.846e-11
6.26e-10
6.509e-11
6.057e-10
6.16e-11
5.865e-10
5.803e-11
5.684e-10
5.445e-11
5.515e-10
5.09e-11
5.358e-10
4.742e-11
5.211e-10
4.403e-11
5.075e-10
4.076e-11
4.949e-10
3.763e-11
4.833e-10
3.465e-11
4.727e-10
3.183e-11
4.629e-10
2.917e-11
4.539e-10
2.667e-11
4.457e-10
2.434e-11
4.382e-10
2.218e-11
4.314e-10
2.016e-11
4.252e-10
1.83e-11
4.195e-10
1.659e-11
4.144e-10
1.501e-11
4.098e-10
1.356e-11
4.056e-10
1.223e-11
4.018e-10
1.102e-11
3.984e-10
9.912e-12
3.954e-10
8.906e-12
3.926e-10
7.991e-12
3.901e-10
7.163e-12
3.879e-10
6.414e-12
3.859e-10
5.74e-12
3.842e-10
5.134e-12
3.826e-10
4.594e-12
3.811e-10
4.115e-12
3.798e-10
3.693e-12
3.787e-10
3.327e-12
3.776e-10
3.015e-12
3.767e-10
2.756e-12
3.758e-10
2.549e-12
3.75e-10
2.394e-12
3.742e-10
2.292e-12
3.735e-10
2.242e-12
3.728e-10
2.24e-12
3.722e-10
2.279e-12
3.715e-10
2.341e-12
2.39e-12
9.592e-10
1.08e-10
9.875e-10
2.48e-10
1.003e-09
3.193e-10
9.998e-10
3.418e-10
9.82e-10
3.349e-10
9.537e-10
3.127e-10
9.194e-10
2.838e-10
8.824e-10
2.533e-10
8.451e-10
2.238e-10
8.091e-10
1.965e-10
7.752e-10
1.72e-10
7.44e-10
1.502e-10
7.155e-10
1.31e-10
6.898e-10
1.141e-10
6.668e-10
9.921e-11
6.464e-10
8.608e-11
6.284e-10
7.446e-11
6.127e-10
6.412e-11
5.99e-10
5.487e-11
5.873e-10
4.655e-11
5.775e-10
3.9e-11
5.693e-10
3.211e-11
5.627e-10
2.576e-11
5.576e-10
1.986e-11
5.54e-10
1.432e-11
5.518e-10
9.068e-12
5.508e-10
4.038e-12
5.512e-10
-8.296e-13
5.529e-10
-5.588e-12
5.558e-10
-1.029e-11
5.6e-10
-1.497e-11
5.654e-10
-1.967e-11
5.722e-10
-2.442e-11
5.802e-10
-2.925e-11
5.896e-10
-3.419e-11
6.004e-10
-3.925e-11
6.126e-10
-4.444e-11
6.262e-10
-4.977e-11
6.412e-10
-5.523e-11
6.578e-10
-6.082e-11
6.759e-10
-6.65e-11
6.955e-10
-7.225e-11
7.167e-10
-7.801e-11
7.394e-10
-8.374e-11
7.636e-10
-8.935e-11
7.892e-10
-9.475e-11
8.162e-10
-9.984e-11
8.444e-10
-1.045e-10
8.737e-10
-1.086e-10
9.038e-10
-1.12e-10
9.346e-10
-1.144e-10
9.658e-10
-1.159e-10
9.971e-10
-1.161e-10
1.028e-09
-1.15e-10
1.058e-09
-1.124e-10
1.087e-09
-1.081e-10
1.115e-09
-1.022e-10
1.14e-09
-9.454e-11
1.163e-09
-8.518e-11
1.183e-09
-7.422e-11
1.2e-09
-6.182e-11
1.213e-09
-4.82e-11
1.222e-09
-3.364e-11
1.227e-09
-1.846e-11
1.228e-09
-3.034e-12
1.225e-09
1.23e-11
1.218e-09
2.721e-11
1.206e-09
4.139e-11
1.192e-09
5.458e-11
1.174e-09
6.66e-11
1.153e-09
7.728e-11
1.13e-09
8.654e-11
1.105e-09
9.433e-11
1.078e-09
1.006e-10
1.049e-09
1.055e-10
1.02e-09
1.089e-10
9.903e-10
1.111e-10
9.601e-10
1.12e-10
9.3e-10
1.118e-10
9.001e-10
1.105e-10
8.708e-10
1.085e-10
8.422e-10
1.057e-10
8.145e-10
1.022e-10
7.878e-10
9.831e-11
7.622e-10
9.402e-11
7.379e-10
8.944e-11
7.148e-10
8.469e-11
6.93e-10
7.984e-11
6.725e-10
7.496e-11
6.533e-10
7.012e-11
6.353e-10
6.537e-11
6.186e-10
6.074e-11
6.031e-10
5.627e-11
5.887e-10
5.199e-11
5.755e-10
4.791e-11
5.632e-10
4.404e-11
5.52e-10
4.039e-11
5.417e-10
3.697e-11
5.323e-10
3.377e-11
5.237e-10
3.078e-11
5.159e-10
2.802e-11
5.087e-10
2.545e-11
5.022e-10
2.309e-11
4.963e-10
2.091e-11
4.91e-10
1.89e-11
4.861e-10
1.707e-11
4.818e-10
1.539e-11
4.778e-10
1.386e-11
4.743e-10
1.246e-11
4.711e-10
1.119e-11
4.682e-10
1.004e-11
4.656e-10
9e-12
4.633e-10
8.061e-12
4.612e-10
7.217e-12
4.593e-10
6.462e-12
4.576e-10
5.791e-12
4.561e-10
5.199e-12
4.548e-10
4.681e-12
4.536e-10
4.237e-12
4.525e-10
3.862e-12
4.515e-10
3.556e-12
4.505e-10
3.317e-12
4.497e-10
3.145e-12
4.489e-10
3.036e-12
4.481e-10
2.986e-12
4.474e-10
2.984e-12
4.468e-10
3.014e-12
3.045e-12
9.536e-10
9.188e-11
9.794e-10
2.222e-10
9.994e-10
2.993e-10
1.007e-09
3.34e-10
1.002e-09
3.399e-10
9.869e-10
3.28e-10
9.643e-10
3.064e-10
9.372e-10
2.804e-10
9.079e-10
2.531e-10
8.78e-10
2.263e-10
8.488e-10
2.012e-10
8.209e-10
1.781e-10
7.948e-10
1.571e-10
7.708e-10
1.381e-10
7.488e-10
1.211e-10
7.291e-10
1.058e-10
7.115e-10
9.209e-11
6.959e-10
7.97e-11
6.823e-10
6.849e-11
6.705e-10
5.83e-11
6.605e-10
4.897e-11
6.523e-10
4.039e-11
6.456e-10
3.243e-11
6.405e-10
2.498e-11
6.368e-10
1.795e-11
6.346e-10
1.126e-11
6.338e-10
4.83e-12
6.344e-10
-1.416e-12
6.364e-10
-7.537e-12
6.397e-10
-1.359e-11
6.444e-10
-1.963e-11
6.504e-10
-2.571e-11
6.578e-10
-3.185e-11
6.667e-10
-3.81e-11
6.77e-10
-4.449e-11
6.888e-10
-5.103e-11
7.021e-10
-5.774e-11
7.169e-10
-6.463e-11
7.334e-10
-7.169e-11
7.515e-10
-7.89e-11
7.712e-10
-8.624e-11
7.926e-10
-9.365e-11
8.157e-10
-1.011e-10
8.404e-10
-1.085e-10
8.668e-10
-1.157e-10
8.947e-10
-1.227e-10
9.241e-10
-1.292e-10
9.549e-10
-1.353e-10
9.868e-10
-1.405e-10
1.02e-09
-1.449e-10
1.053e-09
-1.481e-10
1.088e-09
-1.5e-10
1.122e-09
-1.503e-10
1.156e-09
-1.489e-10
1.189e-09
-1.455e-10
1.221e-09
-1.401e-10
1.251e-09
-1.324e-10
1.279e-09
-1.226e-10
1.304e-09
-1.105e-10
1.326e-09
-9.629e-11
1.345e-09
-8.023e-11
1.359e-09
-6.257e-11
1.369e-09
-4.368e-11
1.375e-09
-2.4e-11
1.376e-09
-3.989e-12
1.372e-09
1.59e-11
1.364e-09
3.522e-11
1.352e-09
5.358e-11
1.336e-09
7.066e-11
1.316e-09
8.62e-11
1.294e-09
1e-10
1.268e-09
1.12e-10
1.24e-09
1.221e-10
1.211e-09
1.302e-10
1.18e-09
1.365e-10
1.148e-09
1.41e-10
1.115e-09
1.438e-10
1.082e-09
1.449e-10
1.049e-09
1.447e-10
1.016e-09
1.432e-10
9.844e-10
1.405e-10
9.531e-10
1.369e-10
9.228e-10
1.325e-10
8.937e-10
1.275e-10
8.658e-10
1.219e-10
8.391e-10
1.161e-10
8.139e-10
1.099e-10
7.9e-10
1.037e-10
7.676e-10
9.74e-11
7.466e-10
9.116e-11
7.269e-10
8.502e-11
7.086e-10
7.905e-11
6.916e-10
7.328e-11
6.758e-10
6.774e-11
6.613e-10
6.246e-11
6.479e-10
5.746e-11
6.355e-10
5.273e-11
6.242e-10
4.83e-11
6.138e-10
4.414e-11
6.043e-10
4.027e-11
5.957e-10
3.668e-11
5.878e-10
3.335e-11
5.806e-10
3.027e-11
5.741e-10
2.743e-11
5.682e-10
2.482e-11
5.628e-10
2.243e-11
5.579e-10
2.024e-11
5.536e-10
1.824e-11
5.496e-10
1.642e-11
5.46e-10
1.476e-11
5.428e-10
1.325e-11
5.399e-10
1.189e-11
5.373e-10
1.065e-11
5.35e-10
9.545e-12
5.329e-10
8.552e-12
5.311e-10
7.666e-12
5.294e-10
6.882e-12
5.279e-10
6.194e-12
5.265e-10
5.598e-12
5.253e-10
5.09e-12
5.242e-10
4.669e-12
5.231e-10
4.33e-12
5.222e-10
4.071e-12
5.214e-10
3.888e-12
5.206e-10
3.776e-12
5.198e-10
3.724e-12
5.191e-10
3.715e-12
3.725e-12
9.497e-10
7.964e-11
9.723e-10
1.996e-10
9.936e-10
2.781e-10
1.007e-09
3.205e-10
1.011e-09
3.361e-10
1.006e-09
3.333e-10
9.93e-10
3.191e-10
9.751e-10
2.983e-10
9.537e-10
2.744e-10
9.305e-10
2.495e-10
9.067e-10
2.25e-10
8.832e-10
2.016e-10
8.605e-10
1.798e-10
8.391e-10
1.595e-10
8.193e-10
1.41e-10
8.01e-10
1.24e-10
7.846e-10
1.086e-10
7.699e-10
9.442e-11
7.569e-10
8.147e-11
7.456e-10
6.957e-11
7.36e-10
5.858e-11
7.28e-10
4.839e-11
7.216e-10
3.886e-11
7.167e-10
2.99e-11
7.132e-10
2.139e-11
7.112e-10
1.326e-11
7.107e-10
5.399e-12
7.115e-10
-2.255e-12
7.137e-10
-9.778e-12
7.174e-10
-1.724e-11
7.224e-10
-2.469e-11
7.289e-10
-3.219e-11
7.369e-10
-3.979e-11
7.463e-10
-4.753e-11
7.573e-10
-5.543e-11
7.698e-10
-6.354e-11
7.839e-10
-7.185e-11
7.996e-10
-8.038e-11
8.17e-10
-8.912e-11
8.362e-10
-9.805e-11
8.571e-10
-1.071e-10
8.797e-10
-1.163e-10
9.042e-10
-1.255e-10
9.304e-10
-1.347e-10
9.583e-10
-1.436e-10
9.879e-10
-1.523e-10
1.019e-09
-1.604e-10
1.052e-09
-1.679e-10
1.086e-09
-1.745e-10
1.121e-09
-1.799e-10
1.157e-09
-1.84e-10
1.193e-09
-1.864e-10
1.23e-09
-1.869e-10
1.266e-09
-1.852e-10
1.301e-09
-1.811e-10
1.336e-09
-1.744e-10
1.368e-09
-1.65e-10
1.398e-09
-1.527e-10
1.426e-09
-1.377e-10
1.45e-09
-1.201e-10
1.469e-09
-1.001e-10
1.485e-09
-7.809e-11
1.496e-09
-5.453e-11
1.502e-09
-2.996e-11
1.503e-09
-4.978e-12
1.499e-09
1.983e-11
1.49e-09
4.391e-11
1.477e-09
6.677e-11
1.46e-09
8.801e-11
1.439e-09
1.073e-10
1.414e-09
1.245e-10
1.387e-09
1.393e-10
1.357e-09
1.518e-10
1.325e-09
1.619e-10
1.292e-09
1.697e-10
1.258e-09
1.752e-10
1.223e-09
1.787e-10
1.188e-09
1.801e-10
1.153e-09
1.798e-10
1.118e-09
1.779e-10
1.084e-09
1.746e-10
1.051e-09
1.701e-10
1.018e-09
1.647e-10
9.875e-10
1.585e-10
9.578e-10
1.516e-10
9.296e-10
1.443e-10
9.027e-10
1.368e-10
8.774e-10
1.29e-10
8.536e-10
1.212e-10
8.312e-10
1.135e-10
8.104e-10
1.059e-10
7.909e-10
9.85e-11
7.728e-10
9.135e-11
7.561e-10
8.449e-11
7.406e-10
7.794e-11
7.263e-10
7.173e-11
7.132e-10
6.587e-11
7.011e-10
6.037e-11
6.9e-10
5.521e-11
6.799e-10
5.04e-11
6.707e-10
4.593e-11
6.622e-10
4.178e-11
6.545e-10
3.795e-11
6.476e-10
3.442e-11
6.412e-10
3.116e-11
6.355e-10
2.818e-11
6.303e-10
2.545e-11
6.255e-10
2.295e-11
6.213e-10
2.067e-11
6.175e-10
1.859e-11
6.14e-10
1.671e-11
6.109e-10
1.5e-11
6.081e-10
1.345e-11
6.056e-10
1.206e-11
6.033e-10
1.081e-11
6.013e-10
9.691e-12
5.995e-10
8.699e-12
5.979e-10
7.825e-12
5.964e-10
7.063e-12
5.951e-10
6.409e-12
5.939e-10
5.857e-12
5.928e-10
5.405e-12
5.918e-10
5.047e-12
5.909e-10
4.779e-12
5.901e-10
4.595e-12
5.894e-10
4.484e-12
5.886e-10
4.431e-12
4.418e-12
9.471e-10
7.001e-11
9.667e-10
1.8e-10
9.876e-10
2.572e-10
1.004e-09
3.04e-10
1.014e-09
3.266e-10
1.015e-09
3.313e-10
1.011e-09
3.238e-10
1.001e-09
3.084e-10
9.866e-10
2.884e-10
9.7e-10
2.662e-10
9.518e-10
2.432e-10
9.331e-10
2.204e-10
9.144e-10
1.984e-10
8.963e-10
1.776e-10
8.791e-10
1.582e-10
8.631e-10
1.401e-10
8.484e-10
1.233e-10
8.351e-10
1.077e-10
8.232e-10
9.33e-11
8.129e-10
7.992e-11
8.04e-10
6.745e-11
7.966e-10
5.578e-11
7.907e-10
4.48e-11
7.862e-10
3.44e-11
7.831e-10
2.447e-11
7.814e-10
1.493e-11
7.812e-10
5.673e-12
7.823e-10
-3.376e-12
7.848e-10
-1.23e-11
7.887e-10
-2.116e-11
7.941e-10
-3.004e-11
8.009e-10
-3.899e-11
8.091e-10
-4.807e-11
8.189e-10
-5.732e-11
8.303e-10
-6.678e-11
8.432e-10
-7.647e-11
8.578e-10
-8.643e-11
8.741e-10
-9.664e-11
8.921e-10
-1.071e-10
9.118e-10
-1.178e-10
9.334e-10
-1.287e-10
9.568e-10
-1.397e-10
9.821e-10
-1.508e-10
1.009e-09
-1.618e-10
1.038e-09
-1.726e-10
1.069e-09
-1.83e-10
1.101e-09
-1.928e-10
1.135e-09
-2.018e-10
1.17e-09
-2.098e-10
1.207e-09
-2.165e-10
1.244e-09
-2.215e-10
1.282e-09
-2.245e-10
1.321e-09
-2.252e-10
1.359e-09
-2.233e-10
1.396e-09
-2.186e-10
1.433e-09
-2.106e-10
1.467e-09
-1.994e-10
1.499e-09
-1.847e-10
1.528e-09
-1.667e-10
1.553e-09
-1.455e-10
1.574e-09
-1.213e-10
1.591e-09
-9.461e-11
1.602e-09
-6.604e-11
1.609e-09
-3.624e-11
1.61e-09
-5.948e-12
1.605e-09
2.411e-11
1.596e-09
5.324e-11
1.582e-09
8.085e-11
1.564e-09
1.065e-10
1.541e-09
1.297e-10
1.515e-09
1.503e-10
1.486e-09
1.682e-10
1.455e-09
1.831e-10
1.422e-09
1.952e-10
1.387e-09
2.045e-10
1.351e-09
2.111e-10
1.315e-09
2.152e-10
1.278e-09
2.169e-10
1.241e-09
2.165e-10
1.205e-09
2.141e-10
1.169e-09
2.101e-10
1.135e-09
2.047e-10
1.101e-09
1.982e-10
1.069e-09
1.907e-10
1.038e-09
1.824e-10
1.009e-09
1.737e-10
9.812e-10
1.646e-10
9.549e-10
1.553e-10
9.302e-10
1.459e-10
9.071e-10
1.367e-10
8.855e-10
1.275e-10
8.653e-10
1.187e-10
8.466e-10
1.101e-10
8.292e-10
1.018e-10
8.132e-10
9.399e-11
7.984e-10
8.653e-11
7.848e-10
7.95e-11
7.723e-10
7.288e-11
7.608e-10
6.669e-11
7.503e-10
6.091e-11
7.407e-10
5.553e-11
7.319e-10
5.055e-11
7.239e-10
4.594e-11
7.166e-10
4.168e-11
7.1e-10
3.777e-11
7.04e-10
3.417e-11
6.986e-10
3.088e-11
6.937e-10
2.786e-11
6.893e-10
2.511e-11
6.853e-10
2.26e-11
6.816e-10
2.032e-11
6.784e-10
1.825e-11
6.754e-10
1.638e-11
6.728e-10
1.469e-11
6.704e-10
1.317e-11
6.683e-10
1.181e-11
6.664e-10
1.06e-11
6.647e-10
9.533e-12
6.632e-10
8.595e-12
6.618e-10
7.784e-12
6.606e-10
7.092e-12
6.595e-10
6.516e-12
6.585e-10
6.05e-12
6.575e-10
5.689e-12
6.567e-10
5.424e-12
6.56e-10
5.249e-12
6.552e-10
5.15e-12
5.112e-12
9.453e-10
6.222e-11
9.623e-10
1.63e-10
9.821e-10
2.374e-10
9.998e-10
2.863e-10
1.013e-09
3.137e-10
1.02e-09
3.242e-10
1.021e-09
3.224e-10
1.018e-09
3.121e-10
1.01e-09
2.961e-10
9.993e-10
2.769e-10
9.865e-10
2.559e-10
9.726e-10
2.343e-10
9.581e-10
2.129e-10
9.436e-10
1.922e-10
9.294e-10
1.723e-10
9.16e-10
1.535e-10
9.035e-10
1.358e-10
8.92e-10
1.192e-10
8.816e-10
1.036e-10
8.725e-10
8.902e-11
8.647e-10
7.528e-11
8.582e-10
6.232e-11
8.53e-10
5.003e-11
8.49e-10
3.831e-11
8.465e-10
2.706e-11
8.452e-10
1.619e-11
8.453e-10
5.603e-12
8.467e-10
-4.787e-12
8.494e-10
-1.506e-11
8.536e-10
-2.53e-11
8.591e-10
-3.558e-11
8.661e-10
-4.596e-11
8.745e-10
-5.65e-11
8.845e-10
-6.725e-11
8.959e-10
-7.826e-11
9.09e-10
-8.955e-11
9.237e-10
-1.011e-10
9.402e-10
-1.131e-10
9.583e-10
-1.253e-10
9.783e-10
-1.378e-10
1e-09
-1.505e-10
1.024e-09
-1.634e-10
1.049e-09
-1.763e-10
1.077e-09
-1.892e-10
1.106e-09
-2.019e-10
1.137e-09
-2.141e-10
1.17e-09
-2.257e-10
1.205e-09
-2.364e-10
1.241e-09
-2.459e-10
1.278e-09
-2.538e-10
1.317e-09
-2.599e-10
1.356e-09
-2.637e-10
1.395e-09
-2.647e-10
1.435e-09
-2.628e-10
1.474e-09
-2.574e-10
1.511e-09
-2.483e-10
1.547e-09
-2.353e-10
1.581e-09
-2.182e-10
1.611e-09
-1.971e-10
1.638e-09
-1.721e-10
1.66e-09
-1.435e-10
1.677e-09
-1.12e-10
1.689e-09
-7.809e-11
1.696e-09
-4.275e-11
1.697e-09
-6.834e-12
1.692e-09
2.875e-11
1.682e-09
6.318e-11
1.667e-09
9.575e-11
1.648e-09
1.259e-10
1.624e-09
1.532e-10
1.597e-09
1.773e-10
1.567e-09
1.982e-10
1.535e-09
2.156e-10
1.5e-09
2.297e-10
1.464e-09
2.405e-10
1.427e-09
2.481e-10
1.39e-09
2.528e-10
1.352e-09
2.547e-10
1.314e-09
2.541e-10
1.277e-09
2.512e-10
1.241e-09
2.465e-10
1.205e-09
2.401e-10
1.171e-09
2.323e-10
1.139e-09
2.234e-10
1.107e-09
2.138e-10
1.077e-09
2.035e-10
1.049e-09
1.928e-10
1.023e-09
1.819e-10
9.975e-10
1.71e-10
9.741e-10
1.601e-10
9.522e-10
1.494e-10
9.318e-10
1.39e-10
9.128e-10
1.29e-10
8.953e-10
1.194e-10
8.79e-10
1.102e-10
8.641e-10
1.015e-10
8.503e-10
9.328e-11
8.376e-10
8.555e-11
8.26e-10
7.831e-11
8.154e-10
7.155e-11
8.056e-10
6.527e-11
7.967e-10
5.943e-11
7.886e-10
5.404e-11
7.813e-10
4.906e-11
7.746e-10
4.447e-11
7.685e-10
4.026e-11
7.63e-10
3.64e-11
7.58e-10
3.286e-11
7.534e-10
2.963e-11
7.494e-10
2.669e-11
7.457e-10
2.401e-11
7.424e-10
2.157e-11
7.394e-10
1.937e-11
7.367e-10
1.738e-11
7.343e-10
1.559e-11
7.321e-10
1.398e-11
7.302e-10
1.255e-11
7.284e-10
1.127e-11
7.269e-10
1.015e-11
7.255e-10
9.18e-12
7.242e-10
8.343e-12
7.231e-10
7.637e-12
7.221e-10
7.057e-12
7.212e-10
6.596e-12
7.204e-10
6.247e-12
7.196e-10
6.004e-12
7.189e-10
5.856e-12
5.794e-12
9.44e-10
5.573e-11
9.589e-10
1.481e-10
9.773e-10
2.189e-10
9.954e-10
2.683e-10
1.01e-09
2.986e-10
1.021e-09
3.135e-10
1.027e-09
3.165e-10
1.029e-09
3.106e-10
1.026e-09
2.985e-10
1.021e-09
2.823e-10
1.013e-09
2.636e-10
1.004e-09
2.437e-10
9.933e-10
2.233e-10
9.824e-10
2.03e-10
9.715e-10
1.832e-10
9.608e-10
1.642e-10
9.507e-10
1.46e-10
9.413e-10
1.286e-10
9.327e-10
1.122e-10
9.251e-10
9.664e-11
9.185e-10
8.187e-11
9.13e-10
6.781e-11
9.086e-10
5.439e-11
9.054e-10
4.15e-11
9.034e-10
2.906e-11
9.026e-10
1.698e-11
9.031e-10
5.164e-12
9.048e-10
-6.48e-12
9.077e-10
-1.803e-11
9.12e-10
-2.958e-11
9.176e-10
-4.12e-11
9.246e-10
-5.295e-11
9.33e-10
-6.49e-11
9.429e-10
-7.711e-11
9.542e-10
-8.963e-11
9.672e-10
-1.025e-10
9.817e-10
-1.157e-10
9.979e-10
-1.293e-10
1.016e-09
-1.432e-10
1.036e-09
-1.575e-10
1.057e-09
-1.72e-10
1.081e-09
-1.868e-10
1.106e-09
-2.016e-10
1.133e-09
-2.164e-10
1.162e-09
-2.31e-10
1.193e-09
-2.451e-10
1.226e-09
-2.586e-10
1.261e-09
-2.71e-10
1.297e-09
-2.821e-10
1.335e-09
-2.915e-10
1.373e-09
-2.987e-10
1.413e-09
-3.033e-10
1.453e-09
-3.049e-10
1.493e-09
-3.03e-10
1.533e-09
-2.972e-10
1.572e-09
-2.871e-10
1.609e-09
-2.724e-10
1.644e-09
-2.529e-10
1.675e-09
-2.286e-10
1.703e-09
-1.997e-10
1.726e-09
-1.667e-10
1.744e-09
-1.3e-10
1.757e-09
-9.055e-11
1.763e-09
-4.938e-11
1.764e-09
-7.563e-12
1.759e-09
3.38e-11
1.748e-09
7.373e-11
1.733e-09
1.114e-10
1.712e-09
1.461e-10
1.688e-09
1.775e-10
1.66e-09
2.052e-10
1.629e-09
2.29e-10
1.596e-09
2.49e-10
1.561e-09
2.65e-10
1.524e-09
2.772e-10
1.486e-09
2.858e-10
1.448e-09
2.909e-10
1.41e-09
2.929e-10
1.372e-09
2.92e-10
1.335e-09
2.886e-10
1.298e-09
2.83e-10
1.263e-09
2.755e-10
1.229e-09
2.665e-10
1.196e-09
2.562e-10
1.165e-09
2.45e-10
1.135e-09
2.332e-10
1.107e-09
2.209e-10
1.08e-09
2.084e-10
1.055e-09
1.958e-10
1.032e-09
1.834e-10
1.01e-09
1.711e-10
9.902e-10
1.592e-10
9.715e-10
1.478e-10
9.541e-10
1.368e-10
9.381e-10
1.263e-10
9.233e-10
1.163e-10
9.096e-10
1.069e-10
8.971e-10
9.807e-11
8.856e-10
8.98e-11
8.751e-10
8.207e-11
8.655e-10
7.489e-11
8.567e-10
6.822e-11
8.487e-10
6.205e-11
8.414e-10
5.636e-11
8.348e-10
5.111e-11
8.287e-10
4.629e-11
8.233e-10
4.187e-11
8.183e-10
3.782e-11
8.138e-10
3.412e-11
8.098e-10
3.074e-11
8.061e-10
2.767e-11
8.028e-10
2.488e-11
7.998e-10
2.234e-11
7.972e-10
2.005e-11
7.948e-10
1.799e-11
7.926e-10
1.614e-11
7.907e-10
1.448e-11
7.889e-10
1.3e-11
7.874e-10
1.17e-11
7.86e-10
1.056e-11
7.848e-10
9.578e-12
7.837e-10
8.741e-12
7.827e-10
8.044e-12
7.818e-10
7.481e-12
7.81e-10
7.047e-12
7.803e-10
6.733e-12
7.796e-10
6.536e-12
6.449e-12
9.43e-10
5.021e-11
9.562e-10
1.349e-10
9.733e-10
2.018e-10
9.911e-10
2.505e-10
1.007e-09
2.825e-10
1.02e-09
3.005e-10
1.03e-09
3.071e-10
1.035e-09
3.05e-10
1.037e-09
2.964e-10
1.036e-09
2.832e-10
1.033e-09
2.67e-10
1.028e-09
2.489e-10
1.021e-09
2.298e-10
1.014e-09
2.103e-10
1.006e-09
1.91e-10
9.985e-10
1.72e-10
9.909e-10
1.536e-10
9.836e-10
1.359e-10
9.769e-10
1.189e-10
9.709e-10
1.027e-10
9.657e-10
8.708e-11
9.613e-10
7.215e-11
9.58e-10
5.778e-11
9.555e-10
4.39e-11
9.542e-10
3.043e-11
9.539e-10
1.728e-11
9.547e-10
4.359e-12
9.566e-10
-8.423e-12
9.597e-10
-2.115e-11
9.641e-10
-3.39e-11
9.696e-10
-4.676e-11
9.765e-10
-5.98e-11
9.847e-10
-7.309e-11
9.943e-10
-8.669e-11
1.005e-09
-1.006e-10
1.018e-09
-1.15e-10
1.032e-09
-1.297e-10
1.047e-09
-1.449e-10
1.065e-09
-1.606e-10
1.084e-09
-1.766e-10
1.105e-09
-1.929e-10
1.127e-09
-2.095e-10
1.152e-09
-2.262e-10
1.178e-09
-2.429e-10
1.207e-09
-2.594e-10
1.237e-09
-2.755e-10
1.269e-09
-2.908e-10
1.303e-09
-3.05e-10
1.339e-09
-3.178e-10
1.376e-09
-3.287e-10
1.415e-09
-3.372e-10
1.454e-09
-3.429e-10
1.495e-09
-3.452e-10
1.535e-09
-3.435e-10
1.575e-09
-3.374e-10
1.615e-09
-3.264e-10