/*--------------------------------*- C++ -*----------------------------------*\
  =========                 |
  \\      /  F ield         | OpenFOAM: The Open Source CFD Toolbox
   \\    /   O peration     | Website:  https://openfoam.org
    \\  /    A nd           | Version:  7
     \\/     M anipulation  |
\*---------------------------------------------------------------------------*/
FoamFile
{
    version     2.0;
    format      ascii;
    class       volVectorField;
    location    "2519.99947344325346";
    object      U;
}
// * * * * * * * * * * * * * * * * * * * * * * * * * * * * * * * * * * * * * //

dimensions      [0 1 -1 0 0 0 0];

internalField   nonuniform List<vector> 
4096
(
(0.001039 0.0001611 0)
(0.0007463 0.0001314 0)
(0.0005302 8.473e-05 0)
(0.0003919 5.358e-05 0)
(0.0003036 3.467e-05 0)
(0.0002457 2.329e-05 0)
(0.0002061 1.634e-05 0)
(0.0001778 1.196e-05 0)
(0.0001567 9.075e-06 0)
(0.0001406 7.089e-06 0)
(0.0001278 5.665e-06 0)
(0.0001175 4.605e-06 0)
(0.0001091 3.792e-06 0)
(0.0001022 3.153e-06 0)
(9.64e-05 2.64e-06 0)
(9.154e-05 2.22e-06 0)
(8.745e-05 1.871e-06 0)
(8.4e-05 1.576e-06 0)
(8.11e-05 1.324e-06 0)
(7.867e-05 1.106e-06 0)
(7.665e-05 9.148e-07 0)
(7.499e-05 7.451e-07 0)
(7.365e-05 5.926e-07 0)
(7.26e-05 4.539e-07 0)
(7.182e-05 3.259e-07 0)
(7.129e-05 2.063e-07 0)
(7.099e-05 9.301e-08 0)
(7.092e-05 -1.575e-08 0)
(7.105e-05 -1.215e-07 0)
(7.14e-05 -2.257e-07 0)
(7.195e-05 -3.294e-07 0)
(7.272e-05 -4.338e-07 0)
(7.369e-05 -5.398e-07 0)
(7.488e-05 -6.481e-07 0)
(7.629e-05 -7.594e-07 0)
(7.792e-05 -8.743e-07 0)
(7.979e-05 -9.932e-07 0)
(8.19e-05 -1.116e-06 0)
(8.426e-05 -1.243e-06 0)
(8.688e-05 -1.375e-06 0)
(8.976e-05 -1.509e-06 0)
(9.292e-05 -1.647e-06 0)
(9.635e-05 -1.786e-06 0)
(0.0001001 -1.926e-06 0)
(0.0001041 -2.065e-06 0)
(0.0001083 -2.199e-06 0)
(0.0001128 -2.328e-06 0)
(0.0001176 -2.448e-06 0)
(0.0001226 -2.555e-06 0)
(0.0001278 -2.645e-06 0)
(0.0001332 -2.715e-06 0)
(0.0001387 -2.76e-06 0)
(0.0001442 -2.776e-06 0)
(0.0001497 -2.758e-06 0)
(0.0001552 -2.703e-06 0)
(0.0001605 -2.607e-06 0)
(0.0001656 -2.469e-06 0)
(0.0001703 -2.288e-06 0)
(0.0001747 -2.063e-06 0)
(0.0001785 -1.797e-06 0)
(0.0001818 -1.495e-06 0)
(0.0001845 -1.161e-06 0)
(0.0001865 -8.038e-07 0)
(0.0001877 -4.312e-07 0)
(0.0001882 -5.252e-08 0)
(0.0001879 3.232e-07 0)
(0.0001869 6.872e-07 0)
(0.0001852 1.032e-06 0)
(0.0001828 1.351e-06 0)
(0.0001798 1.639e-06 0)
(0.0001763 1.892e-06 0)
(0.0001723 2.109e-06 0)
(0.0001679 2.289e-06 0)
(0.0001632 2.431e-06 0)
(0.0001582 2.537e-06 0)
(0.000153 2.608e-06 0)
(0.0001478 2.647e-06 0)
(0.0001425 2.656e-06 0)
(0.0001372 2.638e-06 0)
(0.000132 2.597e-06 0)
(0.0001268 2.536e-06 0)
(0.0001218 2.458e-06 0)
(0.000117 2.366e-06 0)
(0.0001124 2.263e-06 0)
(0.000108 2.153e-06 0)
(0.0001038 2.038e-06 0)
(9.981e-05 1.919e-06 0)
(9.609e-05 1.799e-06 0)
(9.261e-05 1.68e-06 0)
(8.937e-05 1.563e-06 0)
(8.636e-05 1.449e-06 0)
(8.357e-05 1.339e-06 0)
(8.1e-05 1.233e-06 0)
(7.863e-05 1.133e-06 0)
(7.646e-05 1.038e-06 0)
(7.447e-05 9.489e-07 0)
(7.266e-05 8.653e-07 0)
(7.101e-05 7.874e-07 0)
(6.95e-05 7.15e-07 0)
(6.814e-05 6.48e-07 0)
(6.691e-05 5.862e-07 0)
(6.579e-05 5.294e-07 0)
(6.478e-05 4.772e-07 0)
(6.388e-05 4.295e-07 0)
(6.306e-05 3.859e-07 0)
(6.233e-05 3.462e-07 0)
(6.167e-05 3.1e-07 0)
(6.109e-05 2.773e-07 0)
(6.056e-05 2.476e-07 0)
(6.009e-05 2.208e-07 0)
(5.968e-05 1.966e-07 0)
(5.93e-05 1.749e-07 0)
(5.897e-05 1.554e-07 0)
(5.868e-05 1.381e-07 0)
(5.842e-05 1.227e-07 0)
(5.819e-05 1.092e-07 0)
(5.798e-05 9.752e-08 0)
(5.78e-05 8.759e-08 0)
(5.763e-05 7.942e-08 0)
(5.748e-05 7.311e-08 0)
(5.733e-05 6.882e-08 0)
(5.72e-05 6.687e-08 0)
(5.706e-05 6.786e-08 0)
(5.692e-05 7.29e-08 0)
(5.677e-05 8.411e-08 0)
(5.658e-05 1.05e-07 0)
(5.633e-05 1.395e-07 0)
(5.601e-05 1.812e-07 0)
(0.001209 0.0003128 0)
(0.001154 0.0003282 0)
(0.00101 0.000248 0)
(0.0008613 0.0001771 0)
(0.0007344 0.0001263 0)
(0.0006326 9.15e-05 0)
(0.0005524 6.796e-05 0)
(0.0004892 5.183e-05 0)
(0.000439 4.049e-05 0)
(0.0003985 3.229e-05 0)
(0.0003656 2.618e-05 0)
(0.0003384 2.151e-05 0)
(0.0003158 1.786e-05 0)
(0.0002969 1.495e-05 0)
(0.000281 1.258e-05 0)
(0.0002675 1.062e-05 0)
(0.0002561 8.978e-06 0)
(0.0002464 7.586e-06 0)
(0.0002382 6.389e-06 0)
(0.0002313 5.348e-06 0)
(0.0002256 4.433e-06 0)
(0.0002209 3.618e-06 0)
(0.000217 2.883e-06 0)
(0.000214 2.214e-06 0)
(0.0002118 1.595e-06 0)
(0.0002102 1.017e-06 0)
(0.0002094 4.684e-07 0)
(0.0002091 -5.815e-08 0)
(0.0002095 -5.701e-07 0)
(0.0002104 -1.074e-06 0)
(0.0002119 -1.575e-06 0)
(0.0002141 -2.078e-06 0)
(0.0002168 -2.589e-06 0)
(0.0002201 -3.109e-06 0)
(0.0002241 -3.643e-06 0)
(0.0002286 -4.193e-06 0)
(0.0002338 -4.76e-06 0)
(0.0002397 -5.345e-06 0)
(0.0002463 -5.949e-06 0)
(0.0002536 -6.571e-06 0)
(0.0002616 -7.207e-06 0)
(0.0002703 -7.855e-06 0)
(0.0002798 -8.51e-06 0)
(0.0002901 -9.164e-06 0)
(0.0003011 -9.81e-06 0)
(0.0003128 -1.044e-05 0)
(0.0003252 -1.103e-05 0)
(0.0003383 -1.158e-05 0)
(0.0003519 -1.207e-05 0)
(0.0003661 -1.248e-05 0)
(0.0003806 -1.279e-05 0)
(0.0003955 -1.299e-05 0)
(0.0004104 -1.304e-05 0)
(0.0004254 -1.294e-05 0)
(0.0004401 -1.267e-05 0)
(0.0004543 -1.221e-05 0)
(0.0004679 -1.155e-05 0)
(0.0004807 -1.069e-05 0)
(0.0004923 -9.636e-06 0)
(0.0005026 -8.393e-06 0)
(0.0005114 -6.981e-06 0)
(0.0005185 -5.428e-06 0)
(0.0005237 -3.766e-06 0)
(0.0005271 -2.034e-06 0)
(0.0005284 -2.725e-07 0)
(0.0005278 1.476e-06 0)
(0.0005251 3.173e-06 0)
(0.0005206 4.782e-06 0)
(0.0005143 6.275e-06 0)
(0.0005064 7.627e-06 0)
(0.000497 8.822e-06 0)
(0.0004863 9.85e-06 0)
(0.0004746 1.07e-05 0)
(0.0004619 1.139e-05 0)
(0.0004486 1.19e-05 0)
(0.0004347 1.225e-05 0)
(0.0004205 1.245e-05 0)
(0.0004062 1.251e-05 0)
(0.0003918 1.245e-05 0)
(0.0003775 1.227e-05 0)
(0.0003635 1.2e-05 0)
(0.0003499 1.165e-05 0)
(0.0003367 1.123e-05 0)
(0.0003239 1.076e-05 0)
(0.0003118 1.025e-05 0)
(0.0003002 9.712e-06 0)
(0.0002892 9.16e-06 0)
(0.0002789 8.602e-06 0)
(0.0002692 8.044e-06 0)
(0.0002602 7.494e-06 0)
(0.0002517 6.957e-06 0)
(0.0002439 6.438e-06 0)
(0.0002367 5.939e-06 0)
(0.00023 5.464e-06 0)
(0.0002239 5.013e-06 0)
(0.0002182 4.589e-06 0)
(0.0002131 4.19e-06 0)
(0.0002084 3.819e-06 0)
(0.0002041 3.472e-06 0)
(0.0002002 3.152e-06 0)
(0.0001967 2.855e-06 0)
(0.0001935 2.582e-06 0)
(0.0001906 2.331e-06 0)
(0.0001879 2.101e-06 0)
(0.0001856 1.891e-06 0)
(0.0001835 1.699e-06 0)
(0.0001815 1.524e-06 0)
(0.0001798 1.365e-06 0)
(0.0001783 1.221e-06 0)
(0.0001769 1.091e-06 0)
(0.0001757 9.736e-07 0)
(0.0001746 8.678e-07 0)
(0.0001736 7.729e-07 0)
(0.0001727 6.882e-07 0)
(0.000172 6.13e-07 0)
(0.0001713 5.468e-07 0)
(0.0001706 4.893e-07 0)
(0.0001701 4.403e-07 0)
(0.0001696 3.998e-07 0)
(0.0001691 3.68e-07 0)
(0.0001687 3.455e-07 0)
(0.0001683 3.334e-07 0)
(0.0001679 3.335e-07 0)
(0.0001675 3.488e-07 0)
(0.0001671 3.841e-07 0)
(0.0001666 4.461e-07 0)
(0.0001661 5.381e-07 0)
(0.0001656 6.341e-07 0)
(0.001226 0.0002775 0)
(0.001243 0.0004026 0)
(0.001194 0.0003664 0)
(0.001102 0.0002983 0)
(0.0009996 0.0002346 0)
(0.0009014 0.0001832 0)
(0.000814 0.0001439 0)
(0.0007388 0.0001143 0)
(0.000675 9.205e-05 0)
(0.0006211 7.505e-05 0)
(0.0005756 6.187e-05 0)
(0.0005371 5.149e-05 0)
(0.0005044 4.316e-05 0)
(0.0004766 3.639e-05 0)
(0.0004528 3.081e-05 0)
(0.0004325 2.614e-05 0)
(0.0004152 2.22e-05 0)
(0.0004004 1.882e-05 0)
(0.0003879 1.59e-05 0)
(0.0003772 1.334e-05 0)
(0.0003683 1.108e-05 0)
(0.000361 9.062e-06 0)
(0.000355 7.237e-06 0)
(0.0003503 5.567e-06 0)
(0.0003468 4.021e-06 0)
(0.0003443 2.573e-06 0)
(0.0003429 1.199e-06 0)
(0.0003425 -1.221e-07 0)
(0.0003431 -1.406e-06 0)
(0.0003446 -2.67e-06 0)
(0.000347 -3.926e-06 0)
(0.0003503 -5.187e-06 0)
(0.0003546 -6.463e-06 0)
(0.0003598 -7.763e-06 0)
(0.0003659 -9.094e-06 0)
(0.0003731 -1.046e-05 0)
(0.0003813 -1.187e-05 0)
(0.0003905 -1.332e-05 0)
(0.0004007 -1.482e-05 0)
(0.0004121 -1.635e-05 0)
(0.0004246 -1.792e-05 0)
(0.0004382 -1.952e-05 0)
(0.000453 -2.112e-05 0)
(0.0004689 -2.272e-05 0)
(0.000486 -2.43e-05 0)
(0.0005041 -2.583e-05 0)
(0.0005233 -2.727e-05 0)
(0.0005435 -2.86e-05 0)
(0.0005646 -2.978e-05 0)
(0.0005864 -3.076e-05 0)
(0.0006088 -3.149e-05 0)
(0.0006316 -3.194e-05 0)
(0.0006546 -3.205e-05 0)
(0.0006775 -3.177e-05 0)
(0.0007001 -3.107e-05 0)
(0.0007219 -2.992e-05 0)
(0.0007427 -2.829e-05 0)
(0.0007622 -2.617e-05 0)
(0.00078 -2.358e-05 0)
(0.0007958 -2.054e-05 0)
(0.0008093 -1.709e-05 0)
(0.0008201 -1.329e-05 0)
(0.0008282 -9.241e-06 0)
(0.0008333 -5.018e-06 0)
(0.0008354 -7.227e-07 0)
(0.0008345 3.544e-06 0)
(0.0008305 7.688e-06 0)
(0.0008237 1.162e-05 0)
(0.0008141 1.528e-05 0)
(0.0008021 1.86e-05 0)
(0.0007878 2.154e-05 0)
(0.0007715 2.408e-05 0)
(0.0007535 2.62e-05 0)
(0.0007342 2.79e-05 0)
(0.0007137 2.919e-05 0)
(0.0006924 3.009e-05 0)
(0.0006706 3.061e-05 0)
(0.0006485 3.08e-05 0)
(0.0006264 3.067e-05 0)
(0.0006044 3.027e-05 0)
(0.0005828 2.963e-05 0)
(0.0005617 2.88e-05 0)
(0.0005412 2.779e-05 0)
(0.0005214 2.666e-05 0)
(0.0005025 2.543e-05 0)
(0.0004845 2.413e-05 0)
(0.0004674 2.278e-05 0)
(0.0004513 2.142e-05 0)
(0.0004362 2.005e-05 0)
(0.000422 1.87e-05 0)
(0.0004088 1.739e-05 0)
(0.0003965 1.611e-05 0)
(0.0003851 1.488e-05 0)
(0.0003746 1.37e-05 0)
(0.000365 1.259e-05 0)
(0.0003561 1.154e-05 0)
(0.0003479 1.055e-05 0)
(0.0003405 9.623e-06 0)
(0.0003336 8.762e-06 0)
(0.0003274 7.962e-06 0)
(0.0003218 7.222e-06 0)
(0.0003167 6.54e-06 0)
(0.000312 5.912e-06 0)
(0.0003079 5.335e-06 0)
(0.0003041 4.808e-06 0)
(0.0003006 4.326e-06 0)
(0.0002976 3.886e-06 0)
(0.0002948 3.487e-06 0)
(0.0002923 3.124e-06 0)
(0.0002901 2.795e-06 0)
(0.0002881 2.498e-06 0)
(0.0002863 2.23e-06 0)
(0.0002847 1.99e-06 0)
(0.0002833 1.775e-06 0)
(0.000282 1.584e-06 0)
(0.0002808 1.415e-06 0)
(0.0002798 1.268e-06 0)
(0.0002789 1.142e-06 0)
(0.0002781 1.037e-06 0)
(0.0002773 9.538e-07 0)
(0.0002766 8.922e-07 0)
(0.0002759 8.543e-07 0)
(0.0002753 8.427e-07 0)
(0.0002747 8.608e-07 0)
(0.0002741 9.131e-07 0)
(0.0002734 1.002e-06 0)
(0.0002728 1.122e-06 0)
(0.0002721 1.227e-06 0)
(0.001224 0.0002275 0)
(0.00126 0.0004003 0)
(0.001258 0.0004194 0)
(0.001216 0.000379 0)
(0.001149 0.0003231 0)
(0.001073 0.0002688 0)
(0.0009969 0.0002218 0)
(0.0009254 0.0001831 0)
(0.0008607 0.0001518 0)
(0.0008033 0.0001266 0)
(0.0007528 0.0001062 0)
(0.0007089 8.962e-05 0)
(0.0006706 7.596e-05 0)
(0.0006374 6.462e-05 0)
(0.0006087 5.51e-05 0)
(0.0005838 4.703e-05 0)
(0.0005623 4.012e-05 0)
(0.0005438 3.416e-05 0)
(0.000528 2.895e-05 0)
(0.0005145 2.437e-05 0)
(0.0005032 2.029e-05 0)
(0.0004938 1.662e-05 0)
(0.0004861 1.33e-05 0)
(0.0004801 1.024e-05 0)
(0.0004756 7.406e-06 0)
(0.0004724 4.741e-06 0)
(0.0004707 2.207e-06 0)
(0.0004702 -2.313e-07 0)
(0.0004709 -2.605e-06 0)
(0.0004729 -4.941e-06 0)
(0.0004761 -7.263e-06 0)
(0.0004805 -9.593e-06 0)
(0.0004862 -1.195e-05 0)
(0.000493 -1.435e-05 0)
(0.0005012 -1.68e-05 0)
(0.0005106 -1.932e-05 0)
(0.0005213 -2.191e-05 0)
(0.0005334 -2.457e-05 0)
(0.0005469 -2.731e-05 0)
(0.0005617 -3.012e-05 0)
(0.0005781 -3.298e-05 0)
(0.0005959 -3.589e-05 0)
(0.0006152 -3.881e-05 0)
(0.0006359 -4.172e-05 0)
(0.0006582 -4.457e-05 0)
(0.0006818 -4.733e-05 0)
(0.0007067 -4.994e-05 0)
(0.000733 -5.234e-05 0)
(0.0007603 -5.444e-05 0)
(0.0007886 -5.619e-05 0)
(0.0008176 -5.749e-05 0)
(0.0008471 -5.826e-05 0)
(0.0008768 -5.842e-05 0)
(0.0009064 -5.789e-05 0)
(0.0009355 -5.659e-05 0)
(0.0009637 -5.446e-05 0)
(0.0009906 -5.148e-05 0)
(0.001016 -4.761e-05 0)
(0.001039 -4.289e-05 0)
(0.001059 -3.736e-05 0)
(0.001076 -3.109e-05 0)
(0.00109 -2.421e-05 0)
(0.001101 -1.685e-05 0)
(0.001108 -9.19e-06 0)
(0.00111 -1.397e-06 0)
(0.001109 6.348e-06 0)
(0.001104 1.387e-05 0)
(0.001095 2.103e-05 0)
(0.001083 2.768e-05 0)
(0.001068 3.373e-05 0)
(0.001049 3.911e-05 0)
(0.001028 4.375e-05 0)
(0.001005 4.764e-05 0)
(0.0009802 5.077e-05 0)
(0.0009538 5.316e-05 0)
(0.0009264 5.484e-05 0)
(0.0008982 5.584e-05 0)
(0.0008696 5.623e-05 0)
(0.0008409 5.604e-05 0)
(0.0008124 5.536e-05 0)
(0.0007844 5.425e-05 0)
(0.0007569 5.276e-05 0)
(0.0007303 5.097e-05 0)
(0.0007045 4.894e-05 0)
(0.0006799 4.672e-05 0)
(0.0006563 4.438e-05 0)
(0.000634 4.195e-05 0)
(0.0006129 3.947e-05 0)
(0.0005931 3.699e-05 0)
(0.0005744 3.454e-05 0)
(0.0005571 3.214e-05 0)
(0.0005409 2.98e-05 0)
(0.0005259 2.756e-05 0)
(0.000512 2.541e-05 0)
(0.0004992 2.336e-05 0)
(0.0004875 2.143e-05 0)
(0.0004766 1.962e-05 0)
(0.0004667 1.792e-05 0)
(0.0004577 1.633e-05 0)
(0.0004494 1.486e-05 0)
(0.0004419 1.349e-05 0)
(0.0004351 1.223e-05 0)
(0.0004288 1.107e-05 0)
(0.0004232 1e-05 0)
(0.0004181 9.021e-06 0)
(0.0004135 8.126e-06 0)
(0.0004094 7.31e-06 0)
(0.0004057 6.566e-06 0)
(0.0004023 5.89e-06 0)
(0.0003993 5.277e-06 0)
(0.0003966 4.722e-06 0)
(0.0003941 4.222e-06 0)
(0.000392 3.772e-06 0)
(0.00039 3.369e-06 0)
(0.0003883 3.01e-06 0)
(0.0003867 2.693e-06 0)
(0.0003853 2.416e-06 0)
(0.0003841 2.177e-06 0)
(0.0003829 1.976e-06 0)
(0.0003819 1.812e-06 0)
(0.0003809 1.688e-06 0)
(0.00038 1.603e-06 0)
(0.0003792 1.56e-06 0)
(0.0003784 1.562e-06 0)
(0.0003776 1.61e-06 0)
(0.0003769 1.7e-06 0)
(0.0003761 1.817e-06 0)
(0.0003754 1.909e-06 0)
(0.001219 0.0001846 0)
(0.001255 0.0003713 0)
(0.001275 0.0004302 0)
(0.001264 0.0004212 0)
(0.001229 0.0003831 0)
(0.001178 0.0003359 0)
(0.001119 0.0002892 0)
(0.001059 0.0002471 0)
(0.001002 0.0002105 0)
(0.0009474 0.0001795 0)
(0.0008979 0.0001533 0)
(0.0008533 0.0001312 0)
(0.0008135 0.0001125 0)
(0.0007783 9.658e-05 0)
(0.0007472 8.3e-05 0)
(0.0007199 7.131e-05 0)
(0.000696 6.117e-05 0)
(0.0006753 5.231e-05 0)
(0.0006574 4.451e-05 0)
(0.0006421 3.758e-05 0)
(0.0006291 3.137e-05 0)
(0.0006183 2.575e-05 0)
(0.0006095 2.063e-05 0)
(0.0006025 1.59e-05 0)
(0.0005973 1.149e-05 0)
(0.0005938 7.338e-06 0)
(0.0005918 3.377e-06 0)
(0.0005913 -4.421e-07 0)
(0.0005923 -4.165e-06 0)
(0.0005948 -7.833e-06 0)
(0.0005987 -1.148e-05 0)
(0.0006041 -1.514e-05 0)
(0.0006109 -1.884e-05 0)
(0.0006192 -2.261e-05 0)
(0.000629 -2.646e-05 0)
(0.0006403 -3.04e-05 0)
(0.0006532 -3.446e-05 0)
(0.0006677 -3.862e-05 0)
(0.0006839 -4.29e-05 0)
(0.0007017 -4.728e-05 0)
(0.0007213 -5.174e-05 0)
(0.0007426 -5.625e-05 0)
(0.0007657 -6.079e-05 0)
(0.0007905 -6.53e-05 0)
(0.000817 -6.972e-05 0)
(0.0008452 -7.399e-05 0)
(0.0008749 -7.802e-05 0)
(0.0009062 -8.17e-05 0)
(0.0009387 -8.495e-05 0)
(0.0009724 -8.762e-05 0)
(0.001007 -8.96e-05 0)
(0.001042 -9.076e-05 0)
(0.001077 -9.097e-05 0)
(0.001112 -9.011e-05 0)
(0.001147 -8.805e-05 0)
(0.001181 -8.473e-05 0)
(0.001213 -8.007e-05 0)
(0.001242 -7.405e-05 0)
(0.00127 -6.671e-05 0)
(0.001294 -5.811e-05 0)
(0.001315 -4.838e-05 0)
(0.001331 -3.769e-05 0)
(0.001344 -2.627e-05 0)
(0.001352 -1.437e-05 0)
(0.001355 -2.275e-06 0)
(0.001354 9.752e-06 0)
(0.001348 2.144e-05 0)
(0.001337 3.256e-05 0)
(0.001323 4.291e-05 0)
(0.001305 5.233e-05 0)
(0.001283 6.07e-05 0)
(0.001258 6.795e-05 0)
(0.00123 7.403e-05 0)
(0.001201 7.895e-05 0)
(0.00117 8.271e-05 0)
(0.001137 8.537e-05 0)
(0.001103 8.699e-05 0)
(0.001069 8.764e-05 0)
(0.001035 8.742e-05 0)
(0.001001 8.641e-05 0)
(0.000968 8.473e-05 0)
(0.0009352 8.247e-05 0)
(0.0009034 7.974e-05 0)
(0.0008727 7.662e-05 0)
(0.0008432 7.321e-05 0)
(0.000815 6.958e-05 0)
(0.0007883 6.583e-05 0)
(0.000763 6.2e-05 0)
(0.0007391 5.815e-05 0)
(0.0007168 5.434e-05 0)
(0.0006959 5.061e-05 0)
(0.0006764 4.697e-05 0)
(0.0006583 4.347e-05 0)
(0.0006416 4.012e-05 0)
(0.0006261 3.693e-05 0)
(0.0006118 3.391e-05 0)
(0.0005987 3.106e-05 0)
(0.0005867 2.84e-05 0)
(0.0005757 2.591e-05 0)
(0.0005657 2.359e-05 0)
(0.0005565 2.144e-05 0)
(0.0005482 1.946e-05 0)
(0.0005406 1.763e-05 0)
(0.0005337 1.594e-05 0)
(0.0005275 1.44e-05 0)
(0.0005218 1.298e-05 0)
(0.0005168 1.169e-05 0)
(0.0005122 1.051e-05 0)
(0.000508 9.44e-06 0)
(0.0005043 8.467e-06 0)
(0.000501 7.585e-06 0)
(0.000498 6.79e-06 0)
(0.0004953 6.073e-06 0)
(0.0004929 5.43e-06 0)
(0.0004907 4.857e-06 0)
(0.0004887 4.349e-06 0)
(0.000487 3.903e-06 0)
(0.0004854 3.517e-06 0)
(0.000484 3.188e-06 0)
(0.0004827 2.917e-06 0)
(0.0004816 2.703e-06 0)
(0.0004805 2.547e-06 0)
(0.0004795 2.45e-06 0)
(0.0004786 2.412e-06 0)
(0.0004777 2.43e-06 0)
(0.0004768 2.498e-06 0)
(0.000476 2.592e-06 0)
(0.0004752 2.665e-06 0)
(0.001214 0.000152 0)
(0.001246 0.0003355 0)
(0.001274 0.0004184 0)
(0.001282 0.0004357 0)
(0.001268 0.0004173 0)
(0.001239 0.0003822 0)
(0.001199 0.0003413 0)
(0.001153 0.0003005 0)
(0.001106 0.0002626 0)
(0.001059 0.0002285 0)
(0.001014 0.0001984 0)
(0.0009723 0.0001722 0)
(0.0009341 0.0001494 0)
(0.0008994 0.0001296 0)
(0.0008682 0.0001123 0)
(0.0008404 9.712e-05 0)
(0.0008159 8.379e-05 0)
(0.0007943 7.2e-05 0)
(0.0007755 6.151e-05 0)
(0.0007593 5.21e-05 0)
(0.0007455 4.361e-05 0)
(0.0007339 3.587e-05 0)
(0.0007245 2.876e-05 0)
(0.000717 2.217e-05 0)
(0.0007115 1.6e-05 0)
(0.0007077 1.016e-05 0)
(0.0007056 4.578e-06 0)
(0.0007053 -8.214e-07 0)
(0.0007066 -6.095e-06 0)
(0.0007095 -1.13e-05 0)
(0.0007141 -1.648e-05 0)
(0.0007202 -2.168e-05 0)
(0.0007281 -2.694e-05 0)
(0.0007375 -3.228e-05 0)
(0.0007487 -3.775e-05 0)
(0.0007616 -4.335e-05 0)
(0.0007763 -4.91e-05 0)
(0.0007928 -5.5e-05 0)
(0.0008111 -6.105e-05 0)
(0.0008314 -6.724e-05 0)
(0.0008536 -7.354e-05 0)
(0.0008777 -7.991e-05 0)
(0.0009039 -8.631e-05 0)
(0.0009319 -9.266e-05 0)
(0.0009619 -9.889e-05 0)
(0.0009938 -0.0001049 0)
(0.001027 -0.0001105 0)
(0.001063 -0.0001157 0)
(0.0011 -0.0001203 0)
(0.001138 -0.000124 0)
(0.001177 -0.0001268 0)
(0.001216 -0.0001284 0)
(0.001256 -0.0001286 0)
(0.001296 -0.0001274 0)
(0.001335 -0.0001245 0)
(0.001373 -0.0001198 0)
(0.001409 -0.0001132 0)
(0.001443 -0.0001047 0)
(0.001474 -9.434e-05 0)
(0.001502 -8.22e-05 0)
(0.001525 -6.845e-05 0)
(0.001544 -5.336e-05 0)
(0.001559 -3.722e-05 0)
(0.001568 -2.042e-05 0)
(0.001571 -3.322e-06 0)
(0.00157 1.367e-05 0)
(0.001563 3.019e-05 0)
(0.001551 4.59e-05 0)
(0.001535 6.052e-05 0)
(0.001514 7.383e-05 0)
(0.001489 8.567e-05 0)
(0.001461 9.593e-05 0)
(0.00143 0.0001045 0)
(0.001397 0.0001115 0)
(0.001361 0.0001169 0)
(0.001325 0.0001207 0)
(0.001287 0.000123 0)
(0.001248 0.000124 0)
(0.00121 0.0001238 0)
(0.001171 0.0001224 0)
(0.001133 0.0001201 0)
(0.001096 0.0001169 0)
(0.00106 0.0001131 0)
(0.001025 0.0001088 0)
(0.000992 0.000104 0)
(0.0009601 9.89e-05 0)
(0.0009297 9.362e-05 0)
(0.000901 8.824e-05 0)
(0.0008739 8.283e-05 0)
(0.0008485 7.746e-05 0)
(0.0008247 7.218e-05 0)
(0.0008025 6.705e-05 0)
(0.0007819 6.21e-05 0)
(0.0007627 5.736e-05 0)
(0.0007451 5.284e-05 0)
(0.0007288 4.855e-05 0)
(0.0007138 4.452e-05 0)
(0.0007 4.073e-05 0)
(0.0006874 3.719e-05 0)
(0.0006758 3.39e-05 0)
(0.0006653 3.084e-05 0)
(0.0006557 2.8e-05 0)
(0.000647 2.539e-05 0)
(0.0006391 2.299e-05 0)
(0.0006319 2.078e-05 0)
(0.0006253 1.875e-05 0)
(0.0006194 1.69e-05 0)
(0.0006141 1.521e-05 0)
(0.0006093 1.367e-05 0)
(0.000605 1.228e-05 0)
(0.0006011 1.101e-05 0)
(0.0005976 9.865e-06 0)
(0.0005945 8.832e-06 0)
(0.0005917 7.905e-06 0)
(0.0005891 7.076e-06 0)
(0.0005869 6.34e-06 0)
(0.0005848 5.691e-06 0)
(0.000583 5.126e-06 0)
(0.0005813 4.641e-06 0)
(0.0005799 4.235e-06 0)
(0.0005785 3.907e-06 0)
(0.0005773 3.655e-06 0)
(0.0005761 3.48e-06 0)
(0.0005751 3.377e-06 0)
(0.0005741 3.344e-06 0)
(0.0005732 3.369e-06 0)
(0.0005723 3.428e-06 0)
(0.0005714 3.478e-06 0)
(0.00121 0.0001279 0)
(0.001237 0.0003009 0)
(0.001266 0.0003959 0)
(0.001284 0.0004325 0)
(0.001286 0.0004319 0)
(0.001273 0.0004101 0)
(0.001249 0.0003778 0)
(0.001217 0.0003415 0)
(0.001181 0.0003052 0)
(0.001143 0.0002706 0)
(0.001105 0.0002388 0)
(0.001069 0.0002101 0)
(0.001034 0.0001844 0)
(0.001002 0.0001614 0)
(0.0009725 0.000141 0)
(0.0009459 0.0001228 0)
(0.0009219 0.0001066 0)
(0.0009007 9.205e-05 0)
(0.000882 7.896e-05 0)
(0.0008658 6.71e-05 0)
(0.0008519 5.631e-05 0)
(0.0008402 4.64e-05 0)
(0.0008306 3.724e-05 0)
(0.0008231 2.87e-05 0)
(0.0008175 2.065e-05 0)
(0.0008137 1.301e-05 0)
(0.0008118 5.675e-06 0)
(0.0008117 -1.437e-06 0)
(0.0008133 -8.4e-06 0)
(0.0008167 -1.528e-05 0)
(0.0008218 -2.214e-05 0)
(0.0008286 -2.904e-05 0)
(0.0008373 -3.601e-05 0)
(0.0008477 -4.311e-05 0)
(0.0008599 -5.035e-05 0)
(0.0008741 -5.778e-05 0)
(0.0008901 -6.54e-05 0)
(0.0009081 -7.322e-05 0)
(0.0009282 -8.123e-05 0)
(0.0009503 -8.942e-05 0)
(0.0009745 -9.775e-05 0)
(0.001001 -0.0001062 0)
(0.001029 -0.0001146 0)
(0.00106 -0.000123 0)
(0.001093 -0.0001312 0)
(0.001127 -0.0001392 0)
(0.001164 -0.0001466 0)
(0.001203 -0.0001534 0)
(0.001243 -0.0001594 0)
(0.001284 -0.0001644 0)
(0.001327 -0.000168 0)
(0.00137 -0.0001702 0)
(0.001414 -0.0001705 0)
(0.001458 -0.0001689 0)
(0.0015 -0.0001651 0)
(0.001542 -0.0001589 0)
(0.001582 -0.0001502 0)
(0.001619 -0.0001389 0)
(0.001653 -0.0001252 0)
(0.001684 -0.0001091 0)
(0.00171 -9.091e-05 0)
(0.001731 -7.089e-05 0)
(0.001746 -4.949e-05 0)
(0.001756 -2.718e-05 0)
(0.00176 -4.495e-06 0)
(0.001759 1.805e-05 0)
(0.001751 3.995e-05 0)
(0.001738 6.078e-05 0)
(0.00172 8.015e-05 0)
(0.001697 9.779e-05 0)
(0.00167 0.0001135 0)
(0.001639 0.0001271 0)
(0.001605 0.0001385 0)
(0.001569 0.0001478 0)
(0.00153 0.0001549 0)
(0.001489 0.00016 0)
(0.001448 0.0001631 0)
(0.001406 0.0001644 0)
(0.001364 0.0001641 0)
(0.001322 0.0001624 0)
(0.00128 0.0001593 0)
(0.00124 0.0001552 0)
(0.001201 0.0001502 0)
(0.001163 0.0001445 0)
(0.001126 0.0001382 0)
(0.001091 0.0001315 0)
(0.001058 0.0001246 0)
(0.001027 0.0001175 0)
(0.0009969 0.0001103 0)
(0.0009691 0.0001032 0)
(0.000943 9.625e-05 0)
(0.0009187 8.947e-05 0)
(0.0008961 8.291e-05 0)
(0.0008752 7.663e-05 0)
(0.0008558 7.063e-05 0)
(0.0008379 6.496e-05 0)
(0.0008214 5.96e-05 0)
(0.0008062 5.457e-05 0)
(0.0007923 4.986e-05 0)
(0.0007796 4.548e-05 0)
(0.000768 4.14e-05 0)
(0.0007574 3.763e-05 0)
(0.0007478 3.415e-05 0)
(0.000739 3.094e-05 0)
(0.000731 2.798e-05 0)
(0.0007238 2.528e-05 0)
(0.0007173 2.28e-05 0)
(0.0007114 2.054e-05 0)
(0.000706 1.848e-05 0)
(0.0007012 1.661e-05 0)
(0.0006969 1.491e-05 0)
(0.000693 1.337e-05 0)
(0.0006895 1.198e-05 0)
(0.0006863 1.073e-05 0)
(0.0006835 9.609e-06 0)
(0.000681 8.612e-06 0)
(0.0006787 7.731e-06 0)
(0.0006766 6.96e-06 0)
(0.0006748 6.294e-06 0)
(0.0006731 5.73e-06 0)
(0.0006716 5.264e-06 0)
(0.0006703 4.894e-06 0)
(0.000669 4.618e-06 0)
(0.0006679 4.431e-06 0)
(0.0006668 4.328e-06 0)
(0.0006659 4.293e-06 0)
(0.0006649 4.307e-06 0)
(0.0006641 4.332e-06 0)
(0.001208 0.0001098 0)
(0.00123 0.0002699 0)
(0.001258 0.0003695 0)
(0.00128 0.0004189 0)
(0.001292 0.0004326 0)
(0.001291 0.0004233 0)
(0.001279 0.0004003 0)
(0.00126 0.0003704 0)
(0.001234 0.0003376 0)
(0.001206 0.0003046 0)
(0.001176 0.0002728 0)
(0.001146 0.000243 0)
(0.001116 0.0002156 0)
(0.001088 0.0001905 0)
(0.001061 0.0001678 0)
(0.001037 0.0001471 0)
(0.001015 0.0001284 0)
(0.0009949 0.0001114 0)
(0.0009771 9.597e-05 0)
(0.0009616 8.183e-05 0)
(0.0009483 6.884e-05 0)
(0.000937 5.682e-05 0)
(0.0009278 4.562e-05 0)
(0.0009205 3.512e-05 0)
(0.0009151 2.518e-05 0)
(0.0009117 1.569e-05 0)
(0.00091 6.546e-06 0)
(0.0009102 -2.349e-06 0)
(0.0009122 -1.108e-05 0)
(0.0009159 -1.973e-05 0)
(0.0009215 -2.837e-05 0)
(0.0009289 -3.705e-05 0)
(0.0009381 -4.585e-05 0)
(0.0009492 -5.48e-05 0)
(0.0009623 -6.395e-05 0)
(0.0009773 -7.332e-05 0)
(0.0009943 -8.294e-05 0)
(0.001013 -9.281e-05 0)
(0.001035 -0.0001029 0)
(0.001058 -0.0001132 0)
(0.001084 -0.0001238 0)
(0.001112 -0.0001344 0)
(0.001142 -0.000145 0)
(0.001174 -0.0001556 0)
(0.001209 -0.000166 0)
(0.001246 -0.000176 0)
(0.001284 -0.0001854 0)
(0.001325 -0.000194 0)
(0.001368 -0.0002016 0)
(0.001412 -0.0002079 0)
(0.001458 -0.0002126 0)
(0.001504 -0.0002153 0)
(0.00155 -0.0002158 0)
(0.001597 -0.0002138 0)
(0.001643 -0.0002091 0)
(0.001688 -0.0002013 0)
(0.001731 -0.0001903 0)
(0.001771 -0.0001762 0)
(0.001807 -0.0001589 0)
(0.00184 -0.0001385 0)
(0.001868 -0.0001154 0)
(0.001891 -9.002e-05 0)
(0.001908 -6.286e-05 0)
(0.001918 -3.454e-05 0)
(0.001923 -5.739e-06 0)
(0.001921 2.286e-05 0)
(0.001913 5.064e-05 0)
(0.001899 7.702e-05 0)
(0.001879 0.0001015 0)
(0.001855 0.0001238 0)
(0.001826 0.0001437 0)
(0.001793 0.0001608 0)
(0.001756 0.0001753 0)
(0.001717 0.000187 0)
(0.001675 0.000196 0)
(0.001632 0.0002024 0)
(0.001588 0.0002063 0)
(0.001543 0.000208 0)
(0.001498 0.0002077 0)
(0.001453 0.0002055 0)
(0.001409 0.0002017 0)
(0.001366 0.0001965 0)
(0.001324 0.0001902 0)
(0.001284 0.000183 0)
(0.001245 0.0001751 0)
(0.001208 0.0001666 0)
(0.001173 0.0001579 0)
(0.001139 0.0001489 0)
(0.001108 0.0001399 0)
(0.001078 0.000131 0)
(0.001051 0.0001222 0)
(0.001025 0.0001136 0)
(0.001001 0.0001054 0)
(0.0009785 9.743e-05 0)
(0.0009579 8.986e-05 0)
(0.0009388 8.268e-05 0)
(0.0009213 7.591e-05 0)
(0.0009051 6.954e-05 0)
(0.0008903 6.359e-05 0)
(0.0008768 5.803e-05 0)
(0.0008644 5.287e-05 0)
(0.000853 4.808e-05 0)
(0.0008427 4.366e-05 0)
(0.0008333 3.958e-05 0)
(0.0008248 3.583e-05 0)
(0.0008171 3.239e-05 0)
(0.0008101 2.924e-05 0)
(0.0008037 2.636e-05 0)
(0.000798 2.373e-05 0)
(0.0007928 2.134e-05 0)
(0.0007881 1.917e-05 0)
(0.0007839 1.72e-05 0)
(0.0007802 1.543e-05 0)
(0.0007768 1.383e-05 0)
(0.0007737 1.239e-05 0)
(0.000771 1.111e-05 0)
(0.0007685 9.972e-06 0)
(0.0007663 8.972e-06 0)
(0.0007643 8.103e-06 0)
(0.0007625 7.36e-06 0)
(0.0007609 6.737e-06 0)
(0.0007595 6.23e-06 0)
(0.0007582 5.835e-06 0)
(0.000757 5.547e-06 0)
(0.0007559 5.357e-06 0)
(0.0007549 5.253e-06 0)
(0.0007539 5.214e-06 0)
(0.000753 5.211e-06 0)
(0.001206 9.578e-05 0)
(0.001225 0.0002429 0)
(0.001251 0.0003426 0)
(0.001275 0.0003997 0)
(0.001291 0.0004241 0)
(0.001299 0.0004254 0)
(0.001297 0.0004115 0)
(0.001287 0.0003883 0)
(0.001272 0.0003602 0)
(0.001252 0.00033 0)
(0.00123 0.0002996 0)
(0.001206 0.0002701 0)
(0.001182 0.000242 0)
(0.001159 0.0002158 0)
(0.001136 0.0001915 0)
(0.001115 0.000169 0)
(0.001095 0.0001484 0)
(0.001077 0.0001294 0)
(0.001061 0.0001118 0)
(0.001047 9.567e-05 0)
(0.001035 8.066e-05 0)
(0.001024 6.667e-05 0)
(0.001016 5.354e-05 0)
(0.001009 4.115e-05 0)
(0.001004 2.935e-05 0)
(0.001001 1.804e-05 0)
(0.001 7.086e-06 0)
(0.001001 -3.604e-06 0)
(0.001003 -1.413e-05 0)
(0.001007 -2.458e-05 0)
(0.001013 -3.503e-05 0)
(0.001021 -4.556e-05 0)
(0.00103 -5.623e-05 0)
(0.001042 -6.71e-05 0)
(0.001055 -7.821e-05 0)
(0.001071 -8.96e-05 0)
(0.001089 -0.0001013 0)
(0.001108 -0.0001133 0)
(0.00113 -0.0001256 0)
(0.001154 -0.0001382 0)
(0.001181 -0.0001509 0)
(0.00121 -0.0001639 0)
(0.001241 -0.0001768 0)
(0.001274 -0.0001897 0)
(0.00131 -0.0002024 0)
(0.001348 -0.0002146 0)
(0.001389 -0.0002261 0)
(0.001431 -0.0002366 0)
(0.001475 -0.000246 0)
(0.001521 -0.0002537 0)
(0.001569 -0.0002595 0)
(0.001617 -0.000263 0)
(0.001666 -0.0002637 0)
(0.001715 -0.0002615 0)
(0.001763 -0.0002558 0)
(0.00181 -0.0002464 0)
(0.001856 -0.0002332 0)
(0.001898 -0.000216 0)
(0.001937 -0.0001949 0)
(0.001972 -0.00017 0)
(0.002002 -0.0001417 0)
(0.002026 -0.0001105 0)
(0.002044 -7.716e-05 0)
(0.002055 -4.237e-05 0)
(0.00206 -6.993e-06 0)
(0.002058 2.812e-05 0)
(0.002049 6.217e-05 0)
(0.002034 9.447e-05 0)
(0.002013 0.0001245 0)
(0.001987 0.0001517 0)
(0.001956 0.0001759 0)
(0.001921 0.0001968 0)
(0.001883 0.0002144 0)
(0.001841 0.0002286 0)
(0.001798 0.0002395 0)
(0.001752 0.0002473 0)
(0.001706 0.0002521 0)
(0.001659 0.0002541 0)
(0.001612 0.0002536 0)
(0.001565 0.0002509 0)
(0.00152 0.0002462 0)
(0.001475 0.0002399 0)
(0.001431 0.0002322 0)
(0.001389 0.0002234 0)
(0.001349 0.0002138 0)
(0.00131 0.0002035 0)
(0.001274 0.0001928 0)
(0.001239 0.0001819 0)
(0.001207 0.000171 0)
(0.001176 0.0001601 0)
(0.001147 0.0001494 0)
(0.001121 0.000139 0)
(0.001096 0.0001289 0)
(0.001073 0.0001193 0)
(0.001051 0.00011 0)
(0.001031 0.0001013 0)
(0.001013 9.304e-05 0)
(0.0009965 8.528e-05 0)
(0.0009812 7.801e-05 0)
(0.0009671 7.124e-05 0)
(0.0009542 6.494e-05 0)
(0.0009424 5.909e-05 0)
(0.0009317 5.369e-05 0)
(0.000922 4.87e-05 0)
(0.0009131 4.412e-05 0)
(0.000905 3.991e-05 0)
(0.0008977 3.605e-05 0)
(0.0008911 3.252e-05 0)
(0.0008851 2.93e-05 0)
(0.0008797 2.636e-05 0)
(0.0008748 2.37e-05 0)
(0.0008704 2.128e-05 0)
(0.0008664 1.909e-05 0)
(0.0008629 1.712e-05 0)
(0.0008597 1.535e-05 0)
(0.0008568 1.376e-05 0)
(0.0008542 1.235e-05 0)
(0.0008519 1.111e-05 0)
(0.0008499 1.002e-05 0)
(0.000848 9.083e-06 0)
(0.0008463 8.288e-06 0)
(0.0008448 7.629e-06 0)
(0.0008435 7.102e-06 0)
(0.0008422 6.699e-06 0)
(0.0008411 6.412e-06 0)
(0.0008401 6.229e-06 0)
(0.0008392 6.132e-06 0)
(0.0008383 6.099e-06 0)
(0.001205 8.463e-05 0)
(0.001221 0.0002195 0)
(0.001244 0.0003165 0)
(0.001268 0.0003778 0)
(0.001288 0.0004098 0)
(0.001301 0.0004196 0)
(0.001306 0.0004136 0)
(0.001305 0.0003971 0)
(0.001298 0.0003741 0)
(0.001286 0.0003475 0)
(0.001271 0.0003194 0)
(0.001254 0.000291 0)
(0.001236 0.0002633 0)
(0.001217 0.0002367 0)
(0.001199 0.0002115 0)
(0.001181 0.0001879 0)
(0.001164 0.0001658 0)
(0.001149 0.0001452 0)
(0.001135 0.000126 0)
(0.001123 0.0001081 0)
(0.001112 9.135e-05 0)
(0.001103 7.558e-05 0)
(0.001095 6.069e-05 0)
(0.001089 4.653e-05 0)
(0.001085 3.298e-05 0)
(0.001083 1.991e-05 0)
(0.001082 7.216e-06 0)
(0.001083 -5.224e-06 0)
(0.001086 -1.751e-05 0)
(0.00109 -2.974e-05 0)
(0.001096 -4.2e-05 0)
(0.001104 -5.437e-05 0)
(0.001114 -6.692e-05 0)
(0.001126 -7.972e-05 0)
(0.001139 -9.282e-05 0)
(0.001155 -0.0001063 0)
(0.001173 -0.00012 0)
(0.001193 -0.0001342 0)
(0.001215 -0.0001487 0)
(0.001239 -0.0001636 0)
(0.001266 -0.0001787 0)
(0.001295 -0.000194 0)
(0.001327 -0.0002093 0)
(0.001361 -0.0002246 0)
(0.001397 -0.0002396 0)
(0.001436 -0.0002541 0)
(0.001477 -0.0002678 0)
(0.00152 -0.0002805 0)
(0.001565 -0.0002917 0)
(0.001612 -0.000301 0)
(0.001661 -0.0003081 0)
(0.00171 -0.0003124 0)
(0.001761 -0.0003136 0)
(0.001811 -0.0003111 0)
(0.001861 -0.0003046 0)
(0.00191 -0.0002937 0)
(0.001957 -0.0002782 0)
(0.002002 -0.0002579 0)
(0.002043 -0.0002328 0)
(0.002079 -0.0002032 0)
(0.00211 -0.0001695 0)
(0.002136 -0.0001322 0)
(0.002155 -9.224e-05 0)
(0.002166 -5.055e-05 0)
(0.002171 -8.18e-06 0)
(0.002169 3.383e-05 0)
(0.002159 7.451e-05 0)
(0.002144 0.000113 0)
(0.002122 0.0001487 0)
(0.002094 0.0001811 0)
(0.002062 0.0002097 0)
(0.002025 0.0002345 0)
(0.001985 0.0002552 0)
(0.001942 0.000272 0)
(0.001897 0.0002848 0)
(0.001851 0.0002939 0)
(0.001803 0.0002995 0)
(0.001755 0.0003018 0)
(0.001706 0.0003011 0)
(0.001659 0.0002978 0)
(0.001611 0.0002922 0)
(0.001566 0.0002847 0)
(0.001521 0.0002755 0)