/*--------------------------------*- C++ -*----------------------------------*\
  =========                 |
  \\      /  F ield         | OpenFOAM: The Open Source CFD Toolbox
   \\    /   O peration     | Website:  https://openfoam.org
    \\  /    A nd           | Version:  7
     \\/     M anipulation  |
\*---------------------------------------------------------------------------*/
FoamFile
{
    version     2.0;
    format      ascii;
    class       volScalarField;
    location    "2519.99947344325346";
    object      Y.K;
}
// * * * * * * * * * * * * * * * * * * * * * * * * * * * * * * * * * * * * * //

dimensions      [0 0 0 0 0 0 0];

internalField   nonuniform List<scalar> 
4096
(
8.249e-74
-4.239e-75
1.049e-72
-1.658e-73
-3.597e-74
1.478e-73
-7.237e-74
-2.401e-74
-2.384e-74
2.484e-73
-3.458e-72
5.994e-71
-8.617e-70
1.276e-68
-1.708e-67
2.203e-66
-2.665e-65
3.117e-64
-3.463e-63
3.75e-62
-3.854e-61
3.878e-60
-3.823e-59
3.645e-58
-3.32e-57
2.952e-56
-2.518e-55
2.085e-54
-1.595e-53
1.21e-52
-9.052e-52
6.671e-51
-4.771e-50
3.341e-49
-2.259e-48
1.474e-47
-9.069e-47
5.149e-46
-2.662e-45
1.128e-44
-3.691e-44
-2.633e-44
1.661e-42
-1.658e-41
1.179e-40
-6.818e-40
2.982e-39
-7.844e-39
-1.845e-38
5.013e-37
-4.5e-36
2.994e-35
-1.699e-34
8.564e-34
-3.639e-33
1.444e-32
-4.113e-32
1.193e-31
2.058e-32
-1.16e-31
9.4e-30
7.171e-31
5.959e-29
5.218e-28
1.258e-28
6.258e-27
2.202e-26
3.334e-26
3.085e-25
9.72e-25
2.046e-24
1.707e-23
4.391e-23
8.619e-23
1.982e-22
1.45e-21
6.449e-21
1.023e-19
1.616e-18
4.199e-18
8.071e-18
1.381e-17
2.221e-17
3.438e-17
5.175e-17
7.62e-17
1.102e-16
1.567e-16
2.199e-16
3.045e-16
4.167e-16
5.641e-16
7.559e-16
1.003e-15
1.32e-15
1.723e-15
2.232e-15
2.87e-15
3.666e-15
4.652e-15
5.869e-15
7.362e-15
9.186e-15
1.14e-14
1.409e-14
1.733e-14
2.123e-14
2.59e-14
3.147e-14
3.81e-14
4.596e-14
5.527e-14
6.624e-14
7.915e-14
9.429e-14
1.12e-13
1.327e-13
1.568e-13
1.848e-13
2.172e-13
2.548e-13
2.98e-13
3.475e-13
4.039e-13
4.67e-13
5.356e-13
6.045e-13
6.596e-13
1.939e-72
-1.101e-71
1.249e-71
-2.117e-72
-7.952e-72
6.294e-72
-6.13e-73
-1.323e-72
-1.616e-72
1.392e-71
-2.03e-70
3.284e-69
-4.972e-68
7.096e-67
-9.564e-66
1.22e-64
-1.481e-63
1.715e-62
-1.906e-61
2.042e-60
-2.115e-59
2.122e-58
-2.067e-57
1.954e-56
-1.789e-55
1.584e-54
-1.349e-53
1.103e-52
-8.434e-52
6.396e-51
-4.787e-50
3.522e-49
-2.534e-48
1.775e-47
-1.201e-46
7.792e-46
-4.79e-45
2.742e-44
-1.426e-43
6.14e-43
-2.183e-42
2.122e-43
7.672e-41
-8.034e-40
5.82e-39
-3.438e-38
1.548e-37
-4.579e-37
-4.604e-37
2.144e-35
-2.016e-34
1.389e-33
-7.988e-33
4.012e-32
-1.707e-31
6.975e-31
-1.987e-30
6.224e-30
4.574e-31
9.672e-30
4.907e-28
1.751e-28
3.647e-27
2.692e-26
1.797e-26
3.282e-25
1.142e-24
2.065e-24
1.558e-23
4.871e-23
1.077e-22
7.644e-22
2.004e-21
3.932e-21
8.475e-21
5.295e-20
1.661e-19
1.18e-18
3.118e-18
6.174e-18
1.08e-17
1.763e-17
2.756e-17
4.178e-17
6.184e-17
8.979e-17
1.282e-16
1.805e-16
2.508e-16
3.443e-16
4.676e-16
6.286e-16
8.371e-16
1.105e-15
1.447e-15
1.879e-15
2.424e-15
3.106e-15
3.953e-15
5.002e-15
6.293e-15
7.875e-15
9.804e-15
1.215e-14
1.498e-14
1.84e-14
2.25e-14
2.742e-14
3.327e-14
4.024e-14
4.85e-14
5.826e-14
6.977e-14
8.329e-14
9.916e-14
1.177e-13
1.394e-13
1.646e-13
1.939e-13
2.278e-13
2.67e-13
3.122e-13
3.642e-13
4.236e-13
4.909e-13
5.661e-13
6.47e-13
7.253e-13
-4.49e-71
3.119e-70
-7.696e-70
9.904e-70
-6.433e-70
1.041e-70
1.129e-70
-4.016e-71
-1.015e-70
7.597e-70
-1.084e-68
1.76e-67
-2.665e-66
3.799e-65
-5.103e-64
6.481e-63
-7.816e-62
8.997e-61
-9.936e-60
1.057e-58
-1.088e-57
1.086e-56
-1.052e-55
9.888e-55
-9.012e-54
7.943e-53
-6.742e-52
5.487e-51
-4.2e-50
3.188e-49
-2.387e-48
1.757e-47
-1.265e-46
8.87e-46
-6.013e-45
3.911e-44
-2.415e-43
1.394e-42
-7.347e-42
3.275e-41
-1.292e-40
1.3e-40
3.005e-39
-3.528e-38
2.665e-37
-1.641e-36
7.785e-36
-2.708e-35
1.854e-35
7.271e-34
-7.868e-33
5.714e-32
-3.366e-31
1.733e-30
-7.455e-30
3.216e-29
-9.165e-29
3.197e-28
-1.699e-29
1.439e-27
2.547e-26
1.851e-26
2.273e-25
1.368e-24
1.679e-24
1.764e-23
5.668e-23
1.27e-22
7.815e-22
2.359e-21
5.438e-21
3.149e-20
8.16e-20
1.599e-19
3.21e-19
1.513e-18
3.574e-18
6.635e-18
1.119e-17
1.787e-17
2.751e-17
4.119e-17
6.03e-17
8.665e-17
1.225e-16
1.708e-16
2.351e-16
3.2e-16
4.31e-16
5.751e-16
7.607e-16
9.98e-16
1.3e-15
1.681e-15
2.159e-15
2.757e-15
3.499e-15
4.418e-15
5.549e-15
6.936e-15
8.629e-15
1.069e-14
1.318e-14
1.619e-14
1.981e-14
2.415e-14
2.934e-14
3.552e-14
4.287e-14
5.157e-14
6.184e-14
7.395e-14
8.818e-14
1.049e-13
1.244e-13
1.471e-13
1.736e-13
2.043e-13
2.4e-13
2.812e-13
3.287e-13
3.834e-13
4.463e-13
5.182e-13
6.002e-13
6.933e-13
7.985e-13
9.195e-13
7.435e-70
-5.899e-69
2.04e-68
-4.219e-68
5.487e-68
-4.485e-68
2.101e-68
-4.144e-69
-5.201e-69
3.996e-68
-5.495e-67
8.919e-66
-1.348e-64
1.912e-63
-2.551e-62
3.212e-61
-3.837e-60
4.373e-59
-4.782e-58
5.041e-57
-5.141e-56
5.087e-55
-4.89e-54
4.565e-53
-4.135e-52
3.625e-51
-3.065e-50
2.485e-49
-1.905e-48
1.448e-47
-1.086e-46
8.009e-46
-5.779e-45
4.061e-44
-2.763e-43
1.807e-42
-1.125e-41
6.581e-41
-3.544e-40
1.659e-39
-6.945e-39
1.412e-38
8.3e-38
-1.309e-36
1.072e-35
-7.088e-35
3.625e-34
-1.434e-33
3.371e-33
1.29e-32
-2.378e-31
1.967e-30
-1.212e-29
6.566e-29
-2.87e-28
1.363e-27
-3.816e-27
1.54e-26
1.854e-27
1.28e-25
1.271e-24
1.706e-24
1.375e-23
6.631e-23
1.273e-22
9.119e-22
2.851e-21
6.871e-21
3.54e-20
9.994e-20
2.323e-19
9.626e-19
2.369e-18
4.528e-18
7.804e-18
1.284e-17
2.038e-17
3.134e-17
4.691e-17
6.858e-17
9.823e-17
1.382e-16
1.914e-16
2.613e-16
3.524e-16
4.697e-16
6.199e-16
8.107e-16
1.051e-15
1.354e-15
1.731e-15
2.201e-15
2.782e-15
3.499e-15
4.379e-15
5.457e-15
6.772e-15
8.371e-15
1.031e-14
1.265e-14
1.548e-14
1.887e-14
2.294e-14
2.78e-14
3.359e-14
4.047e-14
4.863e-14
5.828e-14
6.966e-14
8.306e-14
9.878e-14
1.172e-13
1.387e-13
1.638e-13
1.931e-13
2.27e-13
2.663e-13
3.117e-13
3.641e-13
4.245e-13
4.938e-13
5.734e-13
6.643e-13
7.682e-13
8.864e-13
1.021e-12
1.175e-12
1.375e-12
-1.073e-68
9.258e-68
-3.962e-67
1.095e-66
-2.042e-66
2.62e-66
-2.263e-66
1.193e-66
-4.783e-67
2.034e-66
-2.663e-65
4.295e-64
-6.439e-63
9.037e-62
-1.19e-60
1.477e-59
-1.737e-58
1.949e-57
-2.099e-56
2.181e-55
-2.196e-54
2.147e-53
-2.042e-52
1.889e-51
-1.697e-50
1.478e-49
-1.244e-48
1.005e-47
-7.727e-47
5.889e-46
-4.428e-45
3.274e-44
-2.371e-43
1.674e-42
-1.146e-41
7.559e-41
-4.765e-40
2.838e-39
-1.572e-38
7.792e-38
-3.557e-37
1.031e-36
2.843e-37
-3.679e-35
3.563e-34
-2.652e-33
1.491e-32
-6.839e-32
2.647e-31
-3.287e-31
-3.828e-30
5.173e-29
-3.449e-28
2.084e-27
-9.221e-27
5.201e-26
-1.338e-25
7.148e-25
4.328e-25
8.769e-24
5.935e-23
1.21e-22
7.803e-22
2.955e-21
7.95e-21
4.228e-20
1.245e-19
3.108e-19
1.207e-18
3.079e-18
6.145e-18
1.113e-17
1.899e-17
3.095e-17
4.858e-17
7.383e-17
1.091e-16
1.573e-16
2.218e-16
3.068e-16
4.168e-16
5.574e-16
7.352e-16
9.579e-16
1.234e-15
1.576e-15
1.995e-15
2.507e-15
3.131e-15
3.888e-15
4.805e-15
5.914e-15
7.25e-15
8.858e-15
1.079e-14
1.311e-14
1.588e-14
1.92e-14
2.315e-14
2.786e-14
3.346e-14
4.01e-14
4.797e-14
5.726e-14
6.823e-14
8.114e-14
9.63e-14
1.141e-13
1.349e-13
1.592e-13
1.876e-13
2.206e-13
2.589e-13
3.033e-13
3.546e-13
4.139e-13
4.822e-13
5.608e-13
6.51e-13
7.543e-13
8.724e-13
1.007e-12
1.161e-12
1.335e-12
1.533e-12
1.757e-12
2.013e-12
2.37e-12
1.438e-67
-1.312e-66
6.513e-66
-2.213e-65
5.315e-65
-9.18e-65
1.124e-64
-8.985e-65
1.843e-65
1.145e-64
-1.247e-63
1.966e-62
-2.899e-61
3.989e-60
-5.137e-59
6.227e-58
-7.15e-57
7.84e-56
-8.262e-55
8.415e-54
-8.318e-53
8.002e-52
-7.502e-51
6.855e-50
-6.098e-49
5.269e-48
-4.41e-47
3.552e-46
-2.742e-45
2.097e-44
-1.583e-43
1.176e-42
-8.561e-42
6.084e-41
-4.201e-40
2.803e-39
-1.795e-38
1.093e-37
-6.258e-37
3.301e-36
-1.548e-35
6.036e-35
-1.36e-34
-3.511e-34
8.418e-33
-7.949e-32
5.093e-31
-2.707e-30
1.252e-29
-4.489e-29
5.501e-29
5.277e-28
-5.931e-27
5.125e-26
-2.2e-25
1.762e-24
-3.378e-24
2.969e-23
3.981e-23
5.349e-22
2.474e-21
7.185e-21
3.889e-20
1.326e-19
3.757e-19
1.486e-18
4.065e-18
8.76e-18
1.704e-17
3.103e-17
5.357e-17
8.842e-17
1.402e-16
2.145e-16
3.178e-16
4.571e-16
6.403e-16
8.757e-16
1.172e-15
1.54e-15
1.99e-15
2.533e-15
3.183e-15
3.958e-15
4.875e-15
5.957e-15
7.232e-15
8.732e-15
1.05e-14
1.257e-14
1.501e-14
1.787e-14
2.125e-14
2.522e-14
2.989e-14
3.538e-14
4.185e-14
4.945e-14
5.838e-14
6.888e-14
8.119e-14
9.562e-14
1.125e-13
1.323e-13
1.554e-13
1.823e-13
2.137e-13
2.502e-13
2.925e-13
3.417e-13
3.985e-13
4.643e-13
5.401e-13
6.274e-13
7.279e-13
8.432e-13
9.753e-13
1.126e-12
1.299e-12
1.496e-12
1.719e-12
1.973e-12
2.261e-12
2.586e-12
2.954e-12
3.367e-12
3.836e-12
4.521e-12
-1.847e-66
1.749e-65
-9.683e-65
3.851e-64
-1.124e-63
2.442e-63
-3.896e-63
4.248e-63
-2.637e-63
3.115e-63
-5.14e-62
8.486e-61
-1.22e-59
1.625e-58
-2.022e-57
2.366e-56
-2.624e-55
2.784e-54
-2.845e-53
2.819e-52
-2.72e-51
2.562e-50
-2.358e-49
2.122e-48
-1.865e-47
1.597e-46
-1.329e-45
1.068e-44
-8.289e-44
6.373e-43
-4.838e-42
3.615e-41
-2.651e-40
1.901e-39
-1.327e-38
8.982e-38
-5.861e-37
3.662e-36
-2.173e-35
1.209e-34
-6.19e-34
2.817e-33
-1.049e-32
2.652e-32
4.326e-32
-1.487e-30
1.299e-29
-8.051e-29
4.704e-28
-1.989e-27
7.213e-27
-1.571e-26
2.179e-26
4.913e-25
-1.983e-24
5.156e-23
-1.569e-23
1.1e-21
3.211e-21
2.695e-20
1.086e-19
3.436e-19
1.479e-18
4.532e-18
1.101e-17
2.4e-17
4.861e-17
9.252e-17
1.666e-16
2.854e-16
4.667e-16
7.311e-16
1.101e-15
1.6e-15
2.25e-15
3.071e-15
4.081e-15
5.296e-15
6.729e-15
8.394e-15
1.03e-14
1.248e-14
1.494e-14
1.771e-14
2.084e-14
2.437e-14
2.836e-14
3.289e-14
3.804e-14
4.392e-14
5.066e-14
5.839e-14
6.729e-14
7.756e-14
8.943e-14
1.032e-13
1.191e-13
1.376e-13
1.59e-13
1.838e-13
2.127e-13
2.461e-13
2.849e-13
3.298e-13
3.818e-13
4.419e-13
5.114e-13
5.915e-13
6.84e-13
7.904e-13
9.127e-13
1.053e-12
1.214e-12
1.399e-12
1.609e-12
1.85e-12
2.124e-12
2.436e-12
2.791e-12
3.192e-12
3.647e-12
4.161e-12
4.74e-12
5.392e-12
6.125e-12
6.946e-12
7.866e-12
9.257e-12
2.308e-65
-2.243e-64
1.348e-63
-6.072e-63
2.078e-62
-5.455e-62
1.084e-61
-1.528e-61
9.223e-62
2.677e-61
-2.566e-60
3.468e-59
-4.718e-58
5.986e-57
-7.077e-56
7.87e-55
-8.308e-54
8.424e-53
-8.266e-52
7.902e-51
-7.39e-50
6.778e-49
-6.104e-48
5.396e-47
-4.677e-46
3.967e-45
-3.284e-44
2.639e-43
-2.063e-42
1.597e-41
-1.222e-40
9.204e-40
-6.812e-39
4.938e-38
-3.494e-37
2.404e-36
-1.602e-35
1.029e-34
-6.33e-34
3.702e-33
-2.038e-32
1.041e-31
-4.756e-31
2.05e-30
-5.542e-30
2.394e-30
1.106e-28
-1.382e-27
1.164e-26
-6.129e-26
2.686e-25
-1.068e-24
5.892e-24
-7.17e-24
4.587e-23
1.106e-21
3.365e-21
3.686e-20
1.845e-19
9.687e-19
3.493e-18
1.004e-17
2.581e-17
6.11e-17
1.345e-16
2.769e-16
5.353e-16
9.752e-16
1.681e-15
2.75e-15
4.288e-15
6.397e-15
9.16e-15
1.264e-14
1.686e-14
2.182e-14
2.749e-14
3.381e-14
4.074e-14
4.822e-14
5.621e-14
6.473e-14
7.378e-14
8.343e-14
9.378e-14
1.049e-13
1.171e-13
1.305e-13
1.452e-13
1.617e-13
1.802e-13
2.01e-13
2.247e-13
2.516e-13
2.823e-13
3.174e-13
3.576e-13
4.038e-13
4.569e-13
5.179e-13
5.88e-13
6.687e-13
7.614e-13
8.679e-13
9.903e-13
1.131e-12
1.292e-12
1.477e-12
1.688e-12
1.93e-12
2.206e-12
2.522e-12
2.881e-12
3.29e-12
3.755e-12
4.283e-12
4.881e-12
5.558e-12
6.324e-12
7.187e-12
8.159e-12
9.253e-12
1.048e-11
1.185e-11
1.339e-11
1.511e-11
1.701e-11
1.995e-11
-2.819e-64
2.789e-63
-1.787e-62
8.915e-62
-3.489e-61
1.078e-60
-2.601e-60
4.663e-60
-5.334e-60
7.016e-60
-7.802e-59
1.246e-57
-1.626e-56
1.921e-55
-2.108e-54
2.182e-53
-2.15e-52
2.052e-51
-1.909e-50
1.744e-49
-1.57e-48
1.396e-47
-1.227e-46
1.064e-45
-9.102e-45
7.657e-44
-6.319e-43
5.094e-42
-4.024e-41
3.147e-40
-2.431e-39
1.852e-38
-1.387e-37
1.019e-36
-7.324e-36
5.135e-35
-3.501e-34
2.313e-33
-1.474e-32
9.026e-32
-5.281e-31
2.93e-30
-1.53e-29
7.357e-29
-3.166e-28
1.268e-27
-3.273e-27
4.217e-28
6.739e-26
-5.791e-25
4.363e-24
-2.49e-23
2.008e-22
-1.452e-22
3.477e-21
3.062e-20
2.112e-19
1.303e-18
5.301e-18
1.737e-17
5.085e-17
1.364e-16
3.376e-16
7.744e-16
1.652e-15
3.285e-15
6.116e-15
1.07e-14
1.764e-14
2.756e-14
4.093e-14
5.803e-14
7.888e-14
1.032e-13
1.304e-13
1.599e-13
1.907e-13
2.222e-13
2.537e-13
2.848e-13
3.152e-13
3.451e-13
3.746e-13
4.042e-13
4.342e-13
4.654e-13
4.983e-13
5.336e-13
5.722e-13
6.148e-13
6.624e-13
7.159e-13
7.764e-13
8.45e-13
9.232e-13
1.012e-12
1.114e-12
1.231e-12
1.364e-12
1.516e-12
1.69e-12
1.889e-12
2.117e-12
2.376e-12
2.673e-12
3.011e-12
3.397e-12
3.837e-12
4.338e-12
4.907e-12
5.553e-12
6.286e-12
7.118e-12
8.059e-12
9.123e-12
1.032e-11
1.168e-11
1.32e-11
1.492e-11
1.685e-11
1.901e-11
2.142e-11
2.412e-11
2.714e-11
3.049e-11
3.422e-11
3.83e-11
4.474e-11
3.359e-63
-3.365e-62
2.271e-61
-1.234e-60
5.425e-60
-1.938e-59
5.568e-59
-1.225e-58
1.685e-58
2.869e-58
-3.769e-57
4.215e-56
-4.741e-55
5.009e-54
-4.927e-53
4.594e-52
-4.103e-51
3.606e-50
-3.128e-49
2.7e-48
-2.327e-47
2.003e-46
-1.72e-45
1.47e-44
-1.246e-43
1.047e-42
-8.666e-42
7.068e-41
-5.681e-40
4.513e-39
-3.54e-38
2.737e-37
-2.083e-36
1.558e-35
-1.142e-34
8.185e-34
-5.725e-33
3.896e-32
-2.575e-31
1.645e-30
-1.015e-29
6.018e-29
-3.428e-28
1.831e-27
-9.256e-27
4.385e-26
-1.907e-25
7.498e-25
-2.659e-24
6.337e-24
-2.18e-25
-7.214e-23
2.943e-21
5.229e-21
1.508e-19
1.249e-18
6.016e-18
2.321e-17
7.957e-17
2.484e-16
7.106e-16
1.868e-15
4.52e-15
1.01e-14
2.087e-14
4.005e-14
7.167e-14
1.2e-13
1.891e-13
2.813e-13
3.971e-13
5.343e-13
6.881e-13
8.524e-13
1.019e-12
1.182e-12
1.334e-12
1.47e-12
1.59e-12
1.693e-12
1.78e-12
1.853e-12
1.918e-12
1.976e-12
2.031e-12
2.087e-12
2.147e-12
2.212e-12
2.288e-12
2.376e-12
2.478e-12
2.597e-12
2.736e-12
2.898e-12
3.086e-12
3.303e-12
3.554e-12
3.843e-12
4.174e-12
4.554e-12
4.988e-12
5.483e-12
6.048e-12
6.692e-12
7.424e-12
8.256e-12
9.2e-12
1.027e-11
1.148e-11
1.285e-11
1.441e-11
1.616e-11
1.813e-11
2.036e-11
2.286e-11
2.567e-11
2.882e-11
3.236e-11
3.632e-11
4.074e-11
4.568e-11
5.118e-11
5.73e-11
6.409e-11
7.162e-11
7.997e-11
8.9e-11
1.035e-10
-3.877e-62
3.914e-61
-2.755e-60
1.611e-59
-7.857e-59
3.207e-58
-1.089e-57
3e-57
-6.361e-57
1.502e-56
-8.099e-56
9.916e-55
-1.026e-53
9.103e-53
-7.433e-52
5.801e-51
-4.319e-50
3.316e-49
-2.564e-48
2.04e-47
-1.679e-46
1.422e-45
-1.228e-44
1.069e-43
-9.308e-43
8.067e-42
-6.897e-41
5.819e-40
-4.838e-39
3.964e-38
-3.2e-37
2.544e-36
-1.991e-35
1.531e-34
-1.156e-33
8.553e-33
-6.189e-32
4.371e-31
-3.013e-30
2.005e-29
-1.307e-28
8.204e-28
-5.007e-27
2.843e-26
-1.562e-25
8.159e-25
-3.971e-24
1.888e-23
-8.286e-23
3.529e-22
-1.143e-21
5.837e-21
5.608e-20
5.499e-19
4.304e-18
2.188e-17
9.12e-17
3.401e-16
1.153e-15
3.566e-15
1.007e-14
2.6e-14
6.15e-14
1.335e-13
2.668e-13
4.928e-13
8.453e-13
1.353e-12
2.029e-12
2.868e-12
3.839e-12
4.892e-12
5.959e-12
6.981e-12
7.881e-12
8.648e-12
9.212e-12
9.602e-12
9.836e-12
9.952e-12
9.931e-12
9.859e-12
9.741e-12
9.599e-12
9.455e-12
9.326e-12
9.229e-12
9.158e-12
9.163e-12
9.206e-12
9.307e-12
9.47e-12
9.708e-12
1.002e-11
1.042e-11
1.09e-11
1.148e-11
1.216e-11
1.297e-11
1.389e-11
1.497e-11
1.62e-11
1.76e-11
1.92e-11
2.102e-11
2.309e-11
2.543e-11
2.807e-11
3.106e-11
3.442e-11
3.821e-11
4.246e-11
4.724e-11
5.26e-11
5.861e-11
6.533e-11
7.283e-11
8.12e-11
9.053e-11
1.009e-10
1.125e-10
1.252e-10
1.394e-10
1.551e-10
1.724e-10
1.915e-10
2.12e-10
2.451e-10
4.271e-61
-4.328e-60
3.152e-59
-1.966e-58
1.052e-57
-4.85e-57
1.914e-56
-6.251e-56
1.495e-55
6.273e-56
-2.298e-54
1.964e-53
-1.172e-52
5.347e-52
-1.323e-51
-1.078e-50
2.205e-49
-2.203e-48
2.048e-47
-1.715e-46
1.315e-45
-9.287e-45
5.983e-44
-3.454e-43
1.617e-42
-3.003e-42
-4.864e-41
9.181e-40
-1.074e-38
1.066e-37
-9.755e-37
8.46e-36
-7.091e-35
5.779e-34
-4.582e-33
3.538e-32
-2.66e-31
1.944e-30
-1.39e-29
9.339e-29
-6.375e-28
4.099e-27
-2.581e-26
1.534e-25
-9.01e-25
4.981e-24
-2.726e-23
1.441e-22
-6.868e-22
4.227e-21
1.009e-21
2.194e-19
2.324e-18
1.428e-17
7.199e-17
3.248e-16
1.331e-15
4.953e-15
1.674e-14
5.139e-14
1.432e-13
3.627e-13
8.364e-13
1.76e-12
3.391e-12
6.011e-12
9.853e-12
1.501e-11
2.139e-11
2.866e-11
3.628e-11
4.373e-11
5.027e-11
5.565e-11
5.914e-11
6.15e-11
6.148e-11
6.076e-11
5.916e-11
5.687e-11
5.416e-11
5.127e-11
4.839e-11
4.567e-11
4.317e-11
4.096e-11
3.907e-11
3.749e-11
3.624e-11
3.531e-11
3.47e-11
3.432e-11
3.437e-11
3.463e-11
3.518e-11
3.603e-11
3.72e-11
3.869e-11
4.051e-11
4.27e-11
4.528e-11
4.829e-11
5.175e-11
5.572e-11
6.025e-11
6.54e-11
7.122e-11
7.78e-11
8.521e-11
9.354e-11
1.029e-10
1.134e-10
1.251e-10
1.382e-10
1.528e-10
1.691e-10
1.872e-10
2.074e-10
2.297e-10
2.545e-10
2.819e-10
3.121e-10
3.455e-10
3.823e-10
4.228e-10
4.673e-10
5.146e-10
5.917e-10
-4.395e-60
4.448e-59
-3.33e-58
2.197e-57
-1.28e-56
6.633e-56
-3.071e-55
1.268e-54
-4.58e-54
1.354e-53
-1.161e-53
-1.572e-52
2.066e-51
-1.986e-50
1.775e-49
-1.53e-48
1.285e-47
-1.048e-46
8.269e-46
-6.314e-45
4.668e-44
-3.346e-43
2.331e-42
-1.582e-41
1.05e-40
-6.835e-40
4.393e-39
-2.793e-38
1.802e-37
-1.18e-36
7.87e-36
-5.396e-35
3.695e-34
-2.444e-33
1.6e-32
-1.029e-31
6.458e-31
-3.968e-30
2.151e-29
-2.011e-28
7.119e-28
-5.59e-27
1.58e-26
-3.511e-26
-6.175e-27
1.742e-24
-1.541e-23
1.709e-22
-1.774e-22
5.135e-20
5.294e-19
5.401e-18
3.609e-17
2.016e-16
1.014e-15
4.624e-15
1.91e-14
7.137e-14
2.407e-13
7.326e-13
2.011e-12
4.987e-12
1.118e-11
2.275e-11
4.212e-11
7.138e-11
1.114e-10
1.612e-10
2.175e-10
2.754e-10
3.291e-10
3.75e-10
4.051e-10
4.237e-10
4.219e-10
4.125e-10
3.944e-10
3.698e-10
3.417e-10
3.123e-10
2.835e-10
2.564e-10
2.319e-10
2.1e-10
1.911e-10
1.748e-10
1.611e-10
1.497e-10
1.405e-10
1.33e-10
1.272e-10
1.229e-10
1.2e-10
1.181e-10
1.179e-10
1.184e-10
1.2e-10
1.227e-10
1.264e-10
1.312e-10
1.372e-10
1.443e-10
1.527e-10
1.624e-10
1.736e-10
1.864e-10
2.009e-10
2.173e-10
2.358e-10
2.565e-10
2.798e-10
3.058e-10
3.348e-10
3.67e-10
4.03e-10
4.428e-10
4.87e-10
5.36e-10
5.901e-10
6.498e-10
7.157e-10
7.882e-10
8.679e-10
9.554e-10
1.051e-09
1.156e-09
1.267e-09
1.449e-09
4.062e-59
-4.094e-58
3.13e-57
-2.16e-56
1.347e-55
-7.656e-55
3.992e-54
-1.925e-53
8.663e-53
-3.704e-52
1.572e-51
-7.686e-51
4.267e-50
-3.18e-49
2.775e-48
-2.433e-47
2.061e-46
-1.67e-45
1.293e-44
-9.603e-44
6.861e-43
-4.727e-42
3.145e-41
-2.023e-40
1.257e-39
-7.54e-39
4.364e-38
-2.429e-37
1.357e-36
-7.69e-36
4.585e-35
-2.977e-34
1.912e-33
-1.225e-32
8.194e-32
-5.638e-31
3.951e-30
-2.788e-29
1.96e-28
-1.363e-27
9.298e-27
-6.199e-26
4.035e-25
-2.524e-24
1.598e-23
-9.008e-23
5.784e-22
-1.925e-21
1.005e-19
1.404e-18
1.138e-17
7.777e-17
4.814e-16
2.714e-15
1.388e-14
6.421e-14
2.677e-13
1.003e-12
3.372e-12
1.016e-11
2.744e-11
6.645e-11
1.445e-10
2.833e-10
5.019e-10
8.101e-10
1.2e-09
1.642e-09
2.092e-09
2.497e-09
2.813e-09
3.027e-09
3.047e-09
2.986e-09
2.842e-09
2.631e-09
2.382e-09
2.119e-09
1.862e-09
1.622e-09
1.407e-09
1.22e-09
1.059e-09
9.238e-10
8.11e-10
7.177e-10
6.412e-10
5.788e-10
5.282e-10
4.876e-10
4.554e-10
4.303e-10
4.114e-10
3.975e-10
3.887e-10
3.828e-10
3.831e-10
3.857e-10
3.916e-10
4.009e-10
4.137e-10
4.299e-10
4.496e-10
4.73e-10
5.003e-10
5.318e-10
5.678e-10
6.086e-10
6.547e-10
7.064e-10
7.643e-10
8.29e-10
9.01e-10
9.81e-10
1.07e-09
1.168e-09
1.277e-09
1.396e-09
1.528e-09
1.674e-09
1.833e-09
2.008e-09
2.2e-09
2.41e-09
2.638e-09
2.889e-09
3.151e-09
3.582e-09
-3.295e-58
3.303e-57
-2.563e-56
1.834e-55
-1.209e-54
7.39e-54
-4.208e-53
2.236e-52
-1.104e-51
4.945e-51
-1.844e-50
9.373e-51
3.59e-49
-5.072e-48
5.31e-47
-4.749e-46
3.889e-45
-3.004e-44
2.22e-43
-1.581e-42
1.091e-41
-7.301e-41
4.75e-40
-3.004e-39
1.843e-38
-1.093e-37
6.219e-37
-3.361e-36
1.761e-35
-8.754e-35
4.456e-34
-2.747e-33
8.335e-33
-8.824e-33
-1.945e-31
2.786e-30
-2.696e-29
2.243e-28
-1.713e-27
1.232e-26
-8.451e-26
5.573e-25
-3.533e-24
2.205e-23
-1.215e-22
7.977e-22
-2.957e-21
1.281e-19
1.977e-18
1.775e-17
1.363e-16
9.514e-16
6.053e-15
3.496e-14
1.824e-13
8.558e-13
3.598e-12
1.352e-11
4.524e-11
1.348e-10
3.572e-10
8.424e-10
1.771e-09
3.331e-09
5.624e-09
8.608e-09
1.205e-08
1.554e-08
1.865e-08
2.093e-08
2.227e-08
2.206e-08
2.121e-08
1.968e-08
1.769e-08
1.551e-08
1.332e-08
1.128e-08
9.451e-09
7.876e-09
6.552e-09
5.459e-09
4.569e-09
3.85e-09
3.273e-09
2.811e-09
2.443e-09
2.149e-09
1.914e-09
1.728e-09
1.58e-09
1.464e-09
1.374e-09
1.306e-09
1.256e-09
1.221e-09
1.2e-09
1.193e-09
1.197e-09
1.211e-09
1.236e-09
1.27e-09
1.315e-09
1.37e-09
1.435e-09
1.512e-09
1.601e-09
1.702e-09
1.816e-09
1.945e-09
2.089e-09
2.25e-09
2.429e-09
2.628e-09
2.848e-09
3.09e-09
3.358e-09
3.652e-09
3.976e-09
4.331e-09
4.719e-09
5.144e-09
5.608e-09
6.113e-09
6.663e-09
7.263e-09
7.887e-09
8.916e-09
2.302e-57
-2.272e-56
1.778e-55
-1.311e-54
9.097e-54
-5.978e-53
3.757e-52
-2.291e-51
1.384e-50
-8.421e-50
5.484e-49
-3.488e-48
2.353e-47
-1.689e-46
1.223e-45
-8.838e-45
6.312e-44
-4.436e-43
3.061e-42
-2.074e-41
1.38e-40
-9.025e-40
5.805e-39
-3.676e-38
2.295e-37
-1.415e-36
8.633e-36
-5.226e-35
3.181e-34
-1.947e-33
1.196e-32
-7.452e-32
4.617e-31
-2.832e-30
1.74e-29
-1.067e-28
6.515e-28
-3.952e-27
2.378e-26
-1.416e-25
8.327e-25
-4.823e-24
2.76e-23
-1.5e-22
9.715e-22
-3.416e-21
1.316e-19
2.251e-18
2.245e-17
1.935e-16
1.524e-15
1.097e-14
7.18e-14
4.247e-13
2.258e-12
1.074e-11
4.553e-11
1.713e-10
5.7e-10
1.676e-09
4.348e-09
9.956e-09
2.015e-08
3.62e-08
5.794e-08
8.369e-08
1.102e-07
1.337e-07
1.507e-07
1.587e-07
1.56e-07
1.476e-07
1.341e-07
1.176e-07
1.001e-07
8.333e-08
6.816e-08
5.508e-08
4.42e-08
3.537e-08
2.832e-08
2.278e-08
1.845e-08
1.508e-08
1.247e-08
1.044e-08
8.852e-09
7.615e-09
6.646e-09
5.886e-09
5.288e-09
4.82e-09
4.454e-09
4.171e-09
3.957e-09
3.8e-09
3.691e-09
3.624e-09
3.593e-09
3.605e-09
3.642e-09
3.708e-09
3.804e-09
3.93e-09
4.084e-09
4.269e-09
4.485e-09
4.733e-09
5.016e-09
5.336e-09
5.694e-09
6.094e-09
6.539e-09
7.032e-09
7.576e-09
8.176e-09
8.836e-09
9.56e-09
1.035e-08
1.122e-08
1.217e-08
1.32e-08
1.433e-08
1.555e-08
1.688e-08
1.832e-08
1.981e-08
2.227e-08
-1.15e-56
1.159e-55
-9.203e-55
6.89e-54
-4.852e-53
3.2e-52
-1.954e-51
1.079e-50
-5.075e-50
1.814e-49
6.631e-49
-9.681e-48
1.135e-46
-1.064e-45
8.827e-45
-6.801e-44
4.977e-43
-3.504e-42
2.391e-41
-1.59e-40
1.033e-39
-6.571e-39
4.093e-38
-2.496e-37
1.487e-36
-8.616e-36
4.836e-35
-2.641e-34
1.401e-33
-7.159e-33
3.435e-32
-1.616e-31
6.356e-31
-1.319e-30
-5.356e-30
1.084e-28
-1.088e-27
8.939e-27
-6.635e-26
4.612e-25
-3.051e-24
1.942e-23
-1.18e-22
7.456e-22
-2.245e-21
1.058e-19
2.03e-18
2.255e-17
2.182e-16
1.937e-15
1.577e-14
1.171e-13
7.877e-13
4.769e-12
2.583e-11
1.244e-10
5.308e-10
1.996e-09
6.593e-09
1.908e-08
4.831e-08
1.07e-07
2.075e-07
3.54e-07
5.34e-07
7.244e-07
8.952e-07
1.02e-06
1.073e-06
1.048e-06
9.81e-07
8.77e-07
7.535e-07
6.264e-07
5.073e-07
4.026e-07
3.15e-07
2.442e-07
1.886e-07
1.456e-07
1.128e-07
8.8e-08
6.931e-08
5.522e-08
4.458e-08
3.651e-08
3.036e-08
2.564e-08
2.201e-08
1.919e-08
1.699e-08
1.528e-08
1.395e-08
1.291e-08
1.211e-08
1.151e-08
1.107e-08
1.077e-08
1.059e-08
1.051e-08
1.055e-08
1.066e-08
1.086e-08
1.113e-08
1.149e-08
1.193e-08
1.245e-08
1.306e-08
1.375e-08
1.454e-08
1.543e-08
1.642e-08
1.752e-08
1.874e-08
2.009e-08
2.157e-08
2.32e-08
2.498e-08
2.692e-08
2.905e-08
3.136e-08
3.388e-08
3.661e-08
3.956e-08
4.276e-08
4.623e-08
4.979e-08
5.569e-08
7.76e-56
-6.809e-55
5.127e-54
-3.979e-53
3.134e-52
-2.473e-51
1.932e-50
-1.482e-49
1.112e-48
-8.145e-48
5.832e-47
-4.083e-46
2.806e-45
-1.896e-44
1.262e-43
-8.298e-43
5.397e-42
-3.479e-41
2.225e-40
-1.413e-39
8.928e-39
-5.611e-38
3.51e-37
-2.187e-36
1.357e-35
-8.382e-35
5.157e-34
-3.159e-33
1.924e-32
-1.166e-31
7.023e-31
-4.205e-30
2.501e-29
-1.477e-28
8.657e-28
-5.032e-27
2.9e-26
-1.655e-25
9.342e-25
-5.214e-24
2.876e-23
-1.556e-22
8.579e-22
-3.861e-21
4.629e-20
1.379e-18
1.766e-17
1.921e-16
1.918e-15
1.763e-14
1.483e-13
1.135e-12
7.831e-12
4.843e-11
2.666e-10
1.298e-09
5.561e-09
2.085e-08
6.811e-08
1.933e-07
4.757e-07
1.013e-06
1.872e-06
3.015e-06
4.263e-06
5.412e-06
6.277e-06
6.658e-06
6.497e-06
6.043e-06
5.347e-06
4.528e-06
3.697e-06
2.931e-06
2.27e-06
1.729e-06
1.302e-06
9.743e-07
7.28e-07
5.454e-07
4.112e-07
3.129e-07
2.409e-07
1.88e-07
1.489e-07
1.199e-07
9.819e-08
8.177e-08
6.927e-08
5.969e-08
5.228e-08
4.654e-08
4.207e-08
3.86e-08
3.592e-08
3.386e-08
3.233e-08
3.123e-08
3.05e-08
3.004e-08
2.996e-08
3.011e-08
3.047e-08
3.106e-08
3.188e-08
3.291e-08
3.416e-08
3.564e-08
3.734e-08
3.928e-08
4.146e-08
4.391e-08
4.663e-08
4.964e-08
5.296e-08
5.661e-08
6.061e-08
6.498e-08
6.974e-08
7.493e-08
8.056e-08
8.667e-08
9.328e-08
1.004e-07
1.081e-07
1.164e-07
1.25e-07
1.39e-07
4.417e-55
-4.31e-54
3.43e-53
-2.648e-52
1.973e-51
-1.421e-50
9.913e-50
-6.726e-49
4.455e-48
-2.893e-47
1.85e-46
-1.169e-45
7.332e-45
-4.572e-44
2.841e-43
-1.762e-42
1.091e-41
-6.755e-41
4.18e-40
-2.587e-39
1.602e-38
-9.934e-38
6.17e-37
-3.843e-36
2.402e-35
-1.509e-34
9.506e-34
-5.969e-33
3.737e-32
-2.333e-31
1.451e-30
-8.99e-30
5.548e-29
-3.408e-28
2.083e-27
-1.266e-26
7.651e-26
-4.592e-25
2.737e-24
-1.618e-23
9.497e-23
-5.435e-22
3.408e-21
-1.414e-20
4.789e-19
1.032e-17
1.305e-16
1.461e-15
1.509e-14
1.433e-13
1.243e-12
9.772e-12
6.903e-11
4.349e-10
2.425e-09
1.189e-08
5.089e-08
1.893e-07
6.082e-07
1.683e-06
3.997e-06
8.138e-06
1.422e-05
2.148e-05
2.835e-05
3.375e-05
3.656e-05
3.577e-05
3.328e-05
2.935e-05
2.469e-05
1.995e-05
1.56e-05
1.189e-05
8.881e-06
6.541e-06
4.775e-06
3.474e-06
2.53e-06
1.851e-06
1.366e-06
1.02e-06
7.72e-07
5.934e-07
4.637e-07
3.689e-07
2.987e-07
2.463e-07
2.068e-07
1.768e-07
1.537e-07
1.359e-07
1.221e-07
1.113e-07
1.03e-07
9.657e-08
9.171e-08
8.814e-08
8.563e-08
8.409e-08
8.317e-08
8.334e-08
8.399e-08
8.524e-08
8.707e-08
8.949e-08
9.248e-08
9.604e-08
1.002e-07
1.049e-07
1.103e-07
1.163e-07
1.23e-07
1.304e-07
1.386e-07
1.475e-07
1.573e-07
1.68e-07
1.796e-07
1.923e-07
2.059e-07
2.207e-07
2.366e-07
2.538e-07
2.722e-07
2.921e-07
3.124e-07
3.458e-07
-1.117e-54
1.104e-53
-8.864e-53
6.873e-52
-5.13e-51
3.69e-50
-2.559e-49
1.714e-48
-1.11e-47
6.965e-47
-4.246e-46
2.522e-45
-1.464e-44
8.347e-44
-4.698e-43
2.629e-42
-1.476e-41
8.391e-41
-4.881e-40
2.929e-39
-1.821e-38
1.172e-37
-7.765e-37
5.259e-36
-3.612e-35
2.503e-34
-1.719e-33
1.158e-32
-7.68e-32
5.026e-31
-3.251e-30
2.082e-29
-1.321e-28
8.31e-28
-5.189e-27
3.218e-26
-1.982e-25
1.213e-24
-7.377e-24
4.462e-23
-2.666e-22
1.668e-21
-6.177e-21
2.102e-19
4.954e-18
6.861e-17
8.508e-16
9.805e-15
1.045e-13
1.023e-12
9.122e-12
7.341e-11
5.286e-10
3.376e-09
1.896e-08
9.293e-08
3.947e-07
1.443e-06
4.519e-06
1.206e-05
2.739e-05
5.277e-05
8.663e-05
0.0001219
0.0001509
0.0001697
0.0001674
0.0001571
0.0001393
0.0001175
9.487e-05
7.395e-05
5.6e-05
4.145e-05
3.014e-05
2.166e-05
1.547e-05
1.103e-05
7.883e-06
5.675e-06
4.128e-06
3.043e-06
2.277e-06
1.734e-06
1.344e-06
1.061e-06
8.539e-07
7.003e-07
5.852e-07
4.98e-07
4.313e-07
3.8e-07
3.402e-07
3.092e-07
2.852e-07
2.666e-07
2.525e-07
2.419e-07
2.343e-07
2.295e-07
2.26e-07
2.26e-07
2.27e-07
2.296e-07
2.338e-07
2.394e-07
2.466e-07
2.552e-07
2.653e-07
2.77e-07
2.901e-07
3.049e-07
3.213e-07
3.394e-07
3.594e-07
3.812e-07
4.051e-07
4.311e-07
4.593e-07
4.898e-07
5.227e-07
5.582e-07
5.964e-07
6.374e-07
6.812e-07
7.283e-07
7.759e-07
8.544e-07
4.711e-54
-4.343e-53
3.347e-52
-2.578e-51
1.967e-50
-1.483e-49
1.101e-48
-8.043e-48
5.767e-47
-4.059e-46
2.803e-45
-1.901e-44
1.267e-43
-8.31e-43
5.37e-42
-3.423e-41
2.156e-40
-1.344e-39
8.296e-39
-5.08e-38
3.089e-37
-1.866e-36
1.122e-35
-6.709e-35
3.997e-34
-2.372e-33
1.401e-32
-8.241e-32
4.828e-31
-2.819e-30
1.641e-29
-9.529e-29
5.522e-28
-3.194e-27
1.845e-26
-1.065e-25
6.138e-25
-3.538e-24
2.04e-23
-1.173e-22
6.954e-22
-3.121e-21
5.459e-20
1.781e-18
2.763e-17
3.782e-16
4.828e-15
5.734e-14
6.292e-13
6.324e-12
5.769e-11
4.732e-10
3.454e-09
2.222e-08
1.247e-07
6.053e-07
2.522e-06
8.946e-06
2.688e-05
6.815e-05
0.0001457
0.0002625
0.0004022
0.0005277
0.0006288
0.0006346
0.0006069
0.0005469
0.0004671
0.0003814
0.0003
0.0002287
0.0001698
0.0001235
8.845e-05
6.266e-05
4.416e-05
3.111e-05
2.201e-05
1.57e-05
1.134e-05
8.303e-06
6.183e-06
4.688e-06
3.623e-06
2.854e-06
2.293e-06
1.879e-06
1.569e-06
1.334e-06
1.155e-06
1.017e-06
9.103e-07
8.272e-07
7.626e-07
7.125e-07
6.741e-07
6.453e-07
6.244e-07
6.104e-07
6.015e-07
5.987e-07
6.008e-07
6.066e-07
6.163e-07
6.298e-07
6.471e-07
6.681e-07
6.928e-07
7.212e-07
7.534e-07
7.895e-07
8.295e-07
8.738e-07
9.223e-07
9.754e-07
1.033e-06
1.096e-06
1.164e-06
1.237e-06
1.315e-06
1.4e-06
1.49e-06
1.587e-06
1.689e-06
1.799e-06
1.909e-06
2.091e-06
9.092e-54
-8.969e-53
7.259e-52
-5.735e-51
4.4e-50
-3.278e-49
2.373e-48
-1.671e-47
1.146e-46
-7.672e-46
5.026e-45
-3.23e-44
2.042e-43
-1.274e-42
7.859e-42
-4.812e-41
2.932e-40
-1.781e-39
1.081e-38
-6.571e-38
4.002e-37
-2.446e-36
1.5e-35
-9.238e-35
5.714e-34
-3.551e-33
2.203e-32
-1.36e-31
8.359e-31
-5.118e-30
3.125e-29
-1.903e-28
1.158e-27
-7.035e-27
4.274e-26
-2.598e-25
1.581e-24
-9.64e-24
5.895e-23
-3.596e-22
2.316e-21
-8.901e-21
3.145e-19
8.292e-18
1.288e-16
1.809e-15
2.374e-14
2.896e-13
3.257e-12
3.347e-11
3.111e-10
2.587e-09
1.902e-08
1.223e-07
6.789e-07
3.225e-06
1.298e-05
4.385e-05
0.0001239
0.0002922
0.0005781
0.0009627
0.001379
0.001722
0.001891
0.00184
0.001696
0.001482
0.001239
0.000997
0.0007767
0.0005882
0.0004347
0.0003148
0.0002245
0.0001584
0.0001112
7.809e-05
5.511e-05
3.926e-05
2.832e-05
2.075e-05
1.547e-05
1.175e-05
9.099e-06
7.188e-06
5.793e-06
4.761e-06
3.988e-06
3.402e-06
2.954e-06
2.609e-06
2.341e-06
2.132e-06
1.969e-06
1.843e-06
1.746e-06
1.673e-06
1.62e-06
1.584e-06
1.561e-06
1.553e-06
1.558e-06
1.572e-06
1.595e-06
1.628e-06
1.671e-06
1.722e-06
1.783e-06
1.852e-06
1.931e-06
2.018e-06
2.116e-06
2.223e-06
2.34e-06
2.467e-06
2.605e-06
2.754e-06
2.915e-06
3.088e-06
3.272e-06
3.469e-06
3.679e-06
3.901e-06
4.137e-06
4.387e-06
4.637e-06
5.043e-06
-2.496e-53
2.327e-52
-1.809e-51
1.4e-50
-1.07e-49
8.054e-49
-5.963e-48
4.336e-47
-3.094e-46
2.166e-45
-1.488e-44
1.004e-43
-6.653e-43
4.336e-42
-2.783e-41
1.76e-40
-1.099e-39
6.783e-39
-4.142e-38
2.506e-37
-1.504e-36
8.959e-36
-5.306e-35
3.126e-34
-1.834e-33
1.073e-32
-6.244e-32
3.623e-31
-2.097e-30
1.212e-29
-7.005e-29
4.049e-28
-2.344e-27
1.36e-26
-7.914e-26
4.625e-25
-2.717e-24
1.606e-23
-9.537e-23
5.889e-22
-2.685e-21
5.864e-20
1.999e-18
3.406e-17
5.208e-16
7.48e-15
1.006e-13
1.255e-12
1.442e-11
1.509e-10
1.422e-09
1.192e-08
8.772e-08
5.587e-07
3.038e-06
1.393e-05
5.317e-05
0.0001675
0.0004347
0.0009336
0.001682
0.002593
0.003528
0.004273
0.004256
0.004039
0.003627
0.003126
0.002608
0.00211
0.001658
0.001267
0.000945
0.0006897
0.0004952
0.0003515
0.0002481
0.0001751
0.0001242
8.896e-05
6.456e-05
4.761e-05
3.574e-05
2.734e-05
2.133e-05
1.698e-05
1.379e-05
1.141e-05
9.628e-06
8.27e-06