/*--------------------------------*- C++ -*----------------------------------*\
  =========                 |
  \\      /  F ield         | OpenFOAM: The Open Source CFD Toolbox
   \\    /   O peration     | Website:  https://openfoam.org
    \\  /    A nd           | Version:  7
     \\/     M anipulation  |
\*---------------------------------------------------------------------------*/
FoamFile
{
    version     2.0;
    format      ascii;
    class       volScalarField;
    location    "1800";
    object      Ci;
}
// * * * * * * * * * * * * * * * * * * * * * * * * * * * * * * * * * * * * * //

dimensions      [0 -3 0 0 1 0 0];

internalField   nonuniform List<scalar> 
8192
(
9.99999999183
10.0000001403
10.0000002843
10.000000437
10.0000006291
10.0000008216
10.0000009481
10.0000010271
10.000001078
10.0000011142
10.0000011433
10.000001167
10.0000011841
10.0000011897
10.0000011788
10.000001144
10.0000010788
10.000000975
10.0000008255
10.0000006208
10.0000003495
10.0000000073
9.99999959731
9.99999912123
9.99999858398
9.99999798762
9.99999733705
9.99999663392
9.99999588299
9.99999508561
9.99999424705
9.99999337076
9.9999924722
9.99999156693
9.99999066824
9.99998978175
9.99998891541
9.99998807079
9.99998725302
9.99998646144
9.99998570038
9.99998496947
9.99998427505
9.99998361987
9.99998301486
9.99998246778
9.99998199485
9.99998160813
9.99998132665
9.99998116251
9.99998113189
9.99998124052
9.99998149564
9.99998189212
9.99998242674
9.99998308612
9.99998386362
9.99998474864
9.99998574435
9.99998685503
9.99998809993
9.99998949405
9.99999105533
9.99999278121
9.9999946579
9.99999664543
9.99999869962
10.0000007685
10.0000028162
10.000004814
10.0000067544
10.0000086335
10.0000104588
10.0000122303
10.0000139499
10.0000156066
10.0000171905
10.0000186816
10.0000200655
10.0000213241
10.0000224493
10.0000234334
10.0000242798
10.0000249925
10.0000255851
10.0000260694
10.0000264636
10.0000267817
10.0000270415
10.0000272549
10.0000274359
10.0000275915
10.0000277276
10.0000278344
10.0000278638
10.0000277923
10.0000276285
10.0000273866
10.0000270841
10.0000267342
10.0000263497
10.0000259395
10.0000255118
10.0000250718
10.0000246243
10.0000241723
10.0000237185
10.0000232644
10.0000228114
10.0000223603
10.0000219115
10.0000214657
10.0000210227
10.000020583
10.0000201462
10.0000197129
10.0000192823
10.000018855
10.0000184303
10.0000180091
10.0000175907
10.000017176
10.000016761
10.0000163313
10.0000158273
10.0000150425
10.0000131439
10.0000124385
10.0000000833
10.0000001842
10.0000002659
10.0000003602
10.0000004619
10.0000005778
10.0000006987
10.0000008196
10.0000009392
10.0000010569
10.0000011725
10.000001284
10.0000013892
10.0000014835
10.0000015626
10.0000016199
10.0000016496
10.0000016441
10.0000015971
10.0000015012
10.000001333
10.0000010992
10.0000008083
10.0000004649
10.0000000748
9.9999996416
9.99999917107
9.99999866646
9.99999813362
9.99999757574
9.99999699889
9.99999640645
9.9999958245
9.99999528212
9.99999478824
9.99999434793
9.99999396793
9.99999364885
9.9999933925
9.9999931944
9.99999305207
9.99999295729
9.99999290512
9.99999288569
9.99999289372
9.99999291963
9.99999295938
9.99999300485
9.99999305394
9.99999310021
9.99999314342
9.99999317855
9.9999932071
9.99999322574
9.99999323845
9.99999324495
9.99999325352
9.99999326904
9.99999330604
9.99999337585
9.99999349892
9.9999936904
9.9999939709
9.9999943508
9.99999484127
9.99999543998
9.99999614515
9.99999694549
9.99999783462
9.99999880008
9.99999983619
10.0000009319
10.0000020822
10.0000032759
10.0000045066
10.0000057614
10.0000070314
10.000008302
10.0000095634
10.0000108014
10.0000120074
10.0000131702
10.0000142848
10.0000153443
10.0000163481
10.0000172937
10.0000181841
10.0000190199
10.0000198059
10.0000205443
10.0000212402
10.0000218954
10.0000225134
10.000023093
10.0000235088
10.000023757
10.0000238811
10.0000239079
10.0000238581
10.0000237465
10.000023586
10.0000233857
10.000023154
10.0000228966
10.000022619
10.0000223246
10.0000220169
10.0000216981
10.0000213702
10.0000210346
10.0000206925
10.000020345
10.0000199925
10.0000196358
10.0000192752
10.0000189109
10.0000185428
10.0000181711
10.0000177948
10.000017414
10.000017028
10.0000166372
10.0000162419
10.0000158423
10.0000154239
10.0000148505
10.0000133877
10.0000127705
10.0000001347
10.0000002254
10.0000002722
10.0000003137
10.0000003695
10.0000004315
10.0000004959
10.000000564
10.0000006362
10.000000711
10.0000007877
10.0000008642
10.0000009394
10.0000010102
10.000001075
10.00000113
10.0000011734
10.000001201
10.0000012108
10.0000011992
10.0000011619
10.0000010959
10.0000010041
10.0000008872
10.0000007501
10.0000005947
10.0000004271
10.0000002496
10.0000000688
9.99999988702
9.99999971096
9.99999954212
9.99999938928
9.99999925876
9.99999915815
9.99999908753
9.99999905024
9.9999990422
9.99999906321
9.9999991056
9.99999916637
9.99999923531
9.9999993079
9.99999937285
9.99999942574
9.99999945577
9.99999946009
9.99999942972
9.99999936454
9.9999992582
9.99999911392
9.99999892831
9.99999870808
9.99999845282
9.99999817269
9.99999787025
9.99999755902
9.99999724445
9.99999694315
9.99999666303
9.99999642276
9.999996231
9.99999610554
9.99999605181
9.99999608228
9.99999619585
9.99999639845
9.99999668495
9.99999705875
9.99999751292
9.99999804848
9.99999865603
9.99999933346
10.0000000688
10.0000008572
10.0000016853
10.0000025471
10.0000034291
10.0000043253
10.0000052234
10.000006119
10.0000070015
10.0000078685
10.0000087123
10.0000095322
10.0000103231
10.0000110864
10.0000118189
10.000012523
10.000013197
10.0000138437
10.000014462
10.0000150541
10.0000156211
10.0000161424
10.0000166023
10.000017001
10.0000173401
10.0000176251
10.000017859
10.0000180468
10.0000181911
10.0000182962
10.000018364
10.0000183979
10.0000183998
10.0000183722
10.0000183167
10.0000182355
10.0000181299
10.0000180017
10.0000178521
10.0000176825
10.0000174942
10.0000172879
10.0000170648
10.0000168252
10.0000165698
10.0000162982
10.000016011
10.0000157073
10.0000153882
10.0000150545
10.0000147128
10.0000143712
10.0000139975
10.0000134136
10.0000132154
10.0000001648
10.0000002647
10.0000002961
10.0000003157
10.0000003433
10.0000003827
10.0000004327
10.0000004801
10.0000005287
10.0000005791
10.0000006312
10.0000006839
10.0000007366
10.0000007878
10.0000008367
10.0000008819
10.0000009228
10.000000958
10.0000009871
10.0000010091
10.0000010238
10.0000010303
10.0000010297
10.0000010224
10.0000010108
10.0000009958
10.0000009804
10.000000966
10.0000009558
10.0000009508
10.0000009539
10.0000009656
10.0000009882
10.0000010219
10.0000010683
10.0000011258
10.0000011941
10.0000012695
10.0000013498
10.0000014298
10.0000015058
10.0000015715
10.000001623
10.0000016537
10.0000016602
10.000001637
10.0000015822
10.000001492
10.0000013669
10.0000012053
10.0000010102
10.0000007823
10.0000005265
10.0000002454
9.99999994603
9.99999963238
9.99999931312
9.9999989941
9.99999868573
9.99999839556
9.99999813551
9.99999791385
9.99999774183
9.99999762508
9.9999975703
9.99999757755
9.99999764871
9.99999778163
9.99999797789
9.99999823522
9.99999855435
9.99999893133
9.99999936463
9.99999984805
10.000000378
10.0000009466
10.0000015493
10.0000021776
10.0000028266
10.0000034882
10.0000041577
10.000004828
10.0000054953
10.0000061535
10.0000068004
10.0000074313
10.000008045
10.0000086384
10.0000092115
10.0000097621
10.0000102909
10.0000107967
10.0000112801
10.0000117411
10.000012178
10.0000125863
10.0000129647
10.0000133114
10.0000136272
10.0000139114
10.0000141653
10.0000143888
10.0000145831
10.0000147482
10.0000148852
10.0000149943
10.0000150765
10.0000151321
10.000015162
10.0000151667
10.000015147
10.0000151034
10.0000150368
10.0000149477
10.0000148368
10.0000147045
10.0000145513
10.0000143775
10.000014183
10.000013968
10.0000137322
10.0000134761
10.0000131997
10.0000129084
10.0000125993
10.0000122884
10.0000119038
10.0000121266
10.000000196
10.000000312
10.0000003477
10.000000361
10.0000003767
10.0000004023
10.0000004386
10.0000004858
10.0000005304
10.000000575
10.0000006214
10.0000006691
10.0000007181
10.0000007674
10.000000817
10.0000008658
10.0000009139
10.0000009606
10.000001006
10.0000010498
10.0000010925
10.0000011339
10.0000011748
10.0000012153
10.0000012567
10.0000012994
10.0000013447
10.0000013931
10.0000014459
10.0000015031
10.0000015658
10.0000016334
10.0000017066
10.0000017839
10.0000018652
10.0000019483
10.000002032
10.0000021131
10.0000021897
10.0000022576
10.0000023145
10.0000023559
10.0000023795
10.000002381
10.000002359
10.0000023102
10.0000022344
10.0000021299
10.0000019983
10.0000018395
10.0000016568
10.0000014513
10.0000012276
10.0000009879
10.0000007374
10.0000004791
10.0000002193
9.99999996217
9.99999971537
9.9999994847
9.99999927939
9.99999910631
9.99999897451
9.99999888848
9.99999885254
9.99999886522
9.99999892598
9.99999903167
9.99999918242
9.99999937608
9.99999961285
9.99999988973
10.0000002056
10.0000005563
10.0000009394
10.0000013503
10.0000017863
10.0000022427
10.0000027169
10.0000032043
10.0000037026
10.0000042072
10.0000047158
10.0000052243
10.0000057307
10.000006231
10.0000067237
10.0000072054
10.0000076748
10.0000081294
10.0000085683
10.0000089893
10.0000093921
10.000009775
10.0000101379
10.0000104788
10.0000107974
10.0000110922
10.0000113633
10.0000116096
10.0000118316
10.0000120286
10.0000122012
10.0000123489
10.0000124723
10.0000125713
10.0000126463
10.0000126975
10.0000127255
10.0000127305
10.0000127132
10.0000126739
10.0000126134
10.000012532
10.0000124305
10.0000123093
10.000012169
10.0000120099
10.0000118323
10.0000116365
10.0000114223
10.0000111909
10.0000109398
10.0000106785
10.0000103856
10.0000101261
10.0000096962
10.0000101474
10.0000002215
10.0000003505
10.0000003854
10.0000003975
10.0000004111
10.0000004336
10.000000466
10.0000005073
10.0000005569
10.0000006048
10.0000006522
10.0000007007
10.0000007509
10.0000008026
10.000000856
10.0000009106
10.0000009664
10.0000010231
10.0000010809
10.0000011394
10.000001199
10.0000012596
10.0000013216
10.0000013848
10.0000014497
10.0000015165
10.0000015853
10.0000016563
10.0000017295
10.0000018049
10.0000018823
10.0000019612
10.0000020409
10.0000021205
10.0000021991
10.0000022748
10.0000023465
10.0000024114
10.0000024687
10.0000025145
10.0000025483
10.0000025661
10.0000025676
10.0000025493
10.0000025112
10.0000024513
10.0000023702
10.0000022673
10.0000021442
10.0000020016
10.0000018421
10.0000016673
10.0000014801
10.0000012828
10.0000010786
10.0000008703
10.0000006619
10.0000004574
10.0000002624
10.0000000829
9.99999992659
9.99999980117
9.99999971474
9.99999967269
9.99999967757
9.99999972728
9.9999998185
9.99999994722
10.0000001115
10.0000003086
10.0000005371
10.0000007934
10.000001075
10.0000013778
10.0000016989
10.0000020345
10.0000023825
10.00000274
10.0000031057
10.0000034774
10.0000038542
10.0000042342
10.0000046168
10.000005
10.000005383
10.0000057637
10.0000061411
10.0000065129
10.000006878
10.000007234
10.0000075797
10.0000079129
10.0000082324
10.0000085362
10.0000088234
10.0000090921
10.0000093417
10.0000095705
10.0000097782
10.0000099637
10.0000101267
10.0000102668
10.0000103839
10.0000104777
10.0000105487
10.0000105968
10.0000106226
10.0000106263
10.0000106088
10.0000105705
10.0000105122
10.0000104347
10.0000103389
10.0000102255
10.0000100955
10.0000099497
10.000009789
10.000009614
10.0000094253
10.0000092238
10.0000090088
10.0000087837
10.0000085414
10.0000083015
10.0000080159
10.0000078132
10.0000073421
10.0000078998
10.0000002447
10.0000003866
10.0000004295
10.0000004417
10.0000004521
10.0000004705
10.0000004985
10.0000005355
10.0000005802
10.000000632
10.0000006815
10.0000007307
10.0000007814
10.0000008341
10.000000889
10.0000009462
10.0000010057
10.0000010672
10.0000011308
10.0000011964
10.0000012638
10.0000013329
10.0000014034
10.0000014755
10.0000015487
10.0000016231
10.000001698
10.0000017739
10.0000018494
10.0000019255
10.0000020001
10.0000020743
10.0000021458
10.0000022152
10.0000022804
10.0000023409
10.0000023958
10.0000024421
10.0000024814
10.0000025079
10.0000025255
10.0000025268
10.0000025168
10.0000024884
10.0000024461
10.0000023855
10.0000023093
10.0000022162
10.000002108
10.0000019853
10.00000185
10.0000017035
10.0000015476
10.000001384
10.0000012148
10.000001042
10.0000008685
10.0000006977
10.0000005344
10.0000003846
10.000000256
10.0000001573
10.0000000976
10.0000000838
10.0000001182
10.0000001983
10.0000003186
10.0000004745
10.0000006626
10.0000008803
10.0000011245
10.0000013913
10.0000016767
10.0000019759
10.0000022848
10.0000025995
10.0000029169
10.0000032347
10.0000035511
10.0000038648
10.0000041753
10.000004482
10.0000047846
10.0000050828
10.0000053765
10.0000056653
10.0000059488
10.0000062262
10.0000064967
10.0000067592
10.0000070126
10.0000072555
10.0000074867
10.0000077046
10.0000079078
10.0000080951
10.0000082652
10.0000084168
10.0000085491
10.0000086611
10.0000087523
10.0000088223
10.0000088708
10.0000088977
10.0000089034
10.0000088881
10.0000088524
10.000008797
10.0000087227
10.0000086304
10.0000085213
10.0000083964
10.000008257
10.0000081041
10.0000079392
10.0000077632
10.0000075773
10.0000073827
10.0000071799
10.0000069707
10.0000067532
10.0000065337
10.0000062993
10.0000060818
10.0000058072
10.0000056555
10.0000051818
10.0000057664
10.0000002592
10.0000004091
10.0000004522
10.0000004654
10.0000004766
10.0000004952
10.000000523
10.000000559
10.0000006022
10.0000006518
10.0000007056
10.0000007566
10.000000808
10.000000861
10.0000009163
10.0000009741
10.0000010345
10.0000010975
10.000001163
10.0000012307
10.0000013003
10.0000013717
10.0000014441
10.0000015178
10.0000015915
10.0000016659
10.0000017388
10.0000018122
10.0000018825
10.0000019532
10.000002019
10.0000020848
10.0000021444
10.0000022026
10.0000022543
10.0000023013
10.0000023434
10.0000023748
10.0000024047
10.0000024164
10.0000024301
10.0000024194
10.0000024115
10.0000023773
10.0000023427
10.0000022849
10.0000022212
10.0000021398
10.0000020486
10.0000019445
10.0000018302
10.0000017061
10.0000015736
10.0000014335
10.000001287
10.0000011355
10.000000981
10.0000008266
10.0000006765
10.0000005371
10.0000004166
10.0000003255
10.0000002749
10.0000002743
10.0000003267
10.0000004285
10.0000005722
10.0000007516
10.0000009631
10.0000012033
10.0000014685
10.0000017536
10.0000020538
10.0000023633
10.0000026776
10.0000029919
10.0000033031
10.0000036084
10.0000039064
10.0000041952
10.0000044745
10.0000047437
10.0000050029
10.0000052517
10.0000054907
10.0000057195
10.0000059385
10.0000061474
10.0000063461
10.000006534
10.0000067109
10.0000068757
10.0000070278
10.0000071662
10.0000072899
10.0000073979
10.0000074894
10.0000075633
10.000007619
10.0000076558
10.0000076732
10.000007671
10.0000076492
10.0000076079
10.0000075476
10.0000074688
10.0000073723
10.0000072591
10.0000071304
10.0000069872
10.0000068311
10.0000066634
10.0000064856
10.0000062991
10.0000061055
10.000005906
10.0000057021
10.000005495
10.0000052853
10.0000050752
10.0000048621
10.0000046542
10.0000044342
10.0000042419
10.0000039889
10.0000038766
10.0000034383
10.0000039936
10.0000002745
10.0000004291
10.0000004854
10.0000005016
10.000000511
10.0000005266
10.0000005512
10.0000005845
10.0000006252
10.0000006721
10.000000725
10.0000007779
10.0000008298
10.0000008829
10.000000938
10.0000009957
10.0000010561
10.0000011193
10.0000011847
10.0000012527
10.0000013221
10.0000013934
10.0000014647
10.0000015374
10.0000016081
10.0000016802
10.0000017479
10.0000018175
10.00000188
10.0000019455
10.0000020011
10.0000020607
10.0000021087
10.0000021597
10.0000022007
10.0000022387
10.0000022748
10.000002294
10.0000023269
10.0000023218
10.0000023505
10.0000023196
10.0000023372
10.0000022849
10.0000022799
10.0000022135
10.0000021767
10.0000020996
10.0000020305
10.0000019408
10.0000018462
10.0000017408
10.0000016276
10.000001507
10.0000013786
10.0000012434
10.0000011023
10.0000009577
10.000000813
10.0000006747
10.0000005514
10.0000004554
10.0000004005
10.0000004002
10.000000459
10.0000005717
10.0000007278
10.0000009202
10.0000011444
10.0000013979
10.0000016753
10.0000019724
10.0000022815
10.0000026005
10.0000029228
10.0000032428
10.0000035564
10.0000038606
10.0000041534
10.0000044333
10.0000046993
10.0000049509
10.0000051877
10.0000054097
10.0000056168
10.0000058096
10.0000059882
10.0000061528
10.0000063032
10.0000064394
10.0000065609
10.0000066676
10.0000067589
10.0000068344
10.0000068936
10.000006936
10.000006961
10.0000069682
10.0000069572
10.0000069279
10.0000068801
10.0000068141
10.0000067299
10.0000066283
10.0000065099
10.0000063757
10.0000062267
10.0000060643
10.0000058899
10.000005705
10.0000055111
10.0000053101
10.0000051035
10.0000048931
10.0000046803
10.0000044668
10.0000042538
10.0000040429
10.0000038345
10.0000036308
10.000003429
10.0000032377
10.0000030386
10.0000028718
10.0000026504
10.0000025653
10.000002188
10.0000026824
10.0000002817
10.0000004376
10.0000004997
10.0000005209
10.0000005333
10.0000005503
10.0000005753
10.0000006084
10.0000006486
10.0000006948
10.0000007463
10.0000008009
10.0000008537
10.0000009073
10.0000009626
10.0000010205
10.0000010809
10.0000011443
10.0000012097
10.0000012776
10.0000013464
10.0000014172
10.0000014867
10.000001558
10.0000016254
10.0000016951
10.0000017574
10.000001824
10.0000018789
10.000001941
10.0000019874
10.0000020435
10.0000020823
10.0000021287
10.0000021644
10.0000021935
10.0000022349
10.000002234
10.0000022928
10.0000022482
10.0000023321
10.0000022379
10.0000023397
10.0000022085
10.0000023008
10.0000021616
10.0000022085
10.0000020872
10.0000020713
10.0000019713
10.0000019047
10.0000018093
10.0000017137
10.0000016075
10.0000014929
10.0000013694
10.0000012373
10.0000010967
10.0000009496
10.000000803
10.0000006661
10.000000554
10.0000004848
10.0000004785
10.000000542
10.0000006679
10.00000084
10.0000010498
10.0000012924
10.0000015647
10.0000018592
10.0000021716
10.0000024963
10.0000028256
10.000003153
10.0000034734
10.0000037834
10.0000040809
10.0000043646
10.0000046334
10.0000048866
10.0000051235
10.0000053437
10.0000055467
10.0000057321
10.0000059
10.0000060504
10.0000061835
10.0000062997
10.0000063987
10.0000064804
10.0000065447
10.0000065914
10.0000066203
10.0000066311
10.0000066237
10.0000065978
10.0000065535
10.0000064908
10.0000064099
10.0000063111
10.0000061948
10.0000060619
10.0000059132
10.0000057498
10.0000055729
10.0000053841
10.0000051849
10.000004977
10.0000047622
10.0000045424
10.0000043193
10.0000040949
10.0000038707
10.0000036487
10.0000034302
10.0000032168
10.0000030094
10.0000028091
10.0000026171
10.0000024319
10.0000022593
10.0000020853
10.0000019418
10.0000017571
10.0000016894
10.0000013826
10.0000018053
10.0000002887
10.0000004512
10.0000005298
10.000000557
10.0000005699
10.0000005852
10.0000006079
10.0000006386
10.0000006769
10.0000007215
10.0000007713
10.0000008261
10.000000879
10.0000009328
10.0000009883
10.0000010465
10.0000011072
10.0000011709
10.0000012363
10.0000013046
10.0000013728
10.0000014433
10.0000015113
10.0000015817
10.0000016462
10.000001714
10.0000017722
10.0000018359
10.000001886
10.0000019442
10.0000019865
10.0000020364
10.0000020752
10.0000021097
10.0000021567
10.0000021596
10.000002237
10.0000021798
10.0000023209
10.0000021658
10.0000024045
10.000002123
10.000002467
10.0000020717
10.0000024707
10.0000020366
10.0000023862
10.0000020225
10.0000022247
10.0000019943
10.0000020351
10.0000019078
10.0000018507
10.000001753
10.0000016546
10.0000015427
10.0000014167
10.0000012783
10.0000011296
10.0000009713
10.0000008141
10.0000006757
10.0000005813
10.0000005591
10.0000006209
10.0000007524
10.0000009329
10.0000011521
10.0000014092
10.0000016979
10.0000020128
10.000002346
10.0000026875
10.0000030287
10.0000033622
10.0000036833
10.0000039894
10.0000042794
10.0000045529
10.0000048099
10.0000050501
10.0000052731
10.0000054784
10.0000056653
10.0000058333
10.0000059817
10.0000061105
10.0000062193
10.0000063088
10.0000063788
10.0000064305
10.0000064627
10.0000064756
10.0000064693
10.0000064437
10.0000063991
10.0000063354
10.000006253
10.0000061522
10.0000060334
10.0000058973
10.0000057449
10.0000055769
10.0000053948
10.0000051998
10.0000049936
10.0000047778
10.0000045544
10.0000043252
10.0000040922
10.0000038575
10.0000036229
10.0000033905
10.0000031619
10.000002939
10.0000027228
10.0000025155
10.000002317
10.0000021295
10.0000019523
10.0000017862
10.0000016329
10.0000014849
10.000001362
10.0000012141
10.0000011579
10.0000009191
10.0000012714
10.0000002872
10.0000004546
10.0000005394
10.0000005761
10.0000005953
10.000000614
10.0000006383
10.0000006696
10.0000007079
10.0000007523
10.0000008017
10.0000008564
10.0000009095
10.0000009637
10.0000010198
10.0000010787
10.0000011399
10.0000012043
10.0000012703
10.000001339
10.0000014074
10.0000014778
10.0000015456
10.0000016145
10.0000016786
10.000001743
10.0000018017
10.0000018585
10.0000019124
10.0000019575
10.0000020118
10.000002037
10.000002105
10.0000020922
10.0000022015
10.0000021146
10.0000023155
10.0000020911
10.0000024621
10.0000020084
10.0000026463
10.0000018687
10.0000028419
10.0000017085
10.000002976
10.0000016116
10.0000029475
10.000001654
10.0000027152
10.00000181
10.0000023726
10.000001937
10.0000020742
10.0000019098
10.0000018538
10.0000017411
10.0000016142
10.0000014732
10.0000013116
10.0000011272
10.0000009318
10.0000007592
10.0000006352
10.0000005832
10.0000006077
10.0000006934
10.0000008304
10.0000010331
10.0000013124
10.0000016577
10.0000020473
10.0000024536
10.0000028567
10.0000032428
10.0000036043
10.0000039381
10.0000042451
10.0000045274
10.0000047877
10.0000050278
10.0000052491
10.000005452
10.0000056363
10.0000058012
10.0000059464
10.0000060709
10.0000061747
10.0000062576
10.00000632
10.0000063621
10.0000063848
10.0000063883
10.0000063737
10.0000063391
10.0000062851
10.0000062117
10.0000061194
10.0000060085
10.0000058796
10.0000057333
10.0000055706
10.0000053926
10.0000052006
10.000004996
10.0000047805
10.0000045558
10.000004324
10.0000040869
10.0000038467
10.0000036055
10.0000033653
10.0000031281
10.000002896
10.0000026702
10.0000024532
10.0000022453
10.0000020491
10.0000018635
10.000001692
10.0000015314
10.000001386
10.0000012516
10.0000011293
10.0000010247
10.000000911
10.0000008634
10.0000006851
10.0000009734
10.0000002859
10.0000004653
10.0000005618
10.0000006104
10.0000006339
10.0000006536
10.0000006773
10.0000007074
10.0000007445
10.0000007877
10.0000008363
10.0000008896
10.0000009423
10.0000009966
10.000001053
10.0000011124
10.0000011744
10.0000012395
10.0000013064
10.0000013753
10.000001445
10.0000015145
10.0000015842
10.0000016499
10.0000017177
10.0000017745
10.0000018416
10.0000018823
10.0000019556
10.0000019681
10.0000020646
10.0000020254
10.00000218
10.000002044
10.0000023212
10.0000020056
10.0000025166
10.0000018821
10.000002801
10.0000016404
10.0000032014
10.0000012593
10.0000037082
10.0000007845
10.0000042081
10.0000003847
10.0000044613
10.0000003205
10.0000042242
10.0000007383
10.0000035085
10.0000014336
10.0000026904
10.0000019227
10.0000021787
10.0000019513
10.0000018655
10.0000017436
10.0000015365
10.0000012809
10.0000010927
10.0000009859
10.0000007833
10.000000309
9.99999956632
9.99999875586
9.99999816991
9.99999805385
9.99999846174
9.99999927347
10.0000002759
10.0000012837
10.0000021858
10.0000029385
10.0000035443
10.0000040275
10.0000044178
10.0000047408
10.0000050157
10.0000052559
10.0000054705
10.0000056652
10.0000058425
10.0000060023
10.0000061428
10.0000062611
10.0000063548
10.000006422
10.0000064622
10.0000064758
10.0000064641
10.0000064296
10.0000063736
10.0000062996
10.0000062069
10.000006096
10.0000059679
10.0000058237
10.0000056641
10.0000054899
10.0000053021
10.0000051018
10.0000048903
10.000004669
10.0000044395
10.0000042035
10.000003963
10.0000037199
10.0000034764
10.0000032342
10.0000029956
10.0000027623
10.0000025365
10.0000023191
10.0000021128
10.0000019169
10.0000017353
10.0000015649
10.0000014112
10.0000012679
10.0000011433
10.0000010268
10.000000929
10.0000008405
10.0000007578
10.0000007169
10.0000005911
10.000000821
10.0000002767
10.0000004654
10.0000005654
10.0000006276
10.0000006607
10.0000006863
10.0000007134
10.0000007453
10.0000007831
10.0000008265
10.0000008755
10.0000009275
10.0000009799
10.0000010344
10.0000010915
10.0000011515
10.0000012146
10.0000012802
10.0000013488
10.0000014177
10.0000014898
10.0000015577
10.0000016314
10.0000016922
10.0000017677
10.0000018128
10.0000018961
10.0000019115
10.0000020194
10.0000019795
10.0000021487
10.0000020037
10.0000023066
10.0000019609
10.0000025312
10.0000018116
10.0000028803
10.0000014939
10.0000034308
10.0000009238
10.0000042702
10.0000000201
10.0000054462
9.99999879091
10.0000068419
9.99999748295
10.0000080307
9.99999667642
10.0000083262
9.99999703103
10.0000072537
9.99999868279
10.0000051144
10.000000813
10.0000031537
10.0000018817
10.0000023562
10.0000020341
10.0000014999
10.0000014069
10.0000020113
10.0000018739
9.99999857744
9.99999101165
9.99998059171
9.99997050531
9.99996390209
9.99996245452
9.99996587952
9.99997250298
9.99998026046
9.99998752783
9.99999343112
9.9999977556
10.0000006944
10.0000025961
10.0000038004
10.0000045657
10.0000050605
10.0000053831
10.0000055889
10.0000057112
10.0000057758
10.0000058048
10.0000058172
10.0000058267
10.0000058408
10.0000058611
10.0000058844
10.0000059053
10.0000059174
10.0000059154
10.0000058953
10.0000058547
10.0000057935
10.0000057102
10.0000056039
10.0000054757
10.0000053273
10.0000051604
10.0000049771
10.0000047792
10.0000045688
10.000004348
10.0000041191
10.0000038841
10.0000036454
10.0000034051
10.0000031657
10.0000029289
10.0000026975
10.0000024725
10.0000022571
10.0000020509
10.0000018579
10.0000016758
10.0000015103
10.0000013554
10.0000012203
10.0000010932
10.0000009895
10.0000008888
10.0000008143
10.0000007385
10.0000006843
10.0000006461
10.0000005668
10.0000007385
10.0000002691
10.0000004717
10.0000005869
10.0000006548
10.0000006975
10.0000007273
10.0000007559
10.0000007881
10.0000008256
10.0000008685
10.0000009172
10.0000009668
10.0000010185
10.0000010728
10.0000011304
10.0000011908
10.0000012551
10.0000013211
10.0000013915
10.0000014603
10.0000015351
10.0000016015
10.0000016797
10.0000017359
10.0000018194
10.0000018537
10.0000019529
10.0000019452
10.0000020861
10.0000019974
10.0000022367
10.000001989
10.0000024411
10.0000018793
10.0000027646
10.0000015935
10.0000033152
10.000001005
10.0000042561
9.99999991814
10.0000058152
9.99999809128
10.0000082254
9.99999534142
10.0000115309
9.99999184938
10.0000151867
9.99998860174
10.0000177539
9.99998732193
10.0000175586
9.99998926494
10.00001396
9.99999443802
10.000007746
10.0000000716
10.0000042526
10.0000008258
10.0000011095
10.0000056599
10.000007464
9.99998885994
9.9999349121
9.9998482001
9.99974998274
9.99966880883
9.9996262895
9.99962941953
9.99967072912
9.99973440832
9.99980371332
9.99986621743
9.99991560693
9.99995078496
9.99997380747
9.99998788235
9.99999606966
10.0000007285
10.0000034468
10.0000051779
10.0000064221
10.0000073925
10.0000081469
10.0000086824
10.0000089909
10.0000090836
10.0000089936
10.0000087673
10.0000084534
10.0000080954
10.0000077256
10.0000073659
10.0000070274
10.0000067147
10.0000064263
10.0000061598
10.0000059084
10.0000056649
10.000005425
10.0000051855
10.000004944
10.0000046994
10.0000044513
10.0000042
10.0000039465
10.000003692
10.0000034385
10.0000031872
10.0000029408
10.0000027002
10.0000024686
10.0000022458
10.0000020361
10.0000018368
10.0000016547
10.0000014829
10.0000013324
10.0000011895
10.0000010728
10.0000009574
10.0000008748
10.0000007828
10.000000732
10.0000006582
10.0000006319
10.000000581
10.0000005451
10.0000006388
10.0000002545
10.0000004675
10.0000005905
10.0000006659
10.0000007185
10.0000007589
10.0000007937
10.0000008293
10.0000008685
10.0000009131
10.0000009596
10.0000010084
10.0000010602
10.0000011148
10.0000011732
10.0000012342
10.0000012998
10.0000013664
10.0000014386
10.0000015079
10.000001585
10.0000016515
10.0000017324
10.0000017878
10.0000018747
10.0000019067
10.0000020105
10.0000019978
10.0000021466
10.0000020472
10.0000023037
10.0000020295
10.0000025268
10.0000018924
10.0000029027
10.000001529
10.0000035918
10.0000007336
10.0000048735
9.99999914906
10.0000072092
9.99999621608
10.0000112566
9.99999120785
10.0000177133
9.99998361326
10.0000265984
9.99997429675
10.0000357531
9.99996685989
10.0000406406
9.99996550706
10.0000388003
9.99997112398
10.0000280613
9.99998858988
10.0000095034
9.99999199355
10.0000183553
10.0000328832
9.99994748074
9.99964684306
9.99909454228
9.99838290922
9.99769194776
9.99720129954
9.99701612162
9.99714426143
9.99751241414
9.99800901805
9.99852547233
9.99898366975
9.99934465333
9.99960266255
9.99977240297
9.99987632785
9.99993595531
9.99996800051
9.99998394222
9.99999110758
9.99999396739
9.9999951183
9.99999593394
9.99999700064
9.99999843487
10.0000001157
10.0000018453
10.0000034422
10.0000047834
10.0000058107
10.0000065195
10.0000069402
10.0000071218
10.0000071176
10.0000069792
10.000006748
10.0000064609
10.0000061386
10.0000057978
10.0000054505
10.0000051043
10.0000047637
10.0000044318
10.0000041096
10.0000037988
10.000003499
10.0000032122
10.000002937
10.0000026765
10.0000024278
10.0000021965
10.0000019763
10.000001777
10.0000015866
10.0000014218
10.0000012605
10.000001132
10.0000009966
10.0000009048
10.0000007887
10.0000007329
10.000000625
10.0000006025
10.0000004883
10.0000004925
10.0000003613
10.000000368
10.000000284
10.0000002423
10.0000004703
10.0000006095
10.0000006922
10.0000007484
10.0000007932
10.0000008332
10.0000008721
10.0000009121
10.0000009549
10.0000010005
10.0000010491
10.000001101
10.000001156
10.0000012151
10.0000012768
10.0000013433
10.000001411
10.0000014842
10.0000015551
10.000001633
10.0000017019
10.0000017823
10.0000018419
10.0000019254
10.0000019658
10.0000020593
10.0000020645
10.0000021886
10.0000021273
10.0000023309
10.0000021342
10.0000025268
10.0000020381
10.0000028618
10.0000017303
10.0000035102
10.0000009716
10.0000048181
9.99999929213
10.0000074461
9.99999580999
10.0000125664
9.99998899811
10.0000220986
9.99997656157
10.0000384773
9.99995656207
10.0000618727
9.9999325159
10.0000834534
9.99991786384
10.0000909678
9.99991433469
10.0000939118
9.99992826309
10.0000302161
10.0000081912
10.0001479661
9.99982140145
9.99851302872
9.99578215911