/*--------------------------------*- C++ -*----------------------------------*\
  =========                 |
  \\      /  F ield         | OpenFOAM: The Open Source CFD Toolbox
   \\    /   O peration     | Website:  https://openfoam.org
    \\  /    A nd           | Version:  7
     \\/     M anipulation  |
\*---------------------------------------------------------------------------*/
FoamFile
{
    version     2.0;
    format      ascii;
    class       volScalarField;
    location    "1800";
    object      p;
}
// * * * * * * * * * * * * * * * * * * * * * * * * * * * * * * * * * * * * * //

dimensions      [0 2 -2 0 0 0 0];

internalField   nonuniform List<scalar> 
8192
(
0.000612362963687
0.000440819162783
0.000355218638104
0.000311126642031
0.00028612559084
0.000270912136734
0.000261066642579
0.000254343659936
0.000249535909174
0.000245959278464
0.000243206494898
0.000241023813626
0.000239246559072
0.000237763973552
0.000236499241157
0.000235397677653
0.000234419483182
0.000233535138876
0.000232722389028
0.00023196420528
0.000231247377049
0.000230561512225
0.000229898312873
0.000229251039215
0.000228614104423
0.000227982761589
0.000227352855747
0.000226720621751
0.00022608251394
0.000225435057978
0.000224774716024
0.000224097758642
0.000223400137945
0.000222677357829
0.000221924337353
0.000221135264594
0.000220303438571
0.00021942109856
0.00021847924098
0.000217467426806
0.000216373584615
0.000215183818796
0.000213882236455
0.00021245081285
0.000210869320581
0.000209115354474
0.000207164487991
0.000204990599436
0.000202566402281
0.000199864205026
0.000196856908054
0.000193519222109
0.000189829064696
0.000185769064572
0.000181328081262
0.000176502631318
0.000171298101132
0.000165729618696
0.000159822452128
0.000153611815034
0.000147141999967
0.00014046484479
0.000133637648373
0.000126720761665
0.000119775141901
0.000112860150146
0.000106031796115
9.9341504201e-05
9.28353668959e-05
8.65537842056e-05
8.05313504389e-05
7.47968592836e-05
6.93733316169e-05
6.42780181261e-05
5.95223763229e-05
5.511206378e-05
5.1047013808e-05
4.73216633617e-05
4.3925381472e-05
4.08431102494e-05
3.8056188034e-05
3.55432913403e-05
3.32814139072e-05
3.12468026264e-05
2.941578468e-05
2.77654442587e-05
2.62741310451e-05
2.49218040843e-05
2.36902285247e-05
2.25630513207e-05
2.15257838659e-05
2.05657187553e-05
1.96718037168e-05
1.88344917614e-05
1.80455815206e-05
1.72980581116e-05
1.65859410229e-05
1.59041432727e-05
1.5248343744e-05
1.46148735653e-05
1.40006161608e-05
1.34029203073e-05
1.28195249457e-05
1.22484945788e-05
1.16881638486e-05
1.11370901024e-05
1.05940126985e-05
1.0057818029e-05
9.52750928264e-06
9.00218016586e-06
8.48099192772e-06
7.96315322039e-06
7.44790257491e-06
6.93449353983e-06
6.42218304886e-06
5.91022419284e-06
5.39786579889e-06
4.88436294827e-06
4.36900589505e-06
3.85118031611e-06
3.33048232616e-06
2.80693114435e-06
2.2813615654e-06
1.7561597786e-06
1.23669061571e-06
7.34221673631e-07
2.73111060126e-07
-2.52259313415e-08
0.000463443259385
0.000399935437842
0.000350259941967
0.000317626548975
0.000295724252899
0.000280560846232
0.000269756623789
0.000261846230885
0.000255904257142
0.000251332328434
0.000247734476408
0.000244842646617
0.000242471349288
0.000240489535757
0.000238802817184
0.000237341995538
0.000236055514984
0.000234904393021
0.000233858749546
0.000232895384935
0.000231996059257
0.000231146248372
0.000230334229489
0.000229550397811
0.000228786747154
0.000228036468209
0.00022729363167
0.000226552932365
0.000225809477223
0.00022505860529
0.000224295729158
0.000223516190008
0.000222715120251
0.00022188730914
0.000221027067406
0.000220128088221
0.000219183302443
0.000218184727613
0.00021712331124
0.000215988771194
0.000214769438046
0.0002134521077
0.000212021916005
0.000210462251841
0.000208754729433
0.000206879245566
0.000204814150226
0.000202536560575
0.000200022844694
0.000197249293788
0.000194192986794
0.000190832832286
0.000187150749367
0.000183132927633
0.000178771087818
0.000174063653335
0.00016901673516
0.000163644828105
0.000157971113528
0.000152027272195
0.000145852742577
0.000139493426611
0.000132999937021
0.000126425571699
0.000119824252229
0.000113248656827
0.000106748719667
0.000100370552749
9.41557615449e-05
8.81410783706e-05
8.23582030696e-05
7.68337504085e-05
7.15892300595e-05
6.66410214749e-05
6.20003427757e-05
5.76732458137e-05
5.36606892949e-05
4.99587446226e-05
4.65589718518e-05
4.3448973504e-05
4.06130997595e-05
3.80332519666e-05
3.56897171704e-05
3.356196787e-05
3.16293734312e-05
2.98717889401e-05
2.82700065281e-05
2.6806071225e-05
2.54634746267e-05
2.42272465747e-05
2.30839668822e-05
2.20217187192e-05
2.10300023357e-05
2.00996247617e-05
1.92225773235e-05
1.83919099215e-05
1.76016080347e-05
1.68464765203e-05
1.61220323894e-05
1.54244077655e-05
1.47502631912e-05
1.40967110805e-05
1.34612486027e-05
1.28416992434e-05
1.22361620746e-05
1.16429678684e-05
1.10606411361e-05
1.04878673217e-05
9.92346441965e-06
9.36635844465e-06
8.81556229588e-06
8.27015774352e-06
7.72928049035e-06
7.19210854317e-06
6.65785458637e-06
6.12576362232e-06
5.59511813648e-06
5.06525440096e-06
4.5355958481e-06
4.00571288358e-06
3.47542430087e-06
2.94496463353e-06
2.415257412e-06
1.8883611728e-06
1.36820300247e-06
8.61836730973e-07
3.81111381986e-07
2.23228339644e-08
0.000380479966481
0.000357820816928
0.00033184259849
0.000310622433069
0.000294520172691
0.000282225483514
0.000272718226847
0.000265270441331
0.000259359984881
0.000254607654508
0.000250735219959
0.000247536738521
0.000244858486101
0.000242584728704
0.000240627560428
0.000238919606678
0.000237408755677
0.00023605433003
0.000234824283774
0.000233693132985
0.000232640413839
0.000231649522499
0.000230706833119
0.000229801019984
0.000228922530227
0.000228063168372
0.000227215764227
0.000226373901977
0.000225531694983
0.000224683595493
0.000223824228454
0.000222948241983
0.000222050168768
0.00022112429401
0.000220164526078
0.000219164267432
0.000218116283826
0.000217012571368
0.000215844221744
0.000214601288052
0.000213272655129
0.000211845921383
0.000210307301592
0.000208641564391
0.000206832021432
0.000204860589743
0.000202707951142
0.000200353834449
0.000197777443407
0.000194958047287
0.00019187573819
0.000188512342465
0.00018485245234
0.000180884524743
0.000176601978112
0.000172004210149
0.000167097454894
0.000161895394777
0.000156419437191
0.000150698565683
0.000144768696216
0.000138671527595
0.00013245296462
0.000126161286436
0.000119845285445
0.000113552594266
0.000107328365956
0.000101214343978
9.52482805421e-05
8.94636329772e-05
8.38894315358e-05
7.85502293767e-05
7.34660714697e-05
6.86524518386e-05
6.41202605533e-05
5.98757520995e-05
5.59205851233e-05
5.22519863788e-05
4.88630745264e-05
4.57433506121e-05
4.28793288854e-05
4.02552570497e-05
3.78538626846e-05
3.56570657879e-05
3.36466099419e-05
3.18045833237e-05
3.01138181465e-05
2.85581720881e-05
2.71227043341e-05
2.57937643385e-05
2.4559012271e-05
2.34073895108e-05
2.23290547263e-05
2.13152985732e-05
2.03584467657e-05
1.94517590198e-05
1.85893288595e-05
1.77659878391e-05
1.69772161314e-05
1.62190607066e-05
1.54880614089e-05
1.47811849661e-05
1.40957664945e-05
1.34294580257e-05
1.27801833726e-05
1.21460987194e-05
1.15255582622e-05
1.0917084326e-05
1.03193414222e-05
9.73111380816e-06
9.15128623522e-06
8.5788276703e-06
8.01277800059e-06
7.45223787656e-06
6.89636223207e-06
6.34435830599e-06
5.79548966339e-06
5.24908833524e-06
4.7045784255e-06
4.1615158884e-06
3.61965155534e-06
3.07902754342e-06
2.54012236004e-06
2.00406710084e-06
1.47296335289e-06
9.50268605059e-07
4.40525906541e-07
3.54267366144e-08
0.000335908708057
0.000327531169496
0.000313351614869
0.000299572769574
0.000288157184961
0.000278893471831
0.000271328653726
0.000265094418026
0.000259912630571
0.000255570747093
0.000251903017805
0.000248778368657
0.000246092322167
0.000243761221392
0.000241717865957
0.000239908111965
0.000238288187434
0.000236822563694
0.000235482266294
0.000234243534551
0.000233086756914
0.000231995623802
0.000230956451237
0.000229957638321
0.000228989229295
0.000228042557226
0.000227109951685
0.000226184493948
0.000225259810209
0.000224329895118
0.000223388956333
0.00022243127427
0.000221451072673
0.000220442396213
0.00021939899196
0.00021831419248
0.000217180798874
0.000215990963102
0.00021473606976
0.000213406618954
0.000211992113324
0.000210480954644
0.000208860357776
0.00020711629328
0.000205233473373
0.000203195400119
0.000200984497896
0.000198582354564
0.00019597009467
0.000193128903136
0.000190040706621
0.000186689003253
0.000183059810458
0.000179142680661
0.000174931719757
0.000170426537518
0.000165633058714
0.000160564121741
0.000155239780672
0.000149687214338
0.000143940154141
0.000138037797377
0.000132023274808
0.000125941853621
0.000119839121498
0.000113759384869
0.000107744461721
0.000101832881215
9.60594222977e-05
9.04549134669e-05
8.50461734374e-05
7.98560027998e-05
7.4903167609e-05
7.02023480687e-05
6.57640575397e-05
6.15945682603e-05
5.76959012159e-05
5.40659403859e-05
5.06987124899e-05
4.75848399137e-05
4.47121379361e-05
4.20663006797e-05
3.96316091184e-05
3.73915998632e-05
3.53296491781e-05
3.34294468996e-05
3.16753530907e-05
3.0052644167e-05
2.85476632336e-05
2.71478930764e-05
2.58419702043e-05
2.46196566926e-05
2.34717836631e-05
2.23901774779e-05
2.1367576851e-05
2.03975469251e-05
1.9474394361e-05
1.85930861867e-05
1.7749173964e-05
1.69387241722e-05
1.61582550702e-05
1.54046800304e-05
1.46752570192e-05
1.3967543843e-05
1.32793586381e-05
1.26087451203e-05
1.19539420714e-05
1.13133566122e-05
1.06855408312e-05
1.00691714225e-05
9.46303204699e-06
8.86599822724e-06
8.27702469069e-06
7.69513519533e-06
7.11941504713e-06
6.5490066956e-06
5.98310909032e-06
5.42098180083e-06
4.8619554522e-06
4.30545072998e-06
3.75100943712e-06
3.19834288356e-06
2.64740553717e-06
2.0985030226e-06
1.55242646744e-06
1.01047564424e-06
4.73614428972e-07
3.76227288778e-08
0.000308272279453
0.000306315665792
0.000298528129194
0.000289346149994
0.000281074552685
0.000274050567626
0.000268117153995
0.0002630689827
0.000258737725415
0.000254993722059
0.00025173572067
0.000248882483136
0.000246367388966
0.000244135057431
0.000242139113829
0.000240340582701
0.000238706641325
0.000237209603409
0.000235826068918
0.000234536205638
0.000233323140683
0.000232172445581
0.000231071701111
0.00023001012974
0.000228978284784
0.00022796778675
0.00022697109957
0.000225981335381
0.000224992085685
0.000223997274624
0.000222991026617
0.000221967545172
0.000220920999934
0.000219845419195
0.000218734585422
0.000217581931993
0.000216380439682
0.000215122532149
0.000213799970321
0.000212403746646
0.000210923981382
0.000209349825046
0.000207669373281
0.000205869603679
0.000203936347598
0.000201854314458
0.000199607190133
0.000197177834559
0.000194548604388
0.000191701823039
0.000188620410176
0.000185288665545
0.00018169317919
0.000177823817661
0.000173674720241
0.000169245236207
0.000164540739242
0.000159573256012
0.000154361828478
0.000148932499491
0.000143317800989
0.000137555677774
0.000131687906164
0.000125758215155
0.000119810402931
0.000113886720534
0.000108026734096
0.000102266646604
9.6638970038e-05
9.11724534823e-05
8.58921214451e-05
8.08193271061e-05
7.59717630147e-05
7.13634048316e-05
6.70043968818e-05
6.29009239798e-05
5.90551404124e-05
5.54652308941e-05
5.21256547641e-05
4.90275830614e-05
4.6159493881e-05
4.35078605264e-05
4.10578565109e-05
3.87940106544e-05
3.67007661633e-05
3.47629214472e-05
3.29659504174e-05
3.12962137506e-05
2.97410794842e-05
2.82889733436e-05
2.69293777954e-05
2.56527960511e-05
2.44506937889e-05
2.33154282805e-05
2.22401718106e-05
2.12188341966e-05
2.02459874984e-05
1.93167948752e-05
1.84269446254e-05
1.75725899137e-05
1.67502942465e-05
1.59569825452e-05
1.51898974796e-05
1.44465606694e-05
1.37247383024e-05
1.30224107309e-05
1.23377456119e-05
1.16690741943e-05
1.10148703922e-05
1.03737323238e-05
9.74436605441e-06
9.12557132054e-06
8.51622909074e-06
7.91529086392e-06
7.32176971667e-06
6.73473318817e-06
6.15329827758e-06
5.57662901798e-06
5.00393748923e-06
4.43448965567e-06
3.86761831229e-06
3.30274637647e-06
2.7394237819e-06
2.17737447216e-06
1.61651413944e-06
1.05675806442e-06
4.97064930566e-07
3.80935724807e-08
0.000289909541761
0.000290819049512
0.0002867891021
0.000280664990816
0.000274578973508
0.000269152992936
0.00026443759406
0.000260337847014
0.000256747115593
0.000253576876298
0.000250757731589
0.000248234850423
0.000245963767198
0.00024390748083
0.000242034603462
0.000240318177473
0.000238734880672
0.000237264450129
0.000235889231187
0.000234593803081
0.000233364656604
0.000232189911394
0.000231059066006
0.000229962776487
0.000228892660051
0.000227841120831
0.000226801196601
0.000225766417436
0.000224730680093
0.00022368813662
0.000222633089886
0.000221559895689
0.000220462869633
0.000219336196889
0.000218173843148
0.000216969465329
0.000215716320805
0.000214407174346
0.000213034202373
0.000211588894909
0.000210061956579
0.000208443209584
0.000206721503609
0.000204884640705
0.00020291932691
0.00020081116734
0.000198544726694
0.000196103682273
0.000193471099354
0.000190629857096
0.000187563243651
0.000184255720596
0.000180693830257
0.000176867192213
0.000172769517384
0.000168399568397
0.000163762009053
0.000158868093209
0.000153736118761
0.000148391516247
0.000142866401975
0.000137198475829
0.000131429309805
0.000125602280397
0.000119760516257
0.000113945196816
0.00010819445852
0.000102542846775
9.70211441122e-05
9.16564519317e-05
8.64723456428e-05
8.1489001686e-05
7.67232414697e-05
7.21884694129e-05
6.78945163223e-05
6.38474428796e-05
6.00493938654e-05
5.64985998841e-05
5.31895928716e-05
5.01136472949e-05
4.72594028093e-05
4.46135868991e-05
4.21617465578e-05
3.98889131057e-05
3.77801521857e-05
3.58209803208e-05
3.3997652128e-05
3.22973360629e-05
3.07082020723e-05
2.92194445824e-05
2.78212611261e-05
2.65048028084e-05
2.52621086179e-05
2.40860321146e-05
2.29701661808e-05
2.19087695109e-05
2.08966969942e-05
1.99293351848e-05
1.90025433375e-05
1.81126001045e-05
1.72561556812e-05
1.6430189081e-05
1.56319701018e-05
1.48590255549e-05
1.41091092937e-05
1.33801756275e-05
1.26703557096e-05
1.19779365397e-05
1.13013422441e-05
1.06391173403e-05
9.98991172137e-06
9.35246713531e-06
8.72560496773e-06
8.10821517901e-06
7.49924630245e-06
6.89769647797e-06
6.3026056177e-06
5.7130489608e-06
5.12813254654e-06
4.54699145533e-06
3.96879195918e-06
3.39273828719e-06
2.81808144949e-06
2.24411456572e-06
1.67009732056e-06
1.09494312336e-06
5.16332935071e-07
3.89504122633e-08
0.000277018364328
0.000279159076738
0.000277374836409
0.000273367105206
0.000268887018387
0.000264651893849
0.000260851392175
0.000257480135103
0.000254480937049
0.000251793510008
0.000249366943187
0.00024716051705
0.00024514165583
0.000243283760663
0.000241564565048
0.000239965013857
0.000238468524346
0.000237060494323
0.000235727960992
0.000234459349211
0.000233244272867
0.000232073368785
0.000230938151889
0.000229830885528
0.0002287444636
0.000227672302523
0.000226608243096
0.000225546454807
0.00022448134785
0.000223407494196
0.000222319549539
0.000221212178043
0.000220079978657
0.000218917411789
0.000217718725157
0.000216477877638
0.000215188460048
0.000213843611926
0.000212435933636
0.000210957393602
0.000209399231216
0.000207751857225
0.000206004755297
0.000204146391351
0.000202164141283
0.000200044253206
0.000197771866944
0.000195331120576
0.00019270537928
0.00018987762237
0.000186831016091
0.000183549679096
0.0001800196154
0.000176229754459
0.000172173015314
0.00016784731627
0.000163256480167
0.000158411006672
0.000153328651635
0.000148034658865
0.000142561400763
0.000136947224332
0.000131234525336
0.000125467374555
0.000119689188702
0.000113940878109
0.000108259785779
0.000102679296347
9.72288580427e-05
9.19342496118e-05
8.68178706687e-05
8.18989512443e-05
7.71936321696e-05
7.27148942175e-05
6.84723465677e-05
6.44719414877e-05
6.07157334853e-05
5.7201811154e-05
5.39244889471e-05
5.08747729492e-05
4.80410412747e-05
4.54098338343e-05
4.29666388478e-05
4.06965874733e-05
3.85850063249e-05
3.6617814466e-05
3.47817775908e-05
3.30646456725e-05
3.14552039098e-05
2.99432642479e-05
2.85196195054e-05
2.71759764276e-05
2.59048789701e-05
2.46996291699e-05
2.35542101089e-05
2.24632134958e-05
2.14217731107e-05
2.04255045326e-05
1.94704510947e-05
1.85530357268e-05
1.76700182151e-05
1.68184573479e-05
1.5995677416e-05
1.51992385524e-05
1.44269104388e-05
1.36766489408e-05
1.29465752842e-05
1.22349574153e-05
1.15401932366e-05
1.08607954301e-05
1.01953776216e-05
9.54264165585e-06
8.90136579039e-06
8.27039363474e-06
7.64862370943e-06
7.03499954232e-06
6.42850029854e-06
5.8281320254e-06
5.23291968537e-06
4.64190011875e-06
4.05411561789e-06
3.46860596363e-06
2.88439116905e-06
2.30042189396e-06
1.71543786322e-06
1.12760695971e-06
5.33771353283e-07
4.1238635509e-08
0.000267555194464
0.000270163229667
0.000269729417996
0.000267205159736
0.000263941171103
0.000260633075982
0.000257546751306
0.000254744828874
0.00025221322898
0.000249916570656
0.00024781861643
0.000245888197668
0.000244099858147
0.000242432934081
0.000240870415911
0.000239397997013
0.000238003373732
0.000236675756542
0.000235405533538
0.000234184035982
0.000233003369384
0.000231856285703
0.000230736081134
0.000229636509924
0.000228551708486
0.00022747612702
0.00022640446575
0.000225331611532
0.000224252577283
0.000223162447688
0.000222056322479
0.000220929259966
0.000219776219881
0.000218592004682
0.000217371198323
0.000216108101516
0.000214796662365
0.000213430401339
0.000212002329521
0.000210504859392
0.00020892970783
0.000207267792017
0.000205509120565
0.000203642684946
0.000201656360521
0.000199536832626
0.000197269571249
0.000194838887378
0.000192228112822
0.000189419949438
0.000186397027086
0.000183142686832
0.000179641965766
0.000175882712651
0.000171856731968
0.000167560863152
0.000162997953299
0.000158177729449
0.000153117542179
0.000147842800947
0.000142386749722
0.000136789245068
0.000131094516779
0.00012534834299
0.00011959531564
0.000113876769148
0.000108229755576
0.000102686861183
9.7276480377e-05
9.20233072799e-05
8.69487792472e-05
8.20713746652e-05
7.74067319058e-05
7.29675659646e-05
6.87633854608e-05
6.48000901557e-05
6.10796059222e-05
5.75997300796e-05
5.43543031347e-05
5.13337225131e-05
4.85257158119e-05
4.59162340256e-05
4.34903220732e-05
4.12328616503e-05
3.91291344248e-05
3.71652002785e-05
3.53281151224e-05
3.36060255538e-05
3.19881781094e-05
3.0464874967e-05
2.90273999575e-05
2.76679312751e-05
2.63794512598e-05
2.51556593287e-05
2.39908912148e-05
2.28800458726e-05
2.18185203104e-05
2.08021520332e-05
1.98271684671e-05
1.88901426388e-05
1.79879543522e-05
1.71177561567e-05
1.62769434484e-05
1.54631281321e-05
1.46741153245e-05
1.39078826585e-05
1.31625617902e-05
1.24364217731e-05
1.17278539915e-05
1.10353583919e-05
1.03575307681e-05
9.69305088903e-06
9.040671273e-06
8.3992064374e-06
7.76752246884e-06
7.14452678269e-06
6.52915795051e-06
5.92037545276e-06
5.31714908887e-06
4.71844737046e-06
4.1232231155e-06
3.53039167385e-06
2.93879064377e-06
2.34709557139e-06
1.7536390571e-06
1.15604632153e-06
5.50612098802e-07
4.55586902614e-08
0.000260354820891
0.000263075436445
0.000263452751437
0.000261972343524
0.000259640051031
0.000257072748836
0.000254564033867
0.00025222180631
0.000250067209978
0.000248087497132
0.000246260095146
0.000244562176365
0.000242973752384
0.000241478162369
0.000240061664856
0.000238712828838
0.000237421974353
0.000236180729069
0.000234981698872
0.000233818229884
0.000232684237439
0.000231574081595
0.000230482473913
0.000229404404766
0.000228335083857
0.000227269890818
0.000226204328302
0.000225133977406
0.000224054454656
0.000222961373382
0.000221850302026
0.000220716721364
0.000219555979852
0.00021836324624
0.000217133458579
0.000215861268562
0.000214540980042
0.00021316648042
0.000211731163492
0.000210227842348
0.000208648651157
0.000206984935249
0.000205227130343
0.000203364634199
0.00020138567835
0.000199277214321
0.00019702483845
0.000194612791854
0.000192024085154
0.000189240806448
0.000186244667781
0.000183017820361
0.000179543918238
0.000175809344752
0.000171804468607
0.000167524809477
0.000162972079386
0.000158155162077
0.000153091065915
0.000147805652894
0.000142333634736
0.000136717280081
0.000131003734281
0.000125241550559
0.00011947738545
0.000113753633701
0.000108107460375
0.000102570908139
9.717150803e-05
9.19330423209e-05
8.68761560205e-05
8.20187436866e-05
7.73761094542e-05
7.29608701581e-05
6.87825810391e-05
6.48471776023e-05
6.11564457761e-05
5.77077568845e-05
5.44942229532e-05
5.15052877977e-05
4.87276367444e-05
4.6146236482e-05
4.37453217135e-05
4.15092035807e-05
3.94228481975e-05
3.74722326627e-05
3.56445194241e-05
3.39281003237e-05
3.23125576245e-05
3.07885788904e-05
2.93478513258e-05
2.79829516357e-05
2.66872405259e-05
2.54547663039e-05
2.42801792399e-05
2.31586567246e-05
2.208583848e-05
2.10577707173e-05
2.00708580734e-05
1.91218221944e-05
1.82076659599e-05
1.73256424562e-05
1.64732279481e-05
1.5648098199e-05
1.4848107602e-05
1.40712706579e-05
1.33157454114e-05
1.25798185121e-05
1.18618916094e-05
1.11604688302e-05
1.04741451126e-05
9.80159519242e-06
9.14156305154e-06
8.49285164871e-06
7.85431274732e-06
7.22483664091e-06
6.60334151246e-06
5.98876203079e-06
5.38003645466e-06
4.77609081061e-06
4.17581715729e-06
3.57803973253e-06
2.98145630257e-06
2.38453020178e-06
1.78529086583e-06
1.18098769021e-06
5.67572941861e-07
5.23032827299e-08
0.000254720565607
0.000257392924752
0.000258253178531
0.000257507660828
0.000255891181745
0.000253922925923
0.000251892280171
0.000249932272213
0.000248090145562
0.000246372539021
0.000244769625191
0.000243266591463
0.000241848521848
0.000240502134794
0.000239216143466
0.000237981081224
0.000236788969548
0.000235632983107
0.000234507165302
0.00023340620429
0.000232325263052
0.000231259852401
0.000230205736031
0.000229158858465
0.00022811528876
0.000227071177689
0.000226022716822
0.000224966102068
0.000223897500775
0.000222813021363
0.00022170868082
0.000220580370764
0.000219423821187
0.000218234561003
0.000217007874373
0.0002157387517
0.000214421833928
0.000213051348576
0.000211621035657
0.000210124061414
0.000208552917719
0.000206899305267
0.00020515399959
0.000203306701152
0.000201345874967
0.000199258592484
0.000197030399871
0.000194645252602
0.00019208557478
0.000189332517403
0.000186366492056
0.000183168030753
0.000179718958723
0.000176003774867
0.000172011059622
0.000167734742538
0.00016317519948
0.00015834032946
0.000153246766951
0.00014792103823
0.000142399924451
0.00013672911706
0.000130959922581
0.00012514488127
0.000119333673423
0.000113570376361
0.000107892597276
0.000102332001687
9.69153814448e-05
9.16657382898e-05
8.66030696728e-05
8.17448360111e-05
7.71061669527e-05
7.26997580596e-05
6.85353830986e-05
6.46191282182e-05
6.09526413142e-05
5.7532724027e-05
5.43514756866e-05
5.1397001317e-05
4.86545146284e-05
4.61075779847e-05
4.37392416232e-05
4.15329338281e-05
3.94730550149e-05
3.75453028223e-05
3.57367914322e-05
3.40360342549e-05
3.24328483395e-05
3.09182226104e-05
2.94841767726e-05
2.81236260308e-05
2.68302588901e-05
2.55984305194e-05
2.44230715331e-05
2.32996108019e-05
2.22239104314e-05
2.11922110232e-05
2.02010854783e-05
1.92473998481e-05
1.83282799641e-05
1.74410828141e-05
1.65833718044e-05
1.57528952209e-05
1.49475673126e-05
1.41654515381e-05
1.3404745581e-05
1.26637678157e-05
1.19409449409e-05
1.12348005499e-05
1.05439444137e-05
9.86706229098e-06
9.20290606669e-06
8.55028403012e-06
7.90805106386e-06
7.27509846836e-06
6.65034300759e-06
6.03271453178e-06
5.42114103925e-06
4.81452913201e-06
4.2117360458e-06
3.61152618693e-06
3.01249936253e-06
2.41296896731e-06
1.81075804134e-06
1.20287965688e-06
5.85099603959e-07
6.17304615539e-08
0.000250217320873
0.0002527727352
0.000253914235651
0.000253685541087
0.00025261853481
0.000251136409525
0.000249506217702
0.000247870547647
0.000246293874521
0.000244798205171
0.000243384986278
0.00024204701054
0.000240774327775
0.000239556911923
0.000238385692489
0.000237252815901
0.000236151577289
0.000235076235862
0.000234021810548
0.0002329838951
0.000231958504704
0.000230941954192
0.000229930763398
0.000228921584055
0.000227911142755
0.000226896198864
0.000225873505486
0.00022483977381
0.000223791645795
0.00022272566709
0.000221638259303
0.000220525691014
0.000219384046527
0.000218209191333
0.000216996733175
0.000215741977391
0.00021443987502
0.000213084961764
0.000211671285499
0.000210192319574
0.000208640858718
0.000207008894195
0.000205287465293
0.000203466485859
0.000201534548511
0.000199478716724
0.000197284327931
0.000194934850339
0.000192411861493
0.000189695241921
0.000186763688829
0.000183595630965
0.000180170546199
0.000176470552895
0.000172482024376
0.000168196976519
0.000163614187763
0.000158740333769
0.000153591508989
0.000148195007801
0.000142590301983
0.000136827703777
0.000130964204261
0.000125057793749
0.000119162280035
0.000113324074544
0.000107581498684
0.000101965935655
9.65035249232e-05
9.12166064466e-05
8.61246711304e-05
8.12448825316e-05
7.65923419017e-05
7.21800043974e-05
6.80180553057e-05
6.41128656224e-05
6.04659439162e-05
5.70733419173e-05
5.39257959869e-05
5.10096074185e-05
4.83080148846e-05
4.58027022602e-05
4.34751321629e-05
4.13075316759e-05
3.92834959043e-05
3.73882665509e-05
3.56087790521e-05
3.39335694285e-05
3.23526116125e-05
3.08571322412e-05
2.94394300966e-05
2.80927134451e-05
2.68109599669e-05
2.558879924e-05
2.4421415552e-05
2.3304468023e-05
2.22340250174e-05
2.12065101199e-05
2.0218657394e-05
1.92674740482e-05
1.83502090234e-05
1.74643263144e-05
1.66074820983e-05
1.57775049265e-05
1.49723784004e-05
1.41902258565e-05
1.3429296683e-05
1.26879539533e-05
1.19646631137e-05
1.12579814977e-05
1.05665484645e-05
9.8890759692e-06
9.22433937187e-06
8.5711682713e-06
7.92843709798e-06
7.29505510666e-06
6.66995522627e-06
6.05208090352e-06
5.44036949206e-06
4.83372971048e-06
4.23100888754e-06
3.63094268491e-06
3.03207523936e-06
2.43263135019e-06
1.8303169664e-06
1.22202778544e-06
6.03471074271e-07
7.3992395708e-08
0.000246561964286
0.000248975206048
0.000250272691163
0.000250406394553
0.000249760215591
0.000248672336937
0.000247379128523
0.000246021935642
0.000244674867483
0.000243371126879
0.000242121519201
0.000240925722258
0.000239778554846
0.000238673215096
0.000237602819138
0.000236561039458
0.000235542292809
0.000234541719547
0.000233555079209
0.000232578623596
0.000231608975083
0.000230643020841
0.000229677825312
0.000228710559617
0.000227738445383
0.000226758711821
0.000225768557688
0.000224765114318
0.00022374542055
0.000222706396538
0.000221644817997
0.000220557289527
0.000219440215895
0.000218289770158
0.000217101857335
0.000215872072219
0.000214595649539
0.000213267404291
0.000211881659432
0.000210432157471
0.00020891195166
0.00020731327187
0.000205627359952
0.000203844270339
0.00020195263486
0.000199939398242
0.000197789544985
0.000195485861838
0.000193008813664
0.0001903366488
0.000187445876569
0.00018431224328
0.00018091223707
0.000177224967906
0.000173234069904
0.000168929236473
0.000164307301923
0.000159373341795
0.000154142539909
0.000148642884464
0.000142917177571
0.000137021841702
0.000131021509214
0.000124981478658
0.000118961030103
0.000113009647997
0.000107166601817
0.000101463037393
9.5924536531e-05
9.05729220994e-05
8.54273411004e-05
8.05047817164e-05
7.58204274831e-05
7.13876596075e-05
6.72172765746e-05
6.33160726684e-05
5.9685387669e-05
5.63202692359e-05
5.32096278726e-05
5.03373686386e-05
4.76841367569e-05
4.5229179739e-05
4.29519222823e-05
4.08330563034e-05
3.88551383381e-05
3.70027966338e-05
3.52626819038e-05
3.36232794843e-05
3.2074666766e-05
3.06082667373e-05
2.92166236138e-05
2.78932106073e-05
2.66322709623e-05
2.54286891315e-05
2.42778874075e-05
2.31757432186e-05
2.21185227962e-05
2.11028276589e-05
2.01255510595e-05
1.91838421822e-05
1.82750763718e-05
1.73968300965e-05
1.65468596315e-05
1.57230827029e-05
1.49235624867e-05
1.41464935019e-05
1.33901890201e-05
1.26530696972e-05
1.19336531687e-05
1.12305444024e-05
1.05424266062e-05
9.86805250954e-06
9.20623581407e-06
8.55584258669e-06
7.91578228603e-06
7.28499800119e-06
6.66245524669e-06
6.04712829682e-06
5.43798239241e-06
4.83394910854e-06
4.23389043773e-06
3.63654449513e-06
3.04044199789e-06
2.44377842611e-06
1.84422439107e-06
1.23866165844e-06
6.22850160273e-07
8.91478591392e-08
0.000243562956255
0.000245828818773
0.000247203622171
0.000247589898885
0.000247265059036
0.000246496120833
0.000245486588713
0.000244369808501
0.000243223591766
0.000242088497353
0.000240982602025
0.000239911494068
0.000238874386573
0.000237867602474
0.000236886440484
0.000235926102217
0.000234982100328
0.000234050393354
0.00023312738567
0.000232209867848
0.000231294936742
0.000230379914602
0.000229462275666
0.000228539582992
0.000227609436972
0.000226669432825
0.000225717123083
0.000224749981718
0.000223765378586
0.000222760553658
0.000221732591856
0.000220678397213
0.000219594665199
0.000218477851978
0.000217324139255
0.000216129393118
0.000214889114913
0.000213598381625
0.00021225177252
0.000210843277769
0.000209366183685
0.00020781292785
0.000206174916456
0.000204442296039
0.000202603674003
0.000200645789115
0.000198553148079
0.000196307671724
0.000193888437392
0.000191271659687
0.000188431101312
0.000185339106851
0.000181968343339
0.000178294075865
0.00017429648258
0.000169962388372
0.000165286209567
0.000160270838829
0.000154929851709
0.000149291540273
0.000143402664686
0.00013732768849
0.00013114150273
0.000124919179682
0.000118727197703
0.000112619042847
0.000106635160484
0.000100806494597
9.51582548559e-05
8.97119684484e-05
8.44866519247e-05
7.9499197315e-05
7.4764886772e-05
7.02976325606e-05
6.61090238427e-05
6.22063880659e-05
5.85907967638e-05
5.52559112987e-05
5.21881785745e-05
4.93683278205e-05
4.67736312111e-05
4.43802299795e-05
4.21650010994e-05
4.01067502166e-05
3.81867726342e-05
3.63889510219e-05
3.46995766793e-05
3.31070429897e-05
3.16015076658e-05
3.01745762713e-05
2.88190295121e-05
2.75285993443e-05
2.62977903209e-05
2.51217392335e-05
2.3996105568e-05
2.29169859998e-05
2.18808473259e-05
2.08844733974e-05
1.99249226607e-05
1.89994937424e-05
1.81056971707e-05
1.72412318035e-05