/*--------------------------------*- C++ -*----------------------------------*\
  =========                 |
  \\      /  F ield         | OpenFOAM: The Open Source CFD Toolbox
   \\    /   O peration     | Website:  https://openfoam.org
    \\  /    A nd           | Version:  7
     \\/     M anipulation  |
\*---------------------------------------------------------------------------*/
FoamFile
{
    version     2.0;
    format      ascii;
    class       surfaceScalarField;
    location    "1800";
    object      phi;
}
// * * * * * * * * * * * * * * * * * * * * * * * * * * * * * * * * * * * * * //

dimensions      [0 3 -1 0 0 0 0];

internalField   nonuniform List<scalar> 
16192
(
6.92916512622e-10
2.44583484457e-10
4.93550137471e-10
1.99366361312e-10
3.64808964356e-10
1.28741160702e-10
2.82224491801e-10
8.25844622746e-11
2.27599846423e-10
5.46246370134e-11
1.89990579094e-10
3.7609260651e-11
1.63053145807e-10
2.69374280537e-11
1.43074057254e-10
1.9979084563e-11
1.27818361073e-10
1.52556932608e-11
1.15893129186e-10
1.19252299286e-11
1.06397608582e-10
9.49551953486e-12
9.87280927171e-11
7.66951567051e-12
9.2466387439e-11
6.26170595982e-12
8.73141620663e-11
5.15222698204e-12
8.3053083857e-11
4.26108079208e-12
7.95198424917e-11
3.53324501404e-12
7.65900264174e-11
2.92982086283e-12
7.41674174145e-11
2.42261505201e-12
7.2176696573e-11
1.99072824459e-12
7.05583570207e-11
1.61834845327e-12
6.92650801118e-11
1.2932874175e-12
6.8259105484e-11
1.00598690983e-12
6.75102903268e-11
7.48829338513e-13
6.69946566933e-11
5.15649903554e-13
6.66932902359e-11
3.0138496051e-13
6.65914968223e-11
1.0181436568e-13
6.66781505611e-11
-8.66301709956e-14
6.69451857696e-11
-2.67008777326e-13
6.7387197319e-11
-4.41982060505e-13
6.80011251224e-11
-6.1389497235e-13
6.87860019171e-11
-7.84840394054e-13
6.97427481402e-11
-9.56705926784e-13
7.08739993263e-11
-1.13120673037e-12
7.21839539943e-11
-1.30990568474e-12
7.36782291926e-11
-1.49422139172e-12
7.53637117271e-11
-1.68542350424e-12
7.72483907519e-11
-1.88461446088e-12
7.93411571597e-11
-2.09269590633e-12
8.1651551869e-11
-2.31031798786e-12
8.41894445058e-11
-2.53780934604e-12
8.69646207979e-11
-2.775086253e-12
8.99862578263e-11
-3.02154004232e-12
9.32622659075e-11
-3.27590418836e-12
9.679848176e-11
-3.5361051396e-12
1.00597704616e-10
-3.79910572898e-12
1.04658582896e-10
-4.06075525861e-12
1.08974377904e-10
-4.31566700185e-12
1.13531659165e-10
-4.55714932981e-12
1.18309014129e-10
-4.77722056726e-12
1.23275885811e-10
-4.9667363931e-12
1.28391671966e-10
-5.11565186144e-12
1.33605229593e-10
-5.21342618414e-12
1.38854917301e-10
-5.24956111439e-12
1.44069283378e-10
-5.21424609359e-12
1.49168466632e-10
-5.09907160509e-12
1.54066334435e-10
-4.89776584328e-12
1.58673330745e-10
-4.60690531215e-12
1.62899946272e-10
-4.22653645342e-12
1.66660633111e-10
-3.76062072404e-12
1.69877875104e-10
-3.2171897552e-12
1.72486012404e-10
-2.60810008877e-12
1.74434366529e-10
-1.94833297098e-12
1.75689264399e-10
-1.2548938158e-12
1.7623473634e-10
-5.45485479456e-13
1.76071908075e-10
1.62797128785e-13
1.75217346722e-10
8.54513526773e-13
1.73700781258e-10
1.51650237191e-12
1.71562622261e-10
2.1380826303e-12
1.68851614088e-10
2.71092049759e-12
1.65622824767e-10
3.22869231347e-12
1.61936030055e-10
3.6866899286e-12
1.57854435014e-10
4.08148387461e-12
1.5344360438e-10
4.41071408625e-12
1.48770450742e-10
4.67303269983e-12
1.43902145837e-10
4.86818038364e-12
1.38904877121e-10
4.997141587e-12
1.33842447836e-10
5.06230045838e-12
1.28774800332e-10
5.06751809041e-12
1.23756597816e-10
5.01807354207e-12
1.18836020147e-10
4.92045027729e-12
1.14053904441e-10
4.78199086483e-12
1.09443309143e-10
4.61047399469e-12
1.05029512495e-10
4.41367961481e-12
1.00830398545e-10
4.19900187678e-12
9.6857141594e-11
3.97315025276e-12
9.31150842026e-11
3.74195642875e-12
8.96047051312e-11
3.5102839589e-12
8.63225916418e-11
3.28202431046e-12
8.32623520701e-11
3.06015621485e-12
8.04154294179e-11
2.8468450116e-12
7.77717956688e-11
2.6435615763e-12
7.53205232202e-11
2.45120553226e-12
7.30502390443e-11
2.27022220549e-12
7.09494744142e-11
2.10070735185e-12
6.90069247331e-11
1.94249677375e-12
6.72116355076e-11
1.79524043255e-12
6.55531286487e-11
1.65846187725e-12
6.40214825033e-11
1.53160473623e-12
6.26073762453e-11
1.41406815021e-12
6.13021080443e-11
1.30523318102e-12
6.00975939292e-11
1.20448194744e-12
5.89863532951e-11
1.1112111309e-12
5.79614851096e-11
1.02484114539e-12
5.70166382485e-11
9.44822119278e-13
5.6145978077e-11
8.70637556922e-13
5.53441510084e-11
8.01806436027e-13
5.46062478942e-11
7.37884318379e-13
5.39277668191e-11
6.7846398655e-13
5.33045752723e-11
6.23176042321e-13
5.27328713493e-11
5.71689885267e-13
5.22091431565e-11
5.23715516614e-13
5.17301250738e-11
4.79006659839e-13
5.12927489638e-11
4.37365849445e-13
5.08940874516e-11
3.986523111e-13
5.05312853752e-11
3.62793854004e-13
5.0201473549e-11
3.29804481241e-13
4.99016566227e-11
2.99810382687e-13
4.96285624222e-11
2.73088352913e-13
4.93784339601e-11
2.50123230908e-13
4.91467341319e-11
2.31695094828e-13
4.89277154287e-11
2.19014370983e-13
4.87137760963e-11
2.13935253871e-13
4.84944753001e-11
2.19296843921e-13
4.82550112866e-11
2.39460005817e-13
4.79739304973e-11
2.8107648274e-13
4.76202131805e-11
3.53710333236e-13
4.71524011867e-11
4.67833139353e-13
6.00269265977e-13
9.53401915892e-10
2.28681553123e-10
8.59626939674e-10
2.93141310048e-10
7.4507004778e-10
2.43298024705e-10
6.41878909361e-10
1.85775573262e-10
5.56681788478e-10
1.39821730931e-10
4.88276543269e-10
1.06014479382e-10
4.33640871153e-10
8.15730742048e-11
3.89821584035e-10
6.37983462816e-11
3.54404641608e-10
5.06726109112e-11
3.25533015518e-10
4.0796831951e-11
3.0180685894e-10
3.32216528433e-11
2.82173744108e-10
2.7302608142e-11
2.65837952236e-10
2.25974764815e-11
2.52192163167e-10
1.87979958313e-11
2.40767831188e-10
1.56853937836e-11
2.31199562201e-10
1.31014963639e-11
2.23199543475e-10
1.09298234013e-11
2.16539076865e-10
9.08306703961e-12
2.11035117146e-10
7.49467499997e-12
2.06540352102e-10
6.11310230525e-12
2.02935808878e-10
4.89782130828e-12
2.00125281036e-10
3.81650738539e-12
1.98031082248e-10
2.84302280368e-12
1.96590778238e-10
1.95595073539e-12
1.9575464785e-10
1.13751437642e-12
1.95483693787e-10
3.72769750328e-13
1.95748070964e-10
-3.51003689873e-13
1.96525833873e-10
-1.04476562235e-12
1.97801928244e-10
-1.71806794376e-12
1.99567371333e-10
-2.37932710406e-12
2.01818573577e-10
-3.03602922419e-12
2.04556762994e-10
-3.69487945765e-12
2.0778747791e-10
-4.36190333526e-12
2.11520097155e-10
-5.04250421225e-12
2.157673767e-10
-5.7414779029e-12
2.20544961967e-10
-6.46298347641e-12
2.25870842114e-10
-7.21046718353e-12
2.31764711007e-10
-7.98653534346e-12
2.3824719551e-10
-8.79277117931e-12
2.45338910323e-10
-9.62949113024e-12
2.53059296377e-10
-1.04954377798e-11
2.61425202812e-10
-1.13874106291e-11
2.70449177902e-10
-1.229984237e-11
2.80137449015e-10
-1.32243385024e-11
2.90487593042e-10
-1.41492114707e-11
3.0148593363e-10
-1.50590572891e-11
3.13104745262e-10
-1.59344401666e-11
3.25299400332e-10
-1.67517663447e-11
3.380056531e-10
-1.74834361183e-11
3.51137310546e-10
-1.80983578431e-11
3.64584577051e-10
-1.85628840711e-11
3.78213371488e-10
-1.88421884362e-11
3.91865887951e-10
-1.89020479714e-11
4.05362611271e-10
-1.87109427354e-11
4.18505908019e-10
-1.82423449545e-11
4.31085210139e-10
-1.74770480207e-11
4.42883689126e-10
-1.64053679555e-11
4.53686180217e-10
-1.5029014766e-11
4.63287937199e-10
-1.33623684697e-11
4.71503590875e-10
-1.14328376217e-11
4.78175492688e-10
-9.2799995279e-12
4.83180549013e-10
-6.9533903688e-12
4.86434771647e-10
-4.50912113222e-12
4.87895107772e-10
-2.00582999724e-12
4.87558575905e-10
4.99316765436e-13
4.85459181938e-10
2.95389151636e-12
4.8166338901e-10
5.31227570727e-12
4.76264954547e-10
7.53649414396e-12
4.69379801299e-10
9.5960476138e-12
4.611413558e-10
1.14671087128e-11
4.5169651916e-10
1.31314945828e-11
4.41202218167e-10
1.45757501099e-11
4.29822342573e-10
1.57905521685e-11
4.17724819891e-10
1.67705152118e-11
4.05078602612e-10
1.75143548833e-11
3.92050439662e-10
1.80252593072e-11
3.788014424e-10
1.83112501715e-11
3.65483601007e-10
1.83853098668e-11
3.52236510029e-10
1.82651130528e-11
3.39184597577e-10
1.79723097357e-11
3.26435109305e-10
1.75314248921e-11
3.14077000192e-10
1.6968527973e-11
3.02180761533e-10
1.63098625476e-11
2.90799096914e-10
1.55806105407e-11
2.79968277373e-10
1.48039138997e-11
2.69709967021e-10
1.40002112867e-11
2.60033307489e-10
1.31868886568e-11
2.50937076918e-10
1.23782010034e-11
2.42411779093e-10
1.1585401337e-11
2.34441564352e-10
1.08170084685e-11
2.27005924027e-10
1.00791522047e-11
2.20081134555e-10
9.37594708289e-12
2.13641450875e-10
8.70985985495e-12
2.07660065633e-10
8.08204858375e-12
2.02109858979e-10
7.49266150467e-12
1.96963968461e-10
6.94109118995e-12
1.92196208216e-10
6.42618454525e-12
1.8778136552e-10
5.94641206734e-12
1.83695399188e-10
5.50000131028e-12
1.79915561398e-10
5.08503998304e-12
1.76420460477e-10
4.69955401342e-12
1.73190079385e-10
4.34156546142e-12
1.70205761217e-10
4.00913457529e-12
1.67450170892e-10
3.70038966325e-12
1.64907239689e-10
3.41354785402e-12
1.62562097688e-10
3.14692932493e-12
1.60400997465e-10
2.89896713162e-12
1.5841123117e-10
2.66821448544e-12
1.56581041865e-10
2.45335107047e-12
1.54899528976e-10
2.25318992241e-12
1.53356546634e-10
2.06668634003e-12
1.51942592546e-10
1.89295046749e-12
1.50648683884e-10
1.73126538105e-12
1.49466215132e-10
1.58111299299e-12
1.48386791244e-10
1.44221064923e-12
1.47402027266e-10
1.31456226304e-12
1.46503303285e-10
1.19852899528e-12
1.45681460825e-10
1.09492620452e-12
1.44926424857e-10
1.00515530039e-12
1.44226735627e-10
9.31381087734e-13
1.435689823e-10
8.76765089282e-13
1.42937157844e-10
8.45757678415e-13
1.42312035032e-10
8.44418122712e-13
1.41670877756e-10
8.80616049603e-13
1.40988369042e-10
9.63583728055e-13
1.40241032254e-10
1.10104558623e-12
1.39421919022e-10
1.28696747167e-12
1.45709516066e-12
9.7622034068e-10
1.89961192431e-10
9.6296185868e-10
3.06399760791e-10
9.06031273224e-10
3.00228578631e-10
8.33591721924e-10
2.58215093537e-10
7.60639236634e-10
2.12774185558e-10
6.93587328431e-10
1.7306635719e-10
6.34509151457e-10
1.40651221033e-10
5.83511369626e-10
1.14796098271e-10
5.39912764802e-10
9.42711862607e-11
5.02793326563e-10
7.79162411923e-11
4.71232767173e-10
6.47821838082e-11
4.44402270193e-10
5.41330773985e-11
4.21589907993e-10
4.54098117575e-11
4.02198067065e-10
3.81898107609e-11
3.85730605611e-10
3.21528302499e-11
3.71777592338e-10
2.70544857801e-11
3.60000843847e-10
2.27065492356e-11
3.50121368588e-10
1.89625209527e-11
3.41908908159e-10
1.57071154498e-11
3.35173404551e-10
1.28485874013e-11
3.29758107556e-10
1.03131012995e-11
3.25534029343e-10
8.04057019401e-12
3.22395484532e-10
5.98155383126e-12
3.20256497541e-10
4.09492564039e-12
3.1904789938e-10
2.3461021472e-12
3.18714972329e-10
7.05688164443e-13
3.1921552882e-10
-8.51567096884e-13
3.20518332483e-10
-2.34757444608e-12
3.22601788756e-10
-3.80152769246e-12
3.25452846117e-10
-5.23038625105e-12
3.29066054439e-10
-6.649237754e-12
3.33442735402e-10
-8.0715590839e-12
3.38590222446e-10
-9.50938765487e-12
3.44521130763e-10
-1.09734084885e-11
3.51252616422e-10
-1.24729584089e-11
3.58805583715e-10
-1.40159446141e-11
3.67203795874e-10
-1.5608672431e-11
3.7647284283e-10
-1.72555747723e-11
3.86638915242e-10
-1.8958835725e-11
3.97727333838e-10
-2.07179016785e-11
4.09760782092e-10
-2.25288780935e-11
4.22757196755e-10
-2.43838176099e-11
4.3672728026e-10
-2.62699187303e-11
4.51671620987e-10
-2.81686727456e-11
4.67577437232e-10
-3.00550221417e-11
4.84415007702e-10
-3.18966231795e-11
5.02133908291e-10
-3.36533373828e-11
5.20659246807e-10
-3.52771027395e-11
5.39888159876e-10
-3.67123485043e-11
5.59686905944e-10
-3.78971046848e-11
5.79888932088e-10
-3.87649126097e-11
6.00294302899e-10
-3.92475632424e-11
6.20670838155e-10
-3.9278588928e-11
6.40757220646e-10
-3.87973325123e-11
6.60268209465e-10
-3.77533426119e-11
6.78901952872e-10
-3.61108015098e-11
6.96349238232e-10
-3.3852664399e-11
7.12304343021e-10
-3.09841311312e-11
7.26476929874e-10
-2.75349670098e-11
7.38604169538e-10
-2.35600885561e-11
7.48462029492e-10
-1.91378700928e-11
7.5587456315e-10
-1.43659337307e-11
7.60720185081e-10
-9.35475196973e-12
7.62934354901e-10
-4.22000796794e-12
7.62508693967e-10
9.2497005802e-13
7.59487137607e-10
5.97544075538e-12
7.53960104532e-10
1.08393020746e-11
7.4605772343e-10
1.54388689894e-11
7.35942969906e-10
1.9710795123e-11
7.23805271903e-10
2.36048007979e-11
7.09854810215e-10
2.70819500527e-11
6.9431747661e-10
3.01130769065e-11
6.77430278129e-10
3.26777427862e-11
6.59436905987e-10
3.47638781521e-11
6.40583210947e-10
3.63680389987e-11
6.21112442833e-10
3.74960146065e-11
6.01260281994e-10
3.8163396064e-11
5.81249871714e-10
3.83957030486e-11
5.61287188088e-10
3.82277773332e-11
5.41557126188e-10
3.77023501491e-11
5.22220623094e-10
3.68679043875e-11
5.03413011323e-10
3.57761142334e-11
4.85243635282e-10
3.44792112856e-11
4.67796618367e-10
3.30275986257e-11
4.51132561843e-10
3.14679402458e-11
4.35290906079e-10
2.98418358281e-11
4.20292679393e-10
2.81850832872e-11
4.06143392156e-10
2.65274556634e-11
3.92835882521e-10
2.4892878095e-11
3.80352977104e-10
2.32998810059e-11
3.68669880689e-10
2.17622159425e-11
3.5775625328e-10
2.0289542282e-11
3.47577964269e-10
1.88881172956e-11
3.38098536895e-10
1.7561445245e-11
3.29280308923e-10
1.63108597502e-11
3.21085343514e-10
1.51360280228e-11
3.13476125681e-10
1.40353750368e-11
3.06416079745e-10
1.30064320054e-11
2.99869939716e-10
1.20461167273e-11
2.93804001532e-10
1.11509549991e-11
2.88186281426e-10
1.03172524046e-11
2.82986601225e-10
9.54122541523e-12
2.78176617213e-10
8.81909978818e-12
2.73729806199e-10
8.14718330706e-12
2.69621419211e-10
7.52191886421e-12
2.6582841091e-10
6.93992299525e-12
2.62329350511e-10
6.39801419646e-12
2.59104318178e-10
5.89323472053e-12
2.56134789202e-10
5.42286912622e-12
2.53403506796e-10
4.9844625154e-12
2.50894343036e-10
4.57584133589e-12
2.48592146129e-10
4.19513957837e-12
2.46482571137e-10
3.8408334928e-12
2.44551889908e-10
3.51178817457e-12
2.42786775337e-10
3.20731996064e-12
2.41174054127e-10
2.92727892356e-12
2.39700423012e-10
2.67215623792e-12
2.38352125224e-10
2.44322073145e-12
2.37114590705e-10
2.24268715607e-12
2.35972057128e-10
2.07391254739e-12
2.34907218797e-10
1.94160185092e-12
2.3390100899e-10
1.85196640754e-12
2.32932736895e-10
1.81268957849e-12
2.31981016364e-10
1.8323361144e-12
2.31026297195e-10
1.91830202321e-12
2.30056382769e-10
2.07095880032e-12
2.29075332054e-10
2.26801462411e-12
2.42701821458e-12
9.71751380538e-10
1.55709788674e-10
9.86616793178e-10
2.91534314724e-10
9.68031845562e-10
3.18813493031e-10
9.27615390208e-10
2.98631516088e-10
8.77225014513e-10
2.63164528823e-10
8.24386835715e-10
2.25904503814e-10
7.73254901492e-10
1.91783123306e-10
7.25866147809e-10
1.62184820251e-10
6.83037525955e-10
1.37099776714e-10
6.449226417e-10
1.16031094434e-10
6.11337511313e-10
9.83672836666e-11
5.819443222e-10
8.35262365788e-11
5.56351706793e-10
7.10023979307e-11
5.3416722435e-10
6.03742647795e-11
5.15023052518e-10
5.129697456e-11
4.98586987651e-10
4.34905241278e-11
4.8456562077e-10
3.6727890683e-11
4.72703535362e-10
3.08245820983e-11
4.62780648432e-10
2.56299793595e-11
4.54608840621e-10
2.10203735098e-11
4.48028473529e-10
1.68934480622e-11
4.42905088758e-10
1.31639360714e-11
4.39126416708e-10
9.7602084629e-12
4.36599734669e-10
6.62159177998e-12
4.35249567675e-10
3.69625477954e-12
4.35015703795e-10
9.39539242871e-13
4.35851485889e-10
-1.68736044322e-12
4.37722336e-10
-4.21843426482e-12
4.40604475916e-10
-6.6836758136e-12
4.44483803807e-10
-9.10972088399e-12
4.49354886445e-10
-1.15203257503e-11
4.55220029445e-10
-1.39367061357e-11
4.62088387109e-10
-1.63777481838e-11
4.69975072784e-10
-1.88600959575e-11
4.78900228073e-10
-2.13981145783e-11
4.88888006942e-10
-2.40037236025e-11
4.99965426883e-10
-2.66860919208e-11
5.12161036407e-10
-2.94511834482e-11
5.25503344722e-10
-3.23011430073e-11
5.4001895884e-10
-3.52335147614e-11
5.55730374422e-10
-3.82402928454e-11
5.72653373969e-10
-4.13068167024e-11
5.90793999102e-10
-4.44105439691e-11
6.10145088081e-10
-4.75197625242e-11
6.30682405435e-10
-5.05923411352e-11
6.52360442587e-10
-5.35746629032e-11
6.7510803429e-10
-5.64009326993e-11
6.98824016056e-10
-5.89930892229e-11
7.23373232294e-10
-6.12615706549e-11
7.4858328391e-10
-6.31071634609e-11
7.74242456544e-10
-6.44240937322e-11
8.0009928029e-10
-6.51043968335e-11
8.25864121324e-10
-6.50434411908e-11
8.51213097922e-10
-6.41463216461e-11
8.75794460847e-10
-6.2334719245e-11
8.9923741047e-10
-5.95537657225e-11
9.2116315286e-10
-5.5778421872e-11
9.41197814321e-10
-5.10188076409e-11
9.58986596332e-10
-4.532376349e-11
9.74208244829e-10
-3.87817504062e-11
9.86588589132e-10
-3.15182262828e-11
9.95911740283e-10
-2.36890951599e-11
1.00202769642e-09
-1.54707168961e-11
1.0048556336e-09
-7.04795265974e-12
1.00438291239e-09
1.39768478215e-12
1.00066054369e-09
9.69780395222e-12
9.93796307565e-10
1.77035337021e-11
9.83946770653e-10
2.52884024313e-11
9.71309200599e-10
3.23483626304e-11
9.56114003361e-10
3.8799996189e-11
9.3861792357e-10
4.4578028314e-11
9.19097953113e-10
4.96330457165e-11
8.97845707517e-10
5.39299861208e-11
8.75161952283e-10
5.74476300644e-11
8.51350988538e-10
6.01789979464e-11
8.26714739608e-10
6.21322569584e-11
8.01546584168e-10
6.33315429029e-11
7.76125197816e-10
6.381707865e-11
7.50708818593e-10
6.36441435902e-11
7.25530396351e-10
6.28807572419e-11
7.00794010462e-10
6.16042730126e-11
6.7667277985e-10
5.98973256136e-11
6.53308295186e-10
5.78436749084e-11
6.30811429947e-10
5.55244412272e-11
6.09264266108e-10
5.30150800608e-11
5.88722814397e-10
5.03832623785e-11
5.69220208091e-10
4.76876635294e-11
5.5077008833e-10
4.49775487178e-11
5.33369957005e-10
4.22929823057e-11
5.17004337448e-10
3.96654732916e-11
5.01647641293e-10
3.71188848861e-11
4.87266688838e-10
3.46704678123e-11
4.73822866459e-10
3.23319132209e-11
4.61273930688e-10
3.01103552184e-11
4.49575484296e-10
2.8009281147e-11
4.38682159036e-10
2.60293292268e-11
4.28548542962e-10
2.4168968095e-11
4.19129890569e-10
2.24250625152e-11
4.10382651507e-10
2.07933350934e-11
4.02264850421e-10
1.92687366267e-11
3.94736346153e-10
1.78457384702e-11
3.8775899465e-10
1.65185599854e-11
3.81296735702e-10
1.52813430597e-11
3.75315620176e-10
1.41282843998e-11
3.69783790934e-10
1.30537348796e-11
3.64671427937e-10
1.20522739388e-11
3.59950665352e-10
1.11187658513e-11
3.55595486474e-10
1.02484037412e-11
3.515816003e-10
9.43674645973e-12
3.47886302029e-10
8.67975290286e-12
3.44488318382e-10
7.97381799694e-12
3.41367637414e-10
7.31581439466e-12
3.38505321649e-10
6.70314388007e-12
3.35883302688e-10
6.13380247093e-12
3.33484155492e-10
5.60646314811e-12
3.31290851287e-10
5.12057972048e-12
3.29286490512e-10
4.67651415781e-12
3.27454022107e-10
4.27568678853e-12
3.25775964973e-10
3.92074241312e-12
3.24234164053e-10
3.61571202203e-12
3.22809642298e-10
3.36612255934e-12
3.21482656609e-10
3.178951395e-12
3.20233138628e-10
3.06220713386e-12
3.19041797896e-10
3.0236765853e-12
3.17892241459e-10
3.0678582673e-12
3.16774186769e-10
3.18901338662e-12
3.15685787947e-10
3.35640905919e-12
3.48851321891e-12
9.63937036572e-10
1.29272724787e-10
9.87666276568e-10
2.67805038464e-10
9.89712609276e-10
3.16767124436e-10
9.72161572562e-10
3.16182517535e-10
9.41957951029e-10
2.9336811554e-10
9.05146342689e-10
2.6271607761e-10
8.65919903489e-10
2.31009528166e-10
8.26924519897e-10
2.0118016972e-10
7.89715470816e-10
1.74308791936e-10
7.55131092371e-10
1.50615439364e-10
7.23557415034e-10
1.29940927924e-10
6.95104986244e-10
1.11978632833e-10
6.69723406941e-10
9.63839453396e-11
6.47273973969e-10
8.28236666071e-11
6.27574907568e-10
7.0996010658e-11
6.10428938924e-10
6.06364634092e-11
5.95639686014e-10
5.15171152523e-11
5.83020980899e-10
4.34432599813e-11
5.72401817583e-10
3.62491166244e-11
5.63628619311e-10
2.97935469876e-11
5.56565899455e-10
2.39561444377e-11
5.51095990625e-10
1.86338228016e-11
5.4711826163e-10
1.37379167787e-11
5.44548080087e-10
9.19175411513e-12
5.43315675224e-10
4.92864192476e-12
5.43364990199e-10
8.9020806981e-13
5.44652571399e-10
-2.97495632879e-12
5.47146511523e-10
-6.71238755823e-12
5.50825459054e-10
-1.03626350353e-11
5.55677681752e-10
-1.39619538266e-11
5.61700167134e-10
-1.75428200032e-11
5.68897738607e-10
-2.11342851722e-11
5.77282160015e-10
-2.47621759604e-11
5.8687119693e-10
-2.84491381512e-11
5.9768759795e-10
-3.22145199359e-11
6.09757954995e-10
-3.60740841824e-11
6.23111396572e-10
-4.00395364086e-11
6.37778064137e-10
-4.41178534623e-11
6.53787317974e-10
-4.83103990296e-11
6.71165617994e-10
-5.26118168692e-11
6.89934026163e-10
-5.70087032021e-11
7.10105284569e-10
-6.1478077548e-11
7.31680436824e-10
-6.59856990882e-11
7.54644985558e-10
-7.04843146668e-11
7.7896461614e-10
-7.49119758035e-11
8.04580571378e-10
-7.91906229871e-11
8.31404833036e-10
-8.32252000624e-11
8.59315353858e-10
-8.69036166685e-11
8.88151679447e-10
-9.00979038795e-11
9.17711390848e-10
-9.26668835723e-11
9.47747862894e-10
-9.44605756655e-11
9.77969847782e-10
-9.53263928396e-11
1.00804333634e-09
-9.51169421595e-11
1.03759602101e-09
-9.36990199756e-11
1.06622450504e-09
-9.09632180705e-11
1.09350421419e-09
-8.68334905265e-11
1.11900179676e-09
-8.12760205414e-11
1.14228962849e-09
-7.4306655338e-11
1.1629618e-09
-6.59959502199e-11
1.1806506001e-09
-5.64705643497e-11
1.19504207607e-09
-4.59097143259e-11
1.20588897501e-09
-3.45360042405e-11
1.21301951219e-09
-2.26012625037e-11
1.21634106429e-09
-1.03695118062e-11
1.21583883968e-09
1.89990342065e-12
1.21157047073e-09
1.39661679531e-11
1.20365800236e-09
2.56159982383e-11
1.19227877173e-09
3.66676304693e-11
1.17765632453e-09
4.69708083871e-11
1.16005202739e-09
5.64042928e-11
1.13975758249e-09
6.48724731742e-11
1.11708833174e-09
7.23022964341e-11
1.09237704972e-09
7.86412675563e-11
1.06596784628e-09
8.38568318942e-11
1.03820983124e-09
8.79370098855e-11
1.00945034979e-09
9.08917335174e-11
9.80027846521e-10
9.27540392423e-11
9.50264683369e-10
9.35802327102e-11
9.20460424664e-10
9.34483909894e-11
8.90886150466e-10
9.24550179746e-11
8.61780257991e-10
9.07101499521e-11
8.33346006994e-10
8.83315591716e-11
8.05750827816e-10
8.54388349192e-11
7.79127207061e-10
8.21480413127e-11
7.53574831914e-10
7.85674332562e-11
7.29163619397e-10
7.47944519124e-11
7.05937265902e-10
7.09139932442e-11
6.8391700356e-10
6.69977867357e-11
6.63105319563e-10
6.31046416634e-11
6.43489466959e-10
5.92813011797e-11
6.25044659286e-10
5.55636679747e-11
6.07736893417e-10
5.19782094357e-11
5.91525383148e-10
4.85433997596e-11
5.76364612806e-10
4.5271102513e-11
5.62206036638e-10
4.21678350843e-11
5.48999459217e-10
3.9235885357e-11
5.36694135816e-10
3.64742712329e-11
5.25239632222e-10
3.38795469529e-11
5.14586481267e-10
3.14464680444e-11
5.04686670292e-10
2.91685307856e-11
4.95493989639e-10
2.70384035083e-11
4.86964268337e-10
2.50482668737e-11
4.79055519052e-10
2.31900791154e-11
4.71728010736e-10
2.14557806458e-11
4.64944283982e-10
1.98374506864e-11
4.58669121177e-10
1.83274268756e-11
4.52869480892e-10
1.69183972956e-11
4.47514403744e-10
1.56034730214e-11
4.42574895001e-10
1.43762482504e-11
4.38023787611e-10
1.32308541929e-11
4.33835587998e-10
1.21620123018e-11
4.29986305911e-10
1.1165091902e-11
4.26453268957e-10
1.02361769224e-11
4.23214922176e-10
9.37214594377e-12
4.20250613447e-10
8.57076911904e-12
4.17540366754e-10
7.83082414465e-12
4.1506464818e-10
7.15223090718e-12
4.12804134174e-10
6.53619936373e-12
4.1073949974e-10
5.98537577035e-12
4.08851256445e-10
5.50395454949e-12
4.07119688501e-10
5.09769000345e-12
4.05524959644e-10
4.77367996037e-12
4.04047490227e-10
4.53967640146e-12
4.02668710472e-10
4.40245625799e-12
4.01372193129e-10
4.36437558548e-12
4.00144643019e-10
4.41656368492e-12
3.98974310824e-10
4.52673807144e-12
4.62200781593e-12
9.57547665876e-10
1.09225028371e-10
9.8254005358e-10
2.42812612508e-10
9.9501895924e-10
3.04288181262e-10
9.92242701317e-10
3.18958738287e-10
9.77360029945e-10
3.08250750082e-10
9.54474921098e-10
2.85601149839e-10
9.27040807799e-10
2.5844360502e-10
8.97592216628e-10
2.30628724634e-10
8.67868047408e-10
2.04032925132e-10
8.39004648255e-10
1.79478802803e-10
8.11707889948e-10
1.57237650914e-10
7.86386201673e-10
1.3730028629e-10
7.6324763351e-10
1.19522479281e-10
7.42368613328e-10
1.03702653264e-10
7.23741781978e-10
8.96228092708e-11
7.07308832888e-10
7.7069380644e-11
6.92982790141e-10
6.5843127106e-11
6.80662931969e-10
5.57630883095e-11
6.70244635281e-10
4.66673845888e-11
6.61625737454e-10
3.84124172873e-11
6.54710526006e-10
3.0871329618e-11
6.49412124595e-10
2.39321992678e-11
6.45653804147e-10
1.7496213655e-11
6.43369581216e-10
1.1475954897e-11
6.42504349676e-10
5.79385276898e-12
6.43013711315e-10
3.80827219491e-13
6.44863613021e-10
-4.82487575557e-12
6.4802985798e-10
-9.87864873903e-12
6.52497544494e-10
-1.48303362962e-11
6.58260444307e-10
-1.97248669344e-11
6.65320328653e-10
-2.46027162468e-11
6.73686237982e-10
-2.95002050605e-11
6.83373681534e-10
-3.44496288243e-11
6.94403745155e-10
-3.94792099305e-11
7.0680207843e-10
-4.46128603422e-11
7.20597725931e-10
-4.98697379137e-11
7.35821761109e-10
-5.52635770729e-11
7.5250567626e-10
-6.08017735044e-11
7.70679477437e-10
-6.6484204679e-11
7.90369431076e-10
-7.23017747207e-11
8.11595409459e-10
-7.82346857137e-11
8.34367787964e-10
-8.42504602469e-11
8.58683859486e-10
-9.03017750265e-11
8.84523754803e-10
-9.63242147446e-11
9.1184589439e-10
-1.0223412062e-10
9.40582052215e-10
-1.07926786602e-10
9.70632186812e-10
-1.13275341108e-10
1.00185929039e-09
-1.1813072743e-10
1.03408461564e-09
-1.22323237156e-10
1.06708374874e-09
-1.25666025637e-10
1.10058407948e-09
-1.27960916457e-10
1.13426424517e-09
-1.29006569762e-10
1.16775606417e-09
-1.28608773686e-10
1.20064932391e-09
-1.26592293573e-10
1.23249957519e-09
-1.22813484457e-10
1.26283887312e-09
-1.17172804558e-10
1.29118924436e-09
-1.09626408469e-10
1.31707852922e-09
-1.00195956845e-10
1.34005802768e-09
-8.89754645446e-11
1.35972094667e-09
-7.61334976868e-11
1.37572004184e-09
-6.19088218156e-11
1.38778238373e-09
-4.65983562742e-11
1.39571927649e-09
-3.05381635245e-11
1.39943017962e-09
-1.40804218143e-11
1.39890073228e-09
2.4293448967e-12
1.39419612487e-09
1.86707704645e-11
1.38545168849e-09
3.43604309223e-11
1.37286252814e-09
4.92567884978e-11
1.35667351272e-09
6.31598228187e-11
1.33717028055e-09
7.5907525026e-11
1.31467138171e-09
8.73713726295e-11
1.28952134167e-09
9.74523370967e-11
1.26208425099e-09
1.06078358272e-10
1.23273740835e-09
1.13203673478e-10
1.20186457748e-09
1.18809838165e-10
1.16984860553e-09
1.22907701031e-10
1.13706346603e-09
1.25539172236e-10
1.10386613116e-09
1.26777558904e-10
1.07058891619e-09
1.26725595095e-10
1.0375329918e-09
1.25510929398e-10
1.00496362091e-09
1.23279505885e-10
9.73107412381e-10
1.20187750948e-10
9.42151588935e-10
1.16394640017e-10
9.12245025533e-10
1.12054585007e-10
8.83500668064e-10
1.07311769894e-10
8.55998894455e-10
1.02296203817e-10
8.29791406552e-10
9.71214588079e-11
8.04905310828e-10
9.18838597292e-11
7.81347130891e-10
8.66627987028e-11
7.59106577177e-10
8.1521832052e-11
7.38159968663e-10
7.65102539e-11
7.184732554e-10
7.1664900555e-11
7.00004629056e-10
6.70120045657e-11
6.82706734509e-10
6.25689762777e-11
6.6652851104e-10
5.83460386435e-11
6.51416700179e-10
5.43476772877e-11
6.37317060361e-10
5.0573893172e-11
6.2417532863e-10
4.70212619184e-11
6.11937967297e-10
4.36838137581e-11
6.00552730286e-10
4.05537533452e-11
5.89969079903e-10
3.76220406066e-11
5.80138480852e-10
3.48788537969e-11
5.71014594338e-10
3.23139546299e-11
5.62553391541e-10
2.99169735404e-11
5.54713202363e-10
2.76776310122e-11
5.47454712502e-10
2.55859088859e-11
5.40740919264e-10
2.36321836262e-11
5.34537054365e-10
2.18073318979e-11
5.28810480048e-10
2.01028173684e-11
5.23530563286e-10
1.85107665153e-11
5.18668531576e-10
1.70240402658e-11
5.1419731286e-10
1.56363075042e-11
5.100913615e-10
1.43421257359e-11
5.06326472072e-10
1.31370333301e-11
5.02879583066e-10
1.20176565303e-11
4.99728573639e-10
1.09818323657e-11
4.96852058625e-10
1.00287450522e-11
4.94229190251e-10
9.15906715648e-12
4.91839479977e-10
8.37508570809e-12
4.89662660542e-10
7.68077384771e-12
4.87678616377e-10
7.08173418669e-12
4.85867417015e-10
6.5848794363e-12
4.84209483637e-10
6.19760992636e-12
4.82685872944e-10
5.92606707329e-12
4.81278487564e-10
5.77176105914e-12
4.79969486783e-10
5.72556460727e-12
4.78737946426e-10
5.75827505107e-12
5.80932314157e-12
9.52930974086e-10
9.37940206822e-11
9.76485137754e-10
2.19258408732e-10
9.93805712047e-10
2.86967567723e-10
1.00018052034e-09
3.12583891295e-10
9.96239542565e-10
3.12191689554e-10
9.84392878377e-10
2.97447775937e-10
9.6718242092e-10
2.75654024542e-10
9.46739755723e-10
2.51071352059e-10
9.24694565715e-10
2.26078077578e-10
9.02231767633e-10
2.01941563607e-10
8.80182447858e-10
1.79286933782e-10
8.59110006298e-10
1.58372691407e-10
8.39381143907e-10
1.3925130579e-10
8.21221053864e-10
1.21862708078e-10
8.04755083958e-10
1.06088744692e-10
7.90039644118e-10
9.17847868298e-11
7.77084863567e-10
7.8797874917e-11
7.65871042082e-10
6.69768780474e-11
7.56360489778e-10
5.61779062155e-11
7.48505968876e-10
4.62669086537e-11
7.42256647459e-10
3.71206227094e-11
7.3756224096e-10
2.86265787142e-11
7.34375839418e-10
2.06825894739e-11
7.32655785273e-10
1.31959846989e-11
7.32366867097e-10
6.08274802336e-12
7.33481021124e-10
-7.33348273443e-13
7.35977671936e-10
-7.32154655641e-12
7.39843813443e-10
-1.37448087473e-11
7.45073901086e-10
-2.00604409572e-11
7.51669586463e-10
-2.63205678647e-11
7.5963932092e-10
-3.25724648235e-11
7.68997837705e-10
-3.8858734585e-11
7.79765510503e-10
-4.52173130457e-11
7.91967576136e-10
-5.16812857567e-11
8.05633200459e-10
-5.82784937269e-11
8.20794358533e-10
-6.50309040371e-11
8.37484492888e-10
-7.19537185921e-11
8.55736907097e-10
-7.9054194137e-11
8.75582846304e-10
-8.63301497176e-11
8.97049212343e-10
-9.37681461581e-11
9.20155859763e-10
-1.01341338253e-10
9.44912422055e-10
-1.09007027533e-10
9.71314627094e-10
-1.16703985078e-10
9.99340080648e-10
-1.24349673464e-10
1.02894353102e-09
-1.31837576427e-10
1.06005168157e-09
-1.39034942976e-10
1.09255769558e-09
-1.45781361418e-10
1.12631564145e-09