/*--------------------------------*- C++ -*----------------------------------*\
  =========                 |
  \\      /  F ield         | OpenFOAM: The Open Source CFD Toolbox
   \\    /   O peration     | Website:  https://openfoam.org
    \\  /    A nd           | Version:  7
     \\/     M anipulation  |
\*---------------------------------------------------------------------------*/
FoamFile
{
    version     2.0;
    format      ascii;
    class       volVectorField;
    location    "1800";
    object      U;
}
// * * * * * * * * * * * * * * * * * * * * * * * * * * * * * * * * * * * * * //

dimensions      [0 1 -1 0 0 0 0];

internalField   nonuniform List<vector> 
8192
(
(0.00104346656808 0.000156533430052 0)
(0.000759338656059 0.00012759447124 0)
(0.000549349825169 8.23943428494e-05 0)
(0.000414101411941 5.28540558557e-05 0)
(0.000326287576463 3.49597676886e-05 0)
(0.000267257872331 2.40699268166e-05 0)
(0.000225947983937 1.72399539544e-05 0)
(0.000195921409959 1.27866141203e-05 0)
(0.000173371147729 9.76364368689e-06 0)
(0.000155975353766 7.63214715428e-06 0)
(0.000142266072172 6.07713250231e-06 0)
(0.000131280448831 4.90849002913e-06 0)
(0.0001223644673 4.00749181428e-06 0)
(0.000115059551683 3.29742526851e-06 0)
(0.000109035037391 2.72709170693e-06 0)
(0.000104046672863 2.26127680899e-06 0)
(9.99103161018e-05 1.87508535221e-06 0)
(9.64847640524e-05 1.55047363329e-06 0)
(9.3660232952e-05 1.27406607654e-06 0)
(9.13504343e-05 1.03574301009e-06 0)
(8.94869997648e-05 8.27703947197e-07 0)
(8.80154787813e-05 6.43831622293e-07 0)
(8.68924133189e-05 4.79250776648e-07 0)
(8.60831660929e-05 3.30015938274e-07 0)
(8.55602860347e-05 1.92886374726e-07 0)
(8.53022637172e-05 6.51611940355e-08 0)
(8.52925743254e-05 -5.54433094372e-08 0)
(8.55189352517e-05 -1.70885617489e-07 0)
(8.59727251767e-05 -2.82868518723e-07 0)
(8.66485263625e-05 -3.92892782304e-07 0)
(8.75437613053e-05 -5.02297852195e-07 0)
(8.86584000367e-05 -6.12291793141e-07 0)
(8.99947183785e-05 -7.23972307439e-07 0)
(9.15570901251e-05 -8.38339638235e-07 0)
(9.33517972396e-05 -9.563016907e-07 0)
(9.53868421886e-05 -1.07867104272e-06 0)
(9.76717455866e-05 -1.20615325496e-06 0)
(0.000100217310663 -1.33932538005e-06 0)
(0.000103035333778 -1.47860351223e-06 0)
(0.00010613823768 -1.62419798147e-06 0)
(0.000109538601794 -1.77605520192e-06 0)
(0.000113248562319 -1.93378562709e-06 0)
(0.00011727905519 -2.09657868055e-06 0)
(0.000121638878507 -2.26310728934e-06 0)
(0.000126333559281 -2.43142766655e-06 0)
(0.000131364024008 -2.59888336551e-06 0)
(0.000136725094912 -2.76202688118e-06 0)
(0.000142403863724 -2.91657557108e-06 0)
(0.000148378030908 -3.05742116305e-06 0)
(0.000154614335962 -3.17871129158e-06 0)
(0.000161067236977 -3.27401719132e-06 0)
(0.000167678016998 -3.33659275785e-06 0)
(0.000174374494012 -3.35971911321e-06 0)
(0.000181071488435 -3.3371174999e-06 0)
(0.000187672160006 -3.26340582726e-06 0)
(0.000194070272683 -3.1345701397e-06 0)
(0.000200153385715 -2.94841939978e-06 0)
(0.000205806897291 -2.70498333019e-06 0)
(0.000210918770805 -2.40679726339e-06 0)
(0.000215384645257 -2.05900144333e-06 0)
(0.000219112888005 -1.66918405681e-06 0)
(0.000222029042517 -1.24693310143e-06 0)
(0.000224079123794 -8.0313204211e-07 0)
(0.000225231360472 -3.49110706852e-07 0)
(0.000225476252426 1.04190162422e-07 0)
(0.00022482512307 5.46888657135e-07 0)
(0.000223307601907 9.70561518025e-07 0)
(0.000220968578252 1.36837288339e-06 0)
(0.000217865111263 1.73498911845e-06 0)
(0.000214063640867 2.06636308062e-06 0)
(0.000209637667086 2.35948155431e-06 0)
(0.000204665897644 2.61214967975e-06 0)
(0.000199230745212 2.8228570152e-06 0)
(0.000193416995278 2.99074092789e-06 0)
(0.00018731046181 3.11563544553e-06 0)
(0.000180996494693 3.19817061568e-06 0)
(0.000174558287972 3.23987229336e-06 0)
(0.000168075038827 3.24321157786e-06 0)
(0.000161620094815 3.21156706693e-06 0)
(0.000155259275496 3.14908817746e-06 0)
(0.000149049551736 3.06047415349e-06 0)
(0.000143038216694 2.9507033566e-06 0)
(0.000137262605848 2.82475495348e-06 0)
(0.000131750343065 2.68736120114e-06 0)
(0.000126520025689 2.54281616177e-06 0)
(0.00012158222451 2.3948521144e-06 0)
(0.000116940665174 2.2465817337e-06 0)
(0.000112593469935 2.10049555869e-06 0)
(0.000108534363976 1.95849997751e-06 0)
(0.000104753780152 1.82198080743e-06 0)
(0.000101239824055 1.69187940883e-06 0)
(9.7979084089e-05 1.56877154064e-06 0)
(9.49572878493e-05 1.45294221151e-06 0)
(9.21598166134e-05 1.34445270518e-06 0)
(8.95720954543e-05 1.2431979352e-06 0)
(8.71798785541e-05 1.14895387683e-06 0)
(8.496944906e-05 1.06141560144e-06 0)
(8.29277511372e-05 9.8022703119e-07 0)
(8.10424695991e-05 9.05003616137e-07 0)
(7.93020699453e-05 8.35349235854e-07 0)
(7.7695809263e-05 7.70868446363e-07 0)
(7.62137262235e-05 7.11175123774e-07 0)
(7.4846616579e-05 6.55898333049e-07 0)
(7.35859989492e-05 6.04686156338e-07 0)
(7.24240744484e-05 5.5720803643e-07 0)
(7.13536826147e-05 5.13156119057e-07 0)
(7.03682552977e-05 4.72245963763e-07 0)
(6.94617694165e-05 4.34216951392e-07 0)
(6.86286989385e-05 3.98832667086e-07 0)
(6.78639658378e-05 3.65881526571e-07 0)
(6.71628892837e-05 3.35177930633e-07 0)
(6.65211316674e-05 3.06564262297e-07 0)
(6.5934639384e-05 2.79914143645e-07 0)
(6.53995753059e-05 2.55137479104e-07 0)
(6.49122386092e-05 2.32188066562e-07 0)
(6.44689657115e-05 2.11074867994e-07 0)
(6.40660033099e-05 1.9187864492e-07 0)
(6.36993401887e-05 1.74776545864e-07 0)
(6.33644776847e-05 1.60078867781e-07 0)
(6.30561075789e-05 1.4828486069e-07 0)
(6.27676477188e-05 1.40169197429e-07 0)
(6.2490554576e-05 1.36918562477e-07 0)
(6.22132808937e-05 1.40349980109e-07 0)
(6.19196714155e-05 1.53254403723e-07 0)
(6.15865227417e-05 1.79888948953e-07 0)
(6.11802519539e-05 2.26374613271e-07 0)
(6.0654473195e-05 2.99413209186e-07 0)
(5.99709094358e-05 3.84172330225e-07 0)
(0.00121017722617 0.000302889624051 0)
(0.00116033846756 0.00031520490967 0)
(0.00102700607197 0.00023810507866 0)
(0.000887647332571 0.000171750422743 0)
(0.000767078846617 0.000124445675485 0)
(0.000668773332318 9.19191936211e-05 0)
(0.00059002714523 6.94467214454e-05 0)
(0.00052701597132 5.36175557405e-05 0)
(0.000476304784411 4.219411467e-05 0)
(0.00043516010056 3.37421196029e-05 0)
(0.000401497519653 2.7338990322e-05 0)
(0.00037374758595 2.238215924e-05 0)
(0.00035072748566 1.84698767624e-05 0)
(0.000331539273858 1.53281426006e-05 0)
(0.000315494396387 1.27657437284e-05 0)
(0.000302059131769 1.06462344819e-05 0)
(0.000290815427633 8.87017232904e-06 0)
(0.000281432717018 7.36363653864e-06 0)
(0.000273647484167 6.07065807652e-06 0)
(0.000267248300319 4.94812848545e-06 0)
(0.000262064743027 3.9623095845e-06 0)
(0.000257959097545 3.08639634894e-06 0)
(0.000254820072502 2.29878537101e-06 0)
(0.000252557990711 1.58182440893e-06 0)
(0.000251101072697 9.20895575633e-07 0)
(0.000250392538648 3.03733834245e-07 0)
(0.000250388329441 -2.80085670956e-07 0)
(0.000251055299096 -8.39535615795e-07 0)
(0.000252369767755 -1.38243200273e-06 0)
(0.00025431635173 -1.9156621289e-06 0)
(0.000256887004743 -2.44535655568e-06 0)
(0.000260080215406 -2.97701464604e-06 0)
(0.000263900314179 -3.51559044201e-06 0)
(0.000268356848041 -4.06554233407e-06 0)
(0.000273463983267 -4.63084754856e-06 0)
(0.000279239896747 -5.21498046762e-06 0)
(0.000285706114612 -5.82085225242e-06 0)
(0.000292886753997 -6.45070799987e-06 0)
(0.000300807620171 -7.10597706699e-06 0)
(0.000309495107733 -7.78707230482e-06 0)
(0.000318974852288 -8.49313538097e-06 0)
(0.000329270079481 -9.22172842972e-06 0)
(0.000340399603657 -9.96847779738e-06 0)
(0.000352375441227 -1.07266839309e-05 0)
(0.000365200026916 -1.14869230078e-05 0)
(0.00037886305707 -1.22366800305e-05 0)
(0.00039333803449 -1.29600685878e-05 0)
(0.00040857865318 -1.36377060317e-05 0)
(0.000424515234196 -1.42468202788e-05 0)
(0.000441051496733 -1.47616603112e-05 0)
(0.000458062008062 -1.51542629968e-05 0)
(0.000475390687065 -1.5395593357e-05 0)
(0.000492850726041 -1.54570298149e-05 0)
(0.000510226239502 -1.53121208506e-05 0)
(0.000527275852345 -1.49385065981e-05 0)
(0.000543738315621 -1.4319880873e-05 0)
(0.00055934009553 -1.34478548913e-05 0)
(0.00057380471638 -1.23235527804e-05 0)
(0.000586863435147 -1.0958713084e-05 0)
(0.000598266577968 -9.3760175212e-06 0)
(0.000607794613481 -7.60838375467e-06 0)
(0.000615267866689 -5.69710293746e-06 0)
(0.000620553805223 -3.68896956673e-06 0)
(0.000623571122828 -1.63284190509e-06 0)
(0.000624290357553 4.23752892301e-07 0)
(0.000622731365019 2.4373792276e-06 0)
(0.000618958445407 4.37041797068e-06 0)
(0.000613074139876 6.19172913553e-06 0)
(0.000605212643741 7.87645959128e-06 0)
(0.000595533540544 9.40531265681e-06 0)
(0.000584216239974 1.07636380873e-05 0)
(0.000571455191889 1.19406297501e-05 0)
(0.000557455718873 1.29288104031e-05 0)
(0.000542430183977 1.37238706634e-05 0)
(0.000526594190402 1.43248225708e-05 0)
(0.000510162587055 1.47343365723e-05 0)
(0.000493345204519 1.49590724031e-05 0)
(0.00047634242778 1.50098098926e-05 0)
(0.000459340871063 1.49012394207e-05 0)
(0.000442509508868 1.46513664083e-05 0)
(0.000425996612404 1.42805860844e-05 0)
(0.000409927750078 1.38105612593e-05 0)
(0.000394404967504 1.32630669839e-05 0)
(0.000379507109406 1.26589519472e-05 0)
(0.000365291119544 1.20173210576e-05 0)
(0.000351794076412 1.13549873379e-05 0)
(0.000339035695686 1.06861904741e-05 0)
(0.00032702104602 1.00225442009e-05 0)
(0.000315743267847 9.37315683318e-06 0)
(0.000305186139805 8.74486622725e-06 0)
(0.000295326392563 8.14253681984e-06 0)
(0.000286135717493 7.56937767369e-06 0)
(0.000277582454675 7.02725251868e-06 0)
(0.000269632970565 6.51696379878e-06 0)
(0.000262252751752 6.03850129819e-06 0)
(0.000255407249562 5.5912522384e-06 0)
(0.000249062513073 5.1741737104e-06 0)
(0.000243185647191 4.78593075429e-06 0)
(0.000237745129413 4.42500445472e-06 0)
(0.000232711014775 4.089774825e-06 0)
(0.000228055054 3.77858301495e-06 0)
(0.000223750745512 3.48977701909e-06 0)
(0.000219773337985 3.22174446124e-06 0)
(0.00021609979655 2.97293554082e-06 0)
(0.000212708742772 2.741878663e-06 0)
(0.000209580375921 2.52719088701e-06 0)
(0.000206696380898 2.327584928e-06 0)
(0.000204039826326 2.14187422207e-06 0)
(0.000201595054742 1.96897735219e-06 0)
(0.000199347565338 1.80792307691e-06 0)
(0.000197283888391 1.65785718825e-06 0)
(0.000195391449075 1.51805256149e-06 0)
(0.000193658416916 1.38792398751e-06 0)
(0.00019207353537 1.26704979462e-06 0)
(0.000190625924081 1.15520288207e-06 0)
(0.000189304843847 1.05239471634e-06 0)
(0.000188099411553 9.58937201897e-07 0)
(0.00018699824903 8.75529316755e-07 0)
(0.000185989046836 8.0337826003e-07 0)
(0.00018505802271 7.4436875684e-07 0)
(0.000184189259473 7.01298854569e-07 0)
(0.000183363929692 6.78203476663e-07 0)
(0.000182559483441 6.80777578645e-07 0)
(0.000181749064185 7.16848675469e-07 0)
(0.000180901917951 7.96582534908e-07 0)
(0.00017998681683 9.31043788461e-07 0)
(0.000178984288817 1.12307239106e-06 0)
(0.000177911695473 1.31671323305e-06 0)
(0.00122478101804 0.000267931357155 0)
(0.00124107660759 0.000383706285337 0)
(0.00119615560442 0.000347857026135 0)
(0.00111335871689 0.000284154026751 0)
(0.00102030781348 0.000225661386553 0)
(0.000930705001642 0.000178611735406 0)
(0.000849981747129 0.000142223548952 0)
(0.000779533133493 0.000114300444514 0)
(0.000718991446034 9.276403019e-05 0)
(0.000667331898474 7.59763668117e-05 0)
(0.000623376699991 6.27224554569e-05 0)
(0.000586006423915 5.21188387459e-05 0)
(0.000554234994039 4.3524664473e-05 0)
(0.000527224304037 3.6472196219e-05 0)
(0.000504274350512 3.06164633814e-05 0)
(0.000484805246687 2.56998285722e-05 0)
(0.000468338199158 2.15272784876e-05 0)
(0.000454478215958 1.79491763151e-05 0)
(0.000442899377118 1.48491458879e-05 0)
(0.000433332680134 1.21354814122e-05 0)
(0.000425556167749 9.734990469e-06 0)
(0.000419386967616 7.58852965082e-06 0)
(0.00041467488888 5.64772904637e-06 0)
(0.000411297268526 3.8725608805e-06 0)
(0.000409154814029 2.22951457511e-06 0)
(0.000408168237893 6.90213065454e-07 0)
(0.000408275520735 -7.69645303524e-07 0)
(0.000409429671234 -2.1710976438e-06 0)
(0.000411596877593 -3.53254120718e-06 0)
(0.000414754966319 -4.87021654727e-06 0)
(0.000418892096356 -6.19857086604e-06 0)
(0.000424005625498 -7.53052066659e-06 0)
(0.000430101093023 -8.87762623368e-06 0)
(0.000437191266054 -1.02501841285e-05 0)
(0.000445295198199 -1.16572392396e-05 0)
(0.000454437248088 -1.31065139779e-05 0)
(0.000464646002937 -1.46042493533e-05 0)
(0.00047595304877 -1.61549504741e-05 0)
(0.000488391525166 -1.77610284188e-05 0)
(0.000501994399411 -1.94223313976e-05 0)
(0.000516792394195 -2.11355621589e-05 0)
(0.000532811506463 -2.2893586073e-05 0)
(0.00055007006529 -2.46846471042e-05 0)
(0.000568575296799 -2.64915271987e-05 0)
(0.00058831939726 -2.8290709512e-05 0)
(0.000609275164757 -3.00516354999e-05 0)
(0.000631391306236 -3.17361776316e-05 0)
(0.000654587619263 -3.32984762139e-05 0)
(0.000678750340277 -3.46853021585e-05 0)
(0.000703728042125 -3.58370960179e-05 0)
(0.00072932853634 -3.66897898757e-05 0)
(0.000755317270392 -3.71774410743e-05 0)
(0.000781417690275 -3.72356076156e-05 0)
(0.000807313957633 -3.68052961586e-05 0)
(0.000832656275271 -3.58372400424e-05 0)
(0.000857068903896 -3.42962236996e-05 0)
(0.000880160762306 -3.21651407069e-05 0)
(0.000901538292002 -2.94484133742e-05 0)
(0.000920820014653 -2.61742947069e-05 0)
(0.000937651903623 -2.23954727538e-05 0)
(0.000951722367379 -1.81874365573e-05 0)
(0.000962775419291 -1.36443674237e-05 0)
(0.000970620638868 -8.87287878525e-06 0)
(0.000975138905588 -3.98453629771e-06 0)
(0.000976283551275 9.11543567012e-07 0)
(0.000974077332207 5.71477265391e-06 0)
(0.000968606234969 1.03370097804e-05 0)
(0.000960011409896 1.47042324054e-05 0)
(0.000948480443735 1.87563793516e-05 0)
(0.000934238874758 2.24460220869e-05 0)
(0.000917542452556 2.57366045667e-05 0)
(0.000898670263568 2.86008492905e-05 0)
(0.000877918563033 3.10197087711e-05 0)
(0.000855594997835 3.29820117529e-05 0)
(0.000832012874838 3.44847320845e-05 0)
(0.000807485218419 3.55336153048e-05 0)
(0.000782318543889 3.61437735908e-05 0)
(0.000756806498373 3.63398482659e-05 0)
(0.000731223718273 3.61554498471e-05 0)
(0.000705820361137 3.56317823263e-05 0)
(0.000680817759541 3.48155707389e-05 0)
(0.000656405526027 3.37565710121e-05 0)
(0.000632740253827 3.25050072532e-05 0)
(0.000609945762335 3.11092538665e-05 0)
(0.000588114675335 2.96139866531e-05 0)
(0.00056731101947 2.80589101534e-05 0)
(0.000547573494702 2.64780620442e-05 0)
(0.000528919085791 2.48996202668e-05 0)
(0.000511346735793 2.33460988365e-05 0)
(0.00049484087016 2.18348092636e-05 0)
(0.000479374628987 2.03784756142e-05 0)
(0.00046491272574 1.89859131935e-05 0)
(0.000451413899232 1.76627053764e-05 0)
(0.000438832960745 1.64118360504e-05 0)
(0.000427122461323 1.52342536031e-05 0)
(0.000416234017559 1.41293562961e-05 0)
(0.000406119340285 1.30953981325e-05 0)
(0.000396731011472 1.21298202065e-05 0)
(0.000388023052455 1.1229515544e-05 0)
(0.000379951322399 1.03910367886e-05 0)
(0.000372473781093 9.61075610754e-06 0)
(0.000365550644897 8.88498616106e-06 0)
(0.0003591444598 8.21006999262e-06 0)
(0.000353220110984 7.582446701e-06 0)
(0.000347744784263 6.99869869967e-06 0)
(0.000342687891277 6.45558548492e-06 0)
(0.000338020967309 5.95006804997e-06 0)
(0.000333717547961 5.47932749182e-06 0)
(0.000329753028723 5.04078092588e-06 0)
(0.000326104509439 4.6320975602e-06 0)
(0.000322750623892 4.25121771259e-06 0)
(0.000319671353065 3.89637762935e-06 0)
(0.00031684781905 3.56614327926e-06 0)
(0.000314262055069 3.25945674724e-06 0)
(0.000311896745757 2.97569959032e-06 0)
(0.000309734930857 2.71477835942e-06 0)
(0.000307759665369 2.47723854925e-06 0)
(0.000305953630871 2.26441403902e-06 0)
(0.000304298698195 2.07861917213e-06 0)
(0.000302775454613 1.92338792648e-06 0)
(0.000301362736592 1.80375484173e-06 0)
(0.000300037265784 1.72654341501e-06 0)
(0.000298773597366 1.70054892877e-06 0)
(0.000297544802086 1.73628938496e-06 0)
(0.000296324680678 1.84440688081e-06 0)
(0.000295092915177 2.03008280739e-06 0)
(0.000293844297486 2.2751885413e-06 0)
(0.000292595667031 2.48583256016e-06 0)
(0.00122192088354 0.000221229427907 0)
(0.00125335563118 0.00038267780833 0)
(0.00125097512879 0.000396186925864 0)
(0.00121321423089 0.00035638183016 0)
(0.00115509785902 0.000304600777204 0)
(0.00108903158415 0.000255341351043 0)
(0.00102249071181 0.000212757980377 0)
(0.000959437471553 0.000177267787854 0)
(0.000901698351209 0.000148077416304 0)
(0.000849894507299 0.000124126294801 0)
(0.000804006497928 0.000104415659184 0)
(0.000763700373448 8.81019609455e-05 0)
(0.000728509458556 7.45038142005e-05 0)
(0.000697932115932 6.30810083459e-05 0)
(0.000671481777196 5.34078750783e-05 0)
(0.000648710425709 4.51488063411e-05 0)
(0.000629217669389 3.80380415479e-05 0)
(0.000612652259924 3.18637459526e-05 0)
(0.000598709877628 2.6455740678e-05 0)
(0.000587129272994 2.16761349831e-05 0)
(0.000577687881056 1.74121915915e-05 0)
(0.000570197479863 1.35708840098e-05 0)
(0.000564500163498 1.00747278683e-05 0)
(0.000560464736881 6.85857114904e-06 0)
(0.0005579835535 3.86710843311e-06 0)
(0.000556969773741 1.05294554068e-06 0)
(0.000557355001397 -1.62491362566e-06 0)
(0.000559087246009 -4.20224557497e-06 0)
(0.000562129159626 -6.71053024388e-06 0)
(0.000566456499023 -9.17766856642e-06 0)
(0.000572056761762 -1.16285206427e-05 0)
(0.00057892794617 -1.40852897406e-05 0)
(0.000587077386595 -1.65677669367e-05 0)
(0.000596520614332 -1.90934428454e-05 0)
(0.000607280192548 -2.16774867118e-05 0)
(0.000619384470409 -2.43325876586e-05 0)
(0.000632866197648 -2.70686491851e-05 0)
(0.000647760936506 -2.98923252611e-05 0)
(0.000664105203922 -3.28063863887e-05 0)
(0.00068193427428 -3.58089065216e-05 0)
(0.000701279573288 -3.88922694009e-05 0)
(0.00072216559897 -4.20420059598e-05 0)
(0.000744606318765 -4.52354961276e-05 0)
(0.000768601015797 -4.84405985727e-05 0)
(0.00079412959585 -5.16143124973e-05 0)
(0.000821147422734 -5.47016230929e-05 0)
(0.000849579825201 -5.76347328525e-05 0)
(0.000879316512222 -6.03329228559e-05 0)
(0.000910206238944 -6.27033082619e-05 0)
(0.000942052170371 -6.46427316133e-05 0)
(0.000974608473891 -6.60409640588e-05 0)
(0.00100757871157 -6.67852544486e-05 0)
(0.00104061657703 -6.6766099276e-05 0)
(0.00107332942032 -6.58839386614e-05 0)
(0.00110528483761 -6.40563595884e-05 0)
(0.00113602039764 -6.12253230287e-05 0)
(0.00116505636053 -5.73638952135e-05 0)
(0.001191911019 -5.24818808142e-05 0)
(0.00121611802282 -4.66295875199e-05 0)
(0.00123724469834 -3.98987769359e-05 0)
(0.00125490997374 -3.24199016804e-05 0)
(0.00126880021083 -2.435521849e-05 0)
(0.00127868123949 -1.58883000742e-05 0)
(0.00128440533121 -7.21149480171e-06 0)
(0.00128591266943 1.48649909771e-06 0)
(0.0012832278119 1.00308766129e-05 0)
(0.00127645238481 1.82674148971e-05 0)
(0.00126575557006 2.60654537093e-05 0)
(0.0012513638216 3.33178609622e-05 0)
(0.00123355085053 3.99390700716e-05 0)
(0.00121262843324 4.58623861547e-05 0)
(0.00118893816108 5.10375184787e-05 0)
(0.0011628439428 5.54289465005e-05 0)
(0.00113472490227 5.90153652586e-05 0)
(0.00110496828213 6.17901036449e-05 0)
(0.00107396206601 6.37620938016e-05 0)
(0.00104208724722 6.49567609388e-05 0)
(0.00100970994047 6.54161802871e-05 0)
(0.000977173770502 6.5198029391e-05 0)
(0.000944793097564 6.43731887303e-05 0)
(0.00091284762036 6.3022193536e-05 0)
(0.0008815787458 6.1231001502e-05 0)
(0.000851187888023 5.90866471642e-05 0)
(0.000821836624085 5.66733055058e-05 0)
(0.000793648445475 5.40691329962e-05 0)
(0.000766711731523 5.13440628522e-05 0)
(0.000741083534393 4.85585579626e-05 0)
(0.00071679378971 4.5763202804e-05 0)
(0.000693849629014 4.29989506564e-05 0)
(0.00067223954845 4.02978267504e-05 0)
(0.000651937266394 3.76839045303e-05 0)
(0.000632905171284 3.51744064603e-05 0)
(0.00061509731539 3.27808195306e-05 0)
(0.000598461950174 3.05099522966e-05 0)
(0.00058294362559 2.83648901742e-05 0)
(0.000568484891732 2.63458286397e-05 0)
(0.000555027649279 2.44507796043e-05 0)
(0.00054251419746 2.26761564932e-05 0)
(0.000530888026928 2.10172491652e-05 0)
(0.000520094401234 1.94686026405e-05 0)
(0.000510080765807 1.80243141599e-05 0)
(0.000500797018114 1.66782626564e-05 0)
(0.000492195667425 1.54242834226e-05 0)
(0.000484231907762 1.42562993324e-05 0)
(0.000476863623111 1.31684183961e-05 0)
(0.000470051340078 1.21550060378e-05 0)
(0.000463758139705 1.12107392306e-05 0)
(0.000457949537169 1.03306486155e-05 0)
(0.000452593335535 9.51015397501e-06 0)
(0.00044765945749 8.74509786769e-06 0)
(0.000443119757063 8.03178197301e-06 0)
(0.000438947811709 7.36701054274e-06 0)
(0.0004351186938 6.74814551864e-06 0)
(0.000431608719575 6.17317801312e-06 0)
(0.000428395173235 5.6408211896e-06 0)
(0.000425456004338 5.15062953218e-06 0)
(0.000422769498751 4.70314905327e-06 0)
(0.000420313928076 4.30010081279e-06 0)
(0.000418067191731 3.94459492428e-06 0)
(0.000416006482577 3.64135972443e-06 0)
(0.000414108036065 3.39694362256e-06 0)
(0.0004123470713 3.21978739363e-06 0)
(0.000410698108952 3.11993389591e-06 0)
(0.000409135959375 3.10784812781e-06 0)
(0.000407637785187 3.19114258593e-06 0)
(0.000406186514066 3.36638219964e-06 0)
(0.000404774383818 3.59963115731e-06 0)
(0.000403398442312 3.78594011743e-06 0)
(0.00121691970341 0.000182388808615 0)
(0.00124902612041 0.000357977186041 0)
(0.00126552248694 0.000406771595179 0)
(0.00125559947638 0.000393480981519 0)
(0.0012250364951 0.000356180892393 0)
(0.00118214674798 0.000312717172112 0)
(0.00113348239755 0.000270587296942 0)
(0.00108342043097 0.000232553593582 0)
(0.00103464959406 0.000199301483936 0)
(0.00098870180044 0.000170653781631 0)
(0.000946360644739 0.000146117255418 0)
(0.000907943936818 0.000125123116424 0)
(0.000873490171638 0.000107127259693 0)
(0.000842878323782 9.16466760875e-05 0)
(0.000815903284183 7.82675105395e-05 0)
(0.000792322461755 6.66412720237e-05 0)
(0.00077188391996 5.64768037986e-05 0)
(0.000754342826824 4.75314189309e-05 0)
(0.000739470591029 3.96026214297e-05 0)
(0.000727059479612 3.25209091184e-05 0)
(0.00071692449201 2.61437391999e-05 0)
(0.000708903609651 2.03505656787e-05 0)
(0.000702857121443 1.50388001546e-05 0)
(0.000698666458699 1.01205413729e-05 0)
(0.000696232803399 5.51993389075e-06 0)
(0.000695475625871 1.17103828012e-06 0)
(0.000696331239423 -2.98388273408e-06 0)
(0.00069875141307 -6.99572596675e-06 0)
(0.000702702061169 -1.09096389433e-05 0)
(0.000708162010115 -1.47658718148e-05 0)
(0.000715121823287 -1.86004132823e-05 0)
(0.000723582659675 -2.24454344371e-05 0)
(0.000733555135118 -2.63295514523e-05 0)
(0.000745058148444 -3.02779098296e-05 0)
(0.000758117628723 -3.43120860891e-05 0)
(0.000772765153885 -3.84497969823e-05 0)
(0.000789036385003 -4.27044021308e-05 0)
(0.000806969254853 -4.70841836227e-05 0)
(0.000826601844551 -5.15913869036e-05 0)
(0.00084796987902 -5.62210122436e-05 0)
(0.000871103772261 -6.09593574704e-05 0)
(0.000896025158869 -6.57823323202e-05 0)
(0.000922742861692 -7.06535955567e-05 0)
(0.000951248270325 -7.55226094022e-05 0)
(0.000981510145087 -8.03227628408e-05 0)
(0.00101346892001 -8.49697829698e-05 0)
(0.00104703065883 -8.93607249675e-05 0)
(0.00108206091961 -9.33738917705e-05 0)
(0.00111837890131 -9.6870063702e-05 0)
(0.00115575236499 -9.96953901013e-05 0)
(0.00119389392239 -0.000101686188414 0)
(0.00123245933483 -0.000102675705391 0)
(0.00127104843784 -0.000102502645344 0)
(0.00130920918871 -0.000101021018638 0)
(0.00134644513667 -9.81106798819e-05 0)
(0.00138222638031 -9.36878439993e-05 0)
(0.00141600384701 -8.77148431446e-05 0)
(0.00144722651216 -8.02082963066e-05 0)
(0.00147536091423 -7.12446167744e-05 0)
(0.00149991193606 -6.09614814438e-05 0)
(0.00152044331275 -4.95538819896e-05 0)
(0.00153659587269 -3.72640636163e-05 0)
(0.00154810143181 -2.43660668159e-05 0)
(0.00155479076895 -1.11471772582e-05 0)
(0.00155659513854 2.11045644979e-06 0)
(0.00155354195866 1.51449420194e-05 0)
(0.00154574622278 2.77245004419e-05 0)
(0.00153339953542 3.96518610564e-05 0)
(0.00151675846161 5.07642694512e-05 0)
(0.00149613334523 6.0930744953e-05 0)
(0.00147187815032 7.00483209525e-05 0)
(0.00144438138511 7.80386189764e-05 0)
(0.00141405784414 8.48456023533e-05 0)
(0.00138134073344 9.04348556535e-05 0)
(0.00134667371361 9.47942450124e-05 0)
(0.00131050251586 9.79353539046e-05 0)
(0.00127326604564 9.9894772573e-05 0)
(0.00123538721913 0.000100734279271 0)
(0.00119726406914 0.000100539222131 0)
(0.00115926180808 9.94148961386e-05 0)
(0.00112170650141 9.74812306974e-05 0)
(0.00108488080959 9.48664862625e-05 0)
(0.00104902197428 9.17008062897e-05 0)
(0.00101432194232 8.81103888255e-05 0)
(0.000980929304944 8.42128085229e-05 0)
(0.000948952608839 8.01137371462e-05 0)
(0.000918464566592 7.59050603351e-05 0)
(0.000889506732456 7.16642146902e-05 0)
(0.000862094286799 6.74544793402e-05 0)
(0.000836220663374 6.33259356616e-05 0)
(0.000811861840797 5.93168338309e-05 0)
(0.00078898019373 5.54551534387e-05 0)
(0.000767527857002 5.17602003075e-05 0)
(0.000747449597411 4.82441329482e-05 0)
(0.000728685215644 4.4913354388e-05 0)
(0.000711171517347 4.17697373336e-05 0)
(0.000694843900821 3.88116731699e-05 0)
(0.000679637611544 3.60349500596e-05 0)
(0.000665488712633 3.34334740082e-05 0)
(0.000652334816998 3.09998511438e-05 0)
(0.000640115622356 2.87258508662e-05 0)
(0.000628773285105 2.66027691898e-05 0)
(0.000618252663929 2.46217101921e-05 0)
(0.000608501459065 2.27738016292e-05 0)
(0.00059947026862 2.10503587622e-05 0)
(0.000591112579302 1.94430085212e-05 0)
(0.000583384705324 1.7943784414e-05 0)
(0.000576245686167 1.65452011281e-05 0)
(0.000569657151197 1.52403166145e-05 0)
(0.000563583156871 1.40227885413e-05 0)
(0.00055799000039 1.28869313912e-05 0)
(0.000552846012102 1.18277800299e-05 0)
(0.000548121327915 1.08411653136e-05 0)
(0.000543787642325 9.92380698541e-06 0)
(0.000539817942798 9.07342865097e-06 0)
(0.000536186227329 8.28889847369e-06 0)
(0.000532867209558 7.57039684159e-06 0)
(0.000529836020707 6.91960713745e-06 0)
(0.000527067925704 6.33991563742e-06 0)
(0.000524538083958 5.83658660577e-06 0)
(0.000522221404765 5.41684004018e-06 0)
(0.000520092574813 5.08968406744e-06 0)
(0.000518126367918 4.86520546261e-06 0)
(0.000516298368447 4.7527250197e-06 0)
(0.000514586178305 4.75662966578e-06 0)
(0.000512970775135 4.86756932579e-06 0)
(0.00051143613046 5.0452141636e-06 0)
(0.000509961671089 5.19073346229e-06 0)
(0.00121283050616 0.000152638562021 0)
(0.00124165614045 0.000326795296622 0)
(0.0012656377682 0.000397475395646 0)
(0.00127184746276 0.000406490403726 0)
(0.00126054574801 0.000385036073998 0)
(0.00123637436867 0.000350923025567 0)
(0.00120417006649 0.000313250005239 0)
(0.00116776513563 0.000276357692387 0)
(0.00112989456898 0.000242138698923 0)
(0.00109239852522 0.000211260314987 0)
(0.00105645602445 0.000183794290456 0)
(0.00102278021864 0.000159538508239 0)
(0.000991765654518 0.000138180111757 0)
(0.000963594397977 0.000119376844718 0)
(0.000938310652996 0.000102796044754 0)
(0.000915872393514 8.81317401941e-05 0)
(0.000896186638739 7.51105551093e-05 0)
(0.00087913326215 6.34920629062e-05 0)
(0.000864580843039 5.30665607765e-05 0)
(0.00085239703855 4.3651817136e-05 0)
(0.000842455208614 3.50895833956e-05 0)
(0.000834638496384 2.72422541244e-05 0)
(0.000828842194395 1.99898434775e-05 0)
(0.000824974966632 1.32273337678e-05 0)
(0.000822959315771 6.86239660399e-06 0)
(0.000822731559034 8.13462585152e-07 0)
(0.000824241487575 -4.99189253399e-06 0)
(0.000827451821441 -1.06182632303e-05 0)
(0.000832337537583 -1.61235016521e-05 0)
(0.000838885112833 -2.15595652871e-05 0)
(0.000847091694695 -2.69731432e-05 0)
(0.000856964202647 -3.24060737489e-05 0)
(0.000868518348491 -3.78955550623e-05 0)
(0.000881777553081 -4.34741427723e-05 0)
(0.000896771727095 -4.9169523378e-05 0)
(0.000913535874791 -5.50040461415e-05 0)
(0.000932108471706 -6.09939926281e-05 0)
(0.000952529559916 -6.71485612587e-05 0)
(0.000974838498366 -7.34685463735e-05 0)
(0.000999071301448 -7.99446986175e-05 0)
(0.00102525749794 -8.65557689061e-05 0)
(0.00105341644635 -9.32662641887e-05 0)
(0.00108355305437 -0.000100023983433 0)
(0.00111565287314 -0.000106757458823 0)
(0.00114967657548 -0.000113373501711 0)
(0.00118555388583 -0.000119755142137 0)
(0.00122317711298 -0.000125760346349 0)
(0.00126239454541 -0.000131221980223 0)
(0.00130300409986 -0.000135949530263 0)
(0.0013447477532 -0.000139733061894 0)
(0.00138730741006 -0.000142349754958 0)
(0.00143030292778 -0.000143573096065 0)
(0.00147329299798 -0.000143184458141 0)
(0.00151577944837 -0.000140986440671 0)
(0.00155721529543 -0.000136817089618 0)
(0.00159701660692 -0.000130564028854 0)
(0.00163457799518 -0.000122177554567 0)
(0.00166929137509 -0.000111681671797 0)
(0.00170056739642 -9.91817054493e-05 0)
(0.00172785854358 -8.48665997034e-05 0)
(0.00175068223264 -6.90038631306e-05 0)
(0.00176864155236 -5.19259907294e-05 0)
(0.00178144106254 -3.4009232658e-05 0)
(0.00178889565191 -1.56479575171e-05 0)
(0.00179093178362 2.7707189231e-06 0)
(0.00178758198857 2.08876405873e-05 0)
(0.00177897460055 3.83849146628e-05 0)
(0.00176532109864 5.4991628139e-05 0)
(0.00174690306615 7.04836039717e-05 0)
(0.00172406002769 8.46795634087e-05 0)
(0.00169717866384 9.74360613144e-05 0)
(0.00166668334296 0.00010864296546 0)
(0.0016330275793 0.00011822056053 0)
(0.00159668586198 0.000126118723438 0)
(0.00155814527093 0.000132317982752 0)
(0.00151789643713 0.000136831638111 0)
(0.0014764237258 0.000139707655346 0)
(0.0014341949422 0.000141028986633 0)
(0.0013916512303 0.000140911351094 0)
(0.00134919802111 0.000139498206318 0)
(0.00130719783213 0.000136953379735 0)
(0.00126596546131 0.000133452358476 0)
(0.00122576576084 0.000129173423959 0)
(0.00118681383326 0.000124289680845 0)
(0.0011492772439 0.000118962690016 0)
(0.00111327972001 0.000113338019667 0)
(0.00107890579265 0.000107542689313 0)
(0.00104620589912 0.000101684253738 0)
(0.0010152015627 9.58511618344e-05 0)
(0.000985890373164 9.01140052683e-05 0)
(0.000958250589338 8.45273099998e-05 0)
(0.000932245263401 7.91315903941e-05 0)
(0.000907825846052 7.39554587682e-05 0)
(0.000884935272682 6.90176504261e-05 0)
(0.000863510557151 6.43288791858e-05 0)