/*--------------------------------*- C++ -*----------------------------------*\
  =========                 |
  \\      /  F ield         | OpenFOAM: The Open Source CFD Toolbox
   \\    /   O peration     | Website:  https://openfoam.org
    \\  /    A nd           | Version:  7
     \\/     M anipulation  |
\*---------------------------------------------------------------------------*/
FoamFile
{
    version     2.0;
    format      ascii;
    class       volScalarField;
    location    "2339.99947343932445";
    object      p;
}
// * * * * * * * * * * * * * * * * * * * * * * * * * * * * * * * * * * * * * //

dimensions      [0 2 -2 0 0 0 0];

internalField   nonuniform List<scalar> 
4096
(
0.0005569
0.000386
0.0003017
0.0002595
0.0002362
0.0002222
0.0002133
0.0002072
0.0002028
0.0001996
0.000197
0.000195
0.0001933
0.0001919
0.0001908
0.0001898
0.0001889
0.0001881
0.0001874
0.0001867
0.0001861
0.0001855
0.000185
0.0001845
0.000184
0.0001835
0.000183
0.0001825
0.0001821
0.0001816
0.0001811
0.0001806
0.0001802
0.0001797
0.0001791
0.0001786
0.000178
0.0001774
0.0001768
0.0001761
0.0001753
0.0001744
0.0001735
0.0001725
0.0001713
0.00017
0.0001685
0.0001668
0.000165
0.0001629
0.0001605
0.0001579
0.000155
0.0001518
0.0001483
0.0001445
0.0001403
0.0001359
0.0001312
0.0001262
0.0001209
0.0001155
0.0001099
0.0001042
9.852e-05
9.282e-05
8.717e-05
8.164e-05
7.627e-05
7.109e-05
6.613e-05
6.142e-05
5.698e-05
5.283e-05
4.896e-05
4.538e-05
4.208e-05
3.906e-05
3.631e-05
3.382e-05
3.157e-05
2.953e-05
2.771e-05
2.607e-05
2.46e-05
2.328e-05
2.209e-05
2.103e-05
2.006e-05
1.919e-05
1.839e-05
1.766e-05
1.698e-05
1.635e-05
1.576e-05
1.52e-05
1.466e-05
1.415e-05
1.365e-05
1.316e-05
1.269e-05
1.222e-05
1.176e-05
1.13e-05
1.084e-05
1.039e-05
9.929e-06
9.472e-06
9.015e-06
8.556e-06
8.095e-06
7.632e-06
7.166e-06
6.698e-06
6.228e-06
5.755e-06
5.279e-06
4.8e-06
4.319e-06
3.835e-06
3.349e-06
2.861e-06
2.372e-06
1.883e-06
1.398e-06
9.22e-07
4.667e-07
9.988e-08
0.0004124
0.0003486
0.0002988
0.0002668
0.0002458
0.0002316
0.0002215
0.0002142
0.0002087
0.0002044
0.0002011
0.0001985
0.0001963
0.0001944
0.0001929
0.0001916
0.0001904
0.0001894
0.0001885
0.0001876
0.0001869
0.0001861
0.0001855
0.0001848
0.0001842
0.0001836
0.000183
0.0001825
0.0001819
0.0001813
0.0001808
0.0001802
0.0001796
0.000179
0.0001784
0.0001778
0.0001771
0.0001764
0.0001756
0.0001748
0.0001739
0.000173
0.0001719
0.0001708
0.0001695
0.0001681
0.0001665
0.0001647
0.0001628
0.0001607
0.0001583
0.0001557
0.0001528
0.0001496
0.0001462
0.0001424
0.0001384
0.0001341
0.0001296
0.0001248
0.0001198
0.0001146
0.0001093
0.0001039
9.848e-05
9.306e-05
8.77e-05
8.243e-05
7.731e-05
7.235e-05
6.76e-05
6.307e-05
5.879e-05
5.476e-05
5.099e-05
4.748e-05
4.423e-05
4.124e-05
3.849e-05
3.598e-05
3.369e-05
3.161e-05
2.972e-05
2.801e-05
2.646e-05
2.506e-05
2.378e-05
2.262e-05
2.156e-05
2.059e-05
1.97e-05
1.888e-05
1.811e-05
1.74e-05
1.672e-05
1.608e-05
1.548e-05
1.489e-05
1.433e-05
1.378e-05
1.325e-05
1.273e-05
1.222e-05
1.172e-05
1.122e-05
1.073e-05
1.023e-05
9.747e-06
9.261e-06
8.776e-06
8.292e-06
7.808e-06
7.324e-06
6.839e-06
6.354e-06
5.868e-06
5.38e-06
4.892e-06
4.402e-06
3.911e-06
3.42e-06
2.927e-06
2.436e-06
1.946e-06
1.459e-06
9.805e-07
5.154e-07
1.2e-07
0.0003289
0.0003073
0.0002818
0.000261
0.0002455
0.0002338
0.0002248
0.0002178
0.0002122
0.0002077
0.0002041
0.0002011
0.0001986
0.0001965
0.0001947
0.0001931
0.0001918
0.0001906
0.0001895
0.0001885
0.0001876
0.0001867
0.0001859
0.0001852
0.0001845
0.0001838
0.0001831
0.0001824
0.0001818
0.0001811
0.0001805
0.0001798
0.0001791
0.0001784
0.0001777
0.000177
0.0001762
0.0001754
0.0001745
0.0001736
0.0001726
0.0001716
0.0001704
0.0001692
0.0001678
0.0001663
0.0001646
0.0001628
0.0001608
0.0001587
0.0001563
0.0001536
0.0001508
0.0001476
0.0001443
0.0001406
0.0001367
0.0001326
0.0001282
0.0001236
0.0001188
0.0001138
0.0001088
0.0001036
9.844e-05
9.326e-05
8.813e-05
8.31e-05
7.819e-05
7.345e-05
6.888e-05
6.452e-05
6.038e-05
5.647e-05
5.279e-05
4.936e-05
4.616e-05
4.32e-05
4.047e-05
3.795e-05
3.564e-05
3.353e-05
3.159e-05
2.982e-05
2.82e-05
2.673e-05
2.537e-05
2.413e-05
2.299e-05
2.194e-05
2.096e-05
2.006e-05
1.921e-05
1.841e-05
1.766e-05
1.695e-05
1.628e-05
1.563e-05
1.5e-05
1.44e-05
1.381e-05
1.324e-05
1.268e-05
1.214e-05
1.16e-05
1.107e-05
1.054e-05
1.003e-05
9.512e-06
9.002e-06
8.494e-06
7.989e-06
7.486e-06
6.985e-06
6.484e-06
5.985e-06
5.485e-06
4.987e-06
4.488e-06
3.989e-06
3.491e-06
2.994e-06
2.497e-06
2.002e-06
1.509e-06
1.022e-06
5.409e-07
1.232e-07
0.0002842
0.0002771
0.0002638
0.0002506
0.0002397
0.0002309
0.0002238
0.0002179
0.000213
0.0002089
0.0002054
0.0002025
0.0002
0.0001978
0.0001959
0.0001942
0.0001927
0.0001914
0.0001902
0.0001891
0.0001881
0.0001872
0.0001863
0.0001854
0.0001846
0.0001839
0.0001831
0.0001824
0.0001816
0.0001809
0.0001801
0.0001794
0.0001786
0.0001779
0.0001771
0.0001763
0.0001754
0.0001745
0.0001736
0.0001726
0.0001715
0.0001703
0.0001691
0.0001678
0.0001663
0.0001648
0.0001631
0.0001612
0.0001592
0.000157
0.0001546
0.000152
0.0001491
0.0001461
0.0001428
0.0001392
0.0001354
0.0001314
0.0001271
0.0001227
0.000118
0.0001132
0.0001083
0.0001034
9.838e-05
9.339e-05
8.845e-05
8.36e-05
7.886e-05
7.428e-05
6.986e-05
6.564e-05
6.162e-05
5.781e-05
5.423e-05
5.087e-05
4.772e-05
4.48e-05
4.209e-05
3.958e-05
3.726e-05
3.512e-05
3.316e-05
3.135e-05
2.969e-05
2.815e-05
2.674e-05
2.544e-05
2.423e-05
2.311e-05
2.207e-05
2.11e-05
2.018e-05
1.932e-05
1.851e-05
1.773e-05
1.7e-05
1.629e-05
1.561e-05
1.496e-05
1.433e-05
1.371e-05
1.311e-05
1.252e-05
1.195e-05
1.139e-05
1.083e-05
1.029e-05
9.747e-06
9.213e-06
8.684e-06
8.16e-06
7.639e-06
7.122e-06
6.608e-06
6.095e-06
5.585e-06
5.076e-06
4.569e-06
4.062e-06
3.557e-06
3.053e-06
2.549e-06
2.047e-06
1.547e-06
1.048e-06
5.525e-07
1.206e-07
0.0002573
0.0002563
0.0002493
0.0002407
0.0002329
0.0002264
0.0002209
0.0002162
0.0002121
0.0002086
0.0002055
0.0002028
0.0002005
0.0001984
0.0001965
0.0001948
0.0001933
0.0001919
0.0001907
0.0001895
0.0001885
0.0001875
0.0001865
0.0001856
0.0001847
0.0001839
0.0001831
0.0001823
0.0001815
0.0001807
0.0001799
0.0001791
0.0001782
0.0001774
0.0001765
0.0001756
0.0001747
0.0001737
0.0001727
0.0001717
0.0001705
0.0001693
0.000168
0.0001666
0.0001651
0.0001635
0.0001618
0.0001599
0.0001579
0.0001557
0.0001533
0.0001507
0.0001479
0.0001448
0.0001416
0.0001381
0.0001344
0.0001305
0.0001263
0.000122
0.0001174
0.0001128
0.000108
0.0001032
9.831e-05
9.346e-05
8.866e-05
8.395e-05
7.935e-05
7.489e-05
7.06e-05
6.649e-05
6.257e-05
5.886e-05
5.535e-05
5.205e-05
4.896e-05
4.607e-05
4.338e-05
4.089e-05
3.857e-05
3.643e-05
3.445e-05
3.262e-05
3.092e-05
2.935e-05
2.79e-05
2.655e-05
2.529e-05
2.412e-05
2.303e-05
2.2e-05
2.103e-05
2.011e-05
1.925e-05
1.842e-05
1.763e-05
1.688e-05
1.616e-05
1.546e-05
1.478e-05
1.413e-05
1.349e-05
1.287e-05
1.227e-05
1.167e-05
1.109e-05
1.052e-05
9.959e-06
9.404e-06
8.857e-06
8.315e-06
7.779e-06
7.248e-06
6.72e-06
6.197e-06
5.676e-06
5.158e-06
4.642e-06
4.128e-06
3.616e-06
3.104e-06
2.594e-06
2.085e-06
1.576e-06
1.068e-06
5.596e-07
1.176e-07
0.0002399
0.0002415
0.0002381
0.0002324
0.0002267
0.0002217
0.0002173
0.0002136
0.0002103
0.0002074
0.0002047
0.0002024
0.0002003
0.0001983
0.0001966
0.000195
0.0001935
0.0001922
0.0001909
0.0001898
0.0001887
0.0001876
0.0001866
0.0001857
0.0001848
0.0001839
0.000183
0.0001822
0.0001813
0.0001805
0.0001796
0.0001787
0.0001779
0.000177
0.0001761
0.0001751
0.0001741
0.0001731
0.000172
0.0001709
0.0001697
0.0001685
0.0001671
0.0001657
0.0001642
0.0001625
0.0001608
0.0001589
0.0001568
0.0001546
0.0001522
0.0001497
0.0001469
0.0001439
0.0001407
0.0001373
0.0001336
0.0001298
0.0001257
0.0001214
0.000117
0.0001124
0.0001077
0.000103
9.823e-05
9.348e-05
8.878e-05
8.417e-05
7.968e-05
7.532e-05
7.113e-05
6.711e-05
6.327e-05
5.963e-05
5.619e-05
5.295e-05
4.99e-05
4.705e-05
4.439e-05
4.192e-05
3.961e-05
3.747e-05
3.548e-05
3.364e-05
3.193e-05
3.033e-05
2.885e-05
2.747e-05
2.617e-05
2.496e-05
2.382e-05
2.275e-05
2.174e-05
2.078e-05
1.987e-05
1.901e-05
1.818e-05
1.738e-05
1.662e-05
1.589e-05
1.518e-05
1.449e-05
1.382e-05
1.317e-05
1.254e-05
1.192e-05
1.132e-05
1.073e-05
1.014e-05
9.571e-06
9.007e-06
8.451e-06
7.901e-06
7.358e-06
6.819e-06
6.285e-06
5.756e-06
5.229e-06
4.706e-06
4.185e-06
3.666e-06
3.149e-06
2.632e-06
2.116e-06
1.6e-06
1.084e-06
5.653e-07
1.154e-07
0.000228
0.0002305
0.0002292
0.0002255
0.0002213
0.0002174
0.0002139
0.0002108
0.0002081
0.0002057
0.0002035
0.0002014
0.0001996
0.0001979
0.0001963
0.0001948
0.0001934
0.0001921
0.0001909
0.0001898
0.0001887
0.0001876
0.0001866
0.0001857
0.0001848
0.0001838
0.0001829
0.000182
0.0001812
0.0001803
0.0001794
0.0001785
0.0001776
0.0001766
0.0001757
0.0001747
0.0001736
0.0001726
0.0001715
0.0001703
0.0001691
0.0001678
0.0001664
0.0001649
0.0001634
0.0001617
0.00016
0.0001581
0.000156
0.0001538
0.0001515
0.0001489
0.0001462
0.0001432
0.0001401
0.0001367
0.0001331
0.0001293
0.0001253
0.0001211
0.0001167
0.0001122
0.0001075
0.0001029
9.815e-05
9.346e-05
8.883e-05
8.429e-05
7.987e-05
7.559e-05
7.147e-05
6.752e-05
6.375e-05
6.017e-05
5.678e-05
5.359e-05
5.059e-05
4.777e-05
4.514e-05
4.269e-05
4.04e-05
3.827e-05
3.628e-05
3.443e-05
3.271e-05
3.11e-05
2.96e-05
2.82e-05
2.688e-05
2.564e-05
2.447e-05
2.337e-05
2.232e-05
2.133e-05
2.039e-05
1.949e-05
1.862e-05
1.78e-05
1.701e-05
1.624e-05
1.55e-05
1.479e-05
1.41e-05
1.342e-05
1.277e-05
1.213e-05
1.151e-05
1.09e-05
1.03e-05
9.711e-06
9.133e-06
8.564e-06
8.003e-06
7.449e-06
6.901e-06
6.359e-06
5.822e-06
5.289e-06
4.759e-06
4.232e-06
3.708e-06
3.185e-06
2.663e-06
2.142e-06
1.62e-06
1.097e-06
5.707e-07
1.144e-07
0.0002194
0.0002221
0.000222
0.0002198
0.0002167
0.0002136
0.0002107
0.0002082
0.0002059
0.0002039
0.000202
0.0002003
0.0001986
0.0001971
0.0001957
0.0001944
0.0001931
0.0001919
0.0001907
0.0001896
0.0001886
0.0001876
0.0001866
0.0001856
0.0001847
0.0001837
0.0001828
0.0001819
0.000181
0.0001801
0.0001792
0.0001782
0.0001773
0.0001763
0.0001753
0.0001743
0.0001733
0.0001722
0.000171
0.0001698
0.0001686
0.0001673
0.0001659
0.0001644
0.0001628
0.0001612
0.0001594
0.0001575
0.0001554
0.0001533
0.0001509
0.0001484
0.0001457
0.0001428
0.0001397
0.0001363
0.0001328
0.000129
0.000125
0.0001208
0.0001165
0.000112
0.0001074
0.0001027
9.804e-05
9.339e-05
8.88e-05
8.431e-05
7.994e-05
7.571e-05
7.164e-05
6.775e-05
6.403e-05
6.05e-05
5.715e-05
5.4e-05
5.103e-05
4.825e-05
4.565e-05
4.321e-05
4.094e-05
3.883e-05
3.685e-05
3.5e-05
3.328e-05
3.167e-05
3.016e-05
2.874e-05
2.741e-05
2.615e-05
2.496e-05
2.384e-05
2.277e-05
2.175e-05
2.078e-05
1.986e-05
1.897e-05
1.812e-05
1.731e-05
1.652e-05
1.576e-05
1.502e-05
1.431e-05
1.362e-05
1.295e-05
1.229e-05
1.165e-05
1.103e-05
1.042e-05
9.819e-06
9.23e-06
8.651e-06
8.081e-06
7.52e-06
6.965e-06
6.416e-06
5.873e-06
5.335e-06
4.8e-06
4.269e-06
3.74e-06
3.214e-06
2.688e-06
2.163e-06
1.636e-06
1.108e-06
5.765e-07
1.149e-07
0.0002129
0.0002156
0.0002162
0.0002149
0.0002128
0.0002103
0.000208
0.0002058
0.0002038
0.0002021
0.0002005
0.000199
0.0001976
0.0001962
0.000195
0.0001938
0.0001926
0.0001915
0.0001904
0.0001894
0.0001884
0.0001874
0.0001864
0.0001855
0.0001845
0.0001836
0.0001827
0.0001818
0.0001809
0.0001799
0.000179
0.0001781
0.0001771
0.0001761
0.0001751
0.0001741
0.000173
0.0001719
0.0001707
0.0001695
0.0001682
0.0001669
0.0001655
0.000164
0.0001625
0.0001608
0.000159
0.0001571
0.0001551
0.0001529
0.0001506
0.0001481
0.0001454
0.0001425
0.0001395
0.0001361
0.0001326
0.0001289
0.0001249
0.0001207
0.0001164
0.0001119
0.0001073
0.0001026
9.793e-05
9.328e-05
8.87e-05
8.423e-05
7.989e-05
7.569e-05
7.166e-05
6.78e-05
6.412e-05
6.062e-05
5.731e-05
5.419e-05
5.125e-05
4.85e-05
4.592e-05
4.351e-05
4.126e-05
3.916e-05
3.72e-05
3.537e-05
3.365e-05
3.204e-05
3.053e-05
2.911e-05
2.777e-05
2.65e-05
2.53e-05
2.416e-05
2.308e-05
2.205e-05
2.106e-05
2.012e-05
1.922e-05
1.835e-05
1.752e-05
1.671e-05
1.594e-05
1.519e-05
1.446e-05
1.376e-05
1.307e-05
1.241e-05
1.176e-05
1.112e-05
1.05e-05
9.893e-06
9.297e-06
8.711e-06
8.135e-06
7.568e-06
7.008e-06
6.455e-06
5.908e-06
5.366e-06
4.828e-06
4.294e-06
3.763e-06
3.234e-06
2.706e-06
2.178e-06
1.65e-06
1.118e-06
5.829e-07
1.171e-07
0.0002079
0.0002104
0.0002114
0.0002108
0.0002093
0.0002074
0.0002055
0.0002037
0.000202
0.0002004
0.000199
0.0001977
0.0001965
0.0001953
0.0001942
0.0001931
0.000192
0.000191
0.00019
0.000189
0.0001881
0.0001871
0.0001862
0.0001853
0.0001844
0.0001835
0.0001826
0.0001817
0.0001807
0.0001798
0.0001789
0.0001779
0.000177
0.000176
0.000175
0.0001739
0.0001728
0.0001717
0.0001705
0.0001693
0.000168
0.0001667
0.0001653
0.0001638
0.0001623
0.0001606
0.0001588
0.000157
0.000155
0.0001528
0.0001505
0.000148
0.0001454
0.0001425
0.0001395
0.0001362
0.0001327
0.0001289
0.0001249
0.0001208
0.0001164
0.0001118
0.0001072
0.0001025
9.779e-05
9.312e-05
8.853e-05
8.406e-05
7.972e-05
7.554e-05
7.153e-05
6.769e-05
6.403e-05
6.056e-05
5.727e-05
5.417e-05
5.126e-05
4.852e-05
4.597e-05
4.359e-05
4.136e-05
3.928e-05
3.734e-05
3.552e-05
3.382e-05
3.222e-05
3.072e-05
2.93e-05
2.796e-05
2.67e-05
2.549e-05
2.435e-05
2.326e-05
2.222e-05
2.123e-05
2.028e-05
1.936e-05
1.849e-05
1.764e-05
1.683e-05
1.604e-05
1.528e-05
1.455e-05
1.384e-05
1.314e-05
1.247e-05
1.181e-05
1.117e-05
1.055e-05
9.933e-06
9.332e-06
8.743e-06
8.163e-06
7.593e-06
7.03e-06
6.475e-06
5.926e-06
5.382e-06
4.843e-06
4.308e-06
3.776e-06
3.246e-06
2.718e-06
2.189e-06
1.66e-06
1.127e-06
5.901e-07
1.21e-07
0.0002038
0.0002061
0.0002073
0.0002072
0.0002062
0.0002048
0.0002033
0.0002017
0.0002003
0.0001989
0.0001977
0.0001965
0.0001954
0.0001943
0.0001933
0.0001924
0.0001914
0.0001905
0.0001895
0.0001886
0.0001877
0.0001868
0.000186
0.0001851
0.0001842
0.0001833
0.0001824
0.0001815
0.0001806
0.0001797
0.0001788
0.0001779
0.0001769
0.0001759
0.0001749
0.0001739
0.0001728
0.0001717
0.0001705
0.0001693
0.000168
0.0001667
0.0001653
0.0001638
0.0001623
0.0001606
0.0001589
0.000157
0.000155
0.0001529
0.0001506
0.0001482
0.0001456
0.0001427
0.0001397
0.0001364
0.0001329
0.0001291
0.0001251
0.0001209
0.0001165
0.0001119
0.0001072
0.0001024
9.763e-05
9.291e-05
8.829e-05
8.38e-05
7.945e-05
7.527e-05
7.125e-05
6.742e-05
6.376e-05
6.03e-05
5.702e-05
5.393e-05
5.104e-05
4.833e-05
4.58e-05
4.344e-05
4.124e-05
3.918e-05
3.727e-05
3.547e-05
3.379e-05
3.221e-05
3.073e-05
2.932e-05
2.8e-05
2.674e-05
2.554e-05
2.44e-05
2.331e-05
2.227e-05
2.127e-05
2.032e-05
1.941e-05
1.852e-05
1.768e-05
1.686e-05
1.607e-05
1.531e-05
1.457e-05
1.385e-05
1.316e-05
1.248e-05
1.182e-05
1.118e-05
1.055e-05
9.937e-06
9.335e-06
8.745e-06
8.164e-06
7.593e-06
7.03e-06
6.475e-06
5.926e-06
5.383e-06
4.845e-06
4.31e-06
3.779e-06
3.25e-06
2.723e-06
2.195e-06
1.666e-06
1.135e-06
5.984e-07
1.267e-07
0.0002005
0.0002026
0.0002039
0.0002041
0.0002035
0.0002025
0.0002013
0.0002
0.0001987
0.0001975
0.0001964
0.0001954
0.0001944
0.0001934
0.0001925
0.0001916
0.0001908
0.0001899
0.0001891
0.0001882
0.0001874
0.0001865
0.0001857
0.0001849
0.000184
0.0001832
0.0001823
0.0001815
0.0001806
0.0001797
0.0001788
0.0001779
0.0001769
0.0001759
0.0001749
0.0001739
0.0001728
0.0001717
0.0001706
0.0001694
0.0001681
0.0001668
0.0001654
0.000164
0.0001624
0.0001608
0.0001591
0.0001573
0.0001553
0.0001532
0.000151
0.0001486
0.0001459
0.0001431
0.0001401
0.0001368
0.0001333
0.0001295
0.0001255
0.0001212
0.0001167
0.000112
0.0001072
0.0001023
9.745e-05
9.265e-05
8.797e-05
8.344e-05
7.906e-05
7.485e-05
7.082e-05
6.697e-05
6.331e-05
5.984e-05
5.656e-05
5.348e-05
5.059e-05
4.79e-05
4.539e-05
4.306e-05
4.089e-05
3.887e-05
3.699e-05
3.522e-05
3.357e-05
3.202e-05
3.056e-05
2.918e-05
2.787e-05
2.662e-05
2.544e-05
2.431e-05
2.323e-05
2.22e-05
2.121e-05
2.026e-05
1.935e-05
1.847e-05
1.763e-05
1.681e-05
1.602e-05
1.526e-05
1.453e-05
1.381e-05
1.312e-05
1.244e-05
1.179e-05
1.114e-05
1.052e-05
9.906e-06
9.306e-06
8.717e-06
8.139e-06
7.57e-06
7.009e-06
6.456e-06
5.909e-06
5.368e-06
4.833e-06
4.301e-06
3.772e-06
3.246e-06
2.721e-06
2.196e-06
1.67e-06
1.141e-06
6.076e-07
1.343e-07
0.0001977
0.0001997
0.000201
0.0002014
0.0002012
0.0002005
0.0001995
0.0001985
0.0001974
0.0001963
0.0001953
0.0001944
0.0001935
0.0001926
0.0001918
0.000191
0.0001902
0.0001894
0.0001886
0.0001878
0.000187
0.0001863
0.0001855
0.0001847
0.0001839
0.0001831
0.0001822
0.0001814
0.0001805
0.0001797
0.0001788
0.0001779
0.000177
0.000176
0.000175
0.000174
0.000173
0.0001719
0.0001708
0.0001696
0.0001684
0.0001671
0.0001657
0.0001643
0.0001628
0.0001612
0.0001595
0.0001578
0.0001558
0.0001538
0.0001516
0.0001492
0.0001466
0.0001438
0.0001407
0.0001374
0.0001339
0.0001301
0.000126
0.0001216
0.000117
0.0001122
0.0001072
0.0001022
9.724e-05
9.234e-05
8.758e-05
8.298e-05
7.855e-05
7.43e-05
7.023e-05
6.635e-05
6.265e-05
5.916e-05
5.587e-05
5.278e-05
4.991e-05
4.723e-05
4.475e-05
4.245e-05
4.032e-05
3.834e-05
3.649e-05
3.477e-05
3.316e-05
3.164e-05
3.021e-05
2.886e-05
2.758e-05
2.636e-05
2.519e-05
2.408e-05
2.302e-05
2.2e-05
2.103e-05
2.009e-05
1.919e-05
1.832e-05
1.749e-05
1.668e-05
1.59e-05
1.515e-05
1.442e-05
1.371e-05
1.303e-05
1.236e-05
1.17e-05
1.107e-05
1.045e-05
9.84e-06
9.245e-06
8.661e-06
8.087e-06
7.523e-06
6.966e-06
6.418e-06
5.875e-06
5.339e-06
4.807e-06
4.28e-06
3.756e-06
3.234e-06
2.713e-06
2.193e-06
1.671e-06
1.147e-06
6.179e-07
1.437e-07
0.0001954
0.0001972
0.0001985
0.0001991
0.0001991
0.0001986
0.0001979
0.0001971
0.0001961
0.0001952
0.0001943
0.0001935
0.0001926
0.0001919
0.0001911
0.0001904
0.0001896
0.0001889
0.0001882
0.0001874
0.0001867
0.000186
0.0001852
0.0001845
0.0001837
0.000183
0.0001822
0.0001814
0.0001806
0.0001797
0.0001789
0.000178
0.0001771
0.0001762
0.0001752
0.0001743
0.0001732
0.0001722
0.0001711
0.00017
0.0001688
0.0001675
0.0001662
0.0001648
0.0001634
0.0001618
0.0001602
0.0001585
0.0001566
0.0001546
0.0001524
0.00015
0.0001475
0.0001447
0.0001416
0.0001383
0.0001347
0.0001309
0.0001267
0.0001222
0.0001174
0.0001125
0.0001073
0.0001021
9.7e-05
9.196e-05
8.709e-05
8.241e-05
7.79e-05
7.359e-05
6.946e-05
6.552e-05
6.177e-05
5.824e-05
5.492e-05
5.183e-05
4.896e-05
4.63e-05
4.385e-05
4.159e-05
3.951e-05
3.758e-05
3.579e-05
3.412e-05
3.255e-05
3.108e-05
2.97e-05
2.838e-05
2.714e-05
2.595e-05
2.481e-05
2.373e-05
2.269e-05
2.17e-05
2.074e-05
1.982e-05
1.894e-05
1.809e-05
1.727e-05
1.648e-05
1.571e-05
1.497e-05
1.425e-05
1.356e-05
1.288e-05
1.222e-05
1.158e-05
1.095e-05
1.034e-05
9.741e-06
9.154e-06
8.577e-06
8.01e-06
7.453e-06
6.903e-06
6.361e-06
5.825e-06
5.295e-06
4.769e-06
4.248e-06
3.73e-06
3.214e-06
2.699e-06
2.185e-06
1.669e-06
1.152e-06
6.291e-07
1.548e-07
0.0001934
0.0001951
0.0001964
0.0001971
0.0001972
0.000197
0.0001965
0.0001958
0.000195
0.0001942
0.0001934
0.0001927
0.0001919
0.0001912
0.0001905
0.0001898
0.0001891
0.0001884
0.0001878
0.0001871
0.0001864
0.0001857
0.000185
0.0001843
0.0001836
0.0001829
0.0001821
0.0001814
0.0001806
0.0001798
0.000179
0.0001782
0.0001773
0.0001764
0.0001755
0.0001746
0.0001736
0.0001726
0.0001715
0.0001704
0.0001693
0.0001681
0.0001668
0.0001655
0.0001641
0.0001626
0.0001611
0.0001594
0.0001576
0.0001556
0.0001535
0.0001512
0.0001487
0.0001459
0.0001429
0.0001395
0.0001359
0.0001319
0.0001276
0.000123
0.0001181
0.0001129
0.0001075
0.0001021
9.672e-05
9.152e-05
8.65e-05
8.17e-05
7.709e-05
7.268e-05
6.846e-05
6.444e-05
6.063e-05
5.704e-05
5.369e-05
5.059e-05
4.772e-05
4.509e-05
4.268e-05
4.048e-05
3.845e-05
3.659e-05
3.486e-05
3.326e-05
3.175e-05
3.034e-05
2.901e-05
2.774e-05
2.654e-05
2.539e-05
2.43e-05
2.325e-05
2.224e-05
2.128e-05
2.035e-05
1.946e-05
1.86e-05
1.777e-05
1.697e-05
1.62e-05
1.546e-05
1.473e-05
1.403e-05
1.335e-05
1.269e-05
1.204e-05
1.141e-05
1.08e-05
1.02e-05
9.61e-06
9.033e-06
8.467e-06
7.91e-06
7.362e-06
6.821e-06
6.287e-06
5.759e-06
5.237e-06
4.719e-06
4.205e-06
3.695e-06
3.186e-06
2.679e-06
2.173e-06
1.665e-06
1.155e-06
6.414e-07
1.676e-07
0.0001917
0.0001933
0.0001946
0.0001953
0.0001956
0.0001955
0.0001952
0.0001946
0.000194
0.0001933
0.0001926
0.000192
0.0001913
0.0001906
0.00019
0.0001893
0.0001887
0.0001881
0.0001874
0.0001868
0.0001862
0.0001855
0.0001849
0.0001842
0.0001835
0.0001829
0.0001822
0.0001814
0.0001807
0.00018
0.0001792
0.0001784
0.0001776
0.0001768
0.0001759
0.000175
0.0001741
0.0001731
0.0001721
0.0001711
0.00017
0.0001688
0.0001676
0.0001664
0.0001651
0.0001636
0.0001622
0.0001606
0.0001588
0.000157
0.0001549
0.0001527
0.0001502
0.0001475
0.0001444
0.0001411
0.0001374
0.0001333
0.0001289
0.0001241
0.0001189
0.0001134
0.0001077
0.000102
9.64e-05
9.098e-05
8.579e-05
8.082e-05
7.607e-05
7.153e-05
6.719e-05
6.306e-05
5.916e-05
5.551e-05
5.212e-05
4.901e-05
4.616e-05
4.357e-05
4.122e-05
3.908e-05
3.714e-05
3.536e-05
3.371e-05
3.219e-05
3.076e-05
2.942e-05
2.815e-05
2.695e-05
2.58e-05
2.47e-05
2.366e-05
2.265e-05
2.169e-05
2.076e-05
1.986e-05
1.901e-05
1.818e-05
1.738e-05
1.66e-05
1.586e-05
1.514e-05
1.443e-05
1.375e-05
1.309e-05
1.245e-05
1.182e-05
1.121e-05
1.061e-05
1.002e-05
9.451e-06
8.887e-06
8.333e-06
7.788e-06
7.251e-06
6.721e-06
6.198e-06
5.68e-06
5.167e-06
4.658e-06
4.154e-06
3.652e-06
3.152e-06
2.654e-06
2.157e-06
1.658e-06
1.158e-06
6.545e-07
1.818e-07
0.0001903
0.0001918
0.000193
0.0001937
0.0001941
0.0001942
0.000194
0.0001936
0.0001931
0.0001925
0.0001919
0.0001913
0.0001907
0.0001901
0.0001895
0.0001889
0.0001883
0.0001877
0.0001871
0.0001865
0.000186
0.0001854
0.0001847
0.0001841
0.0001835
0.0001829
0.0001822
0.0001815
0.0001809
0.0001802
0.0001794
0.0001787
0.0001779
0.0001771
0.0001763
0.0001755
0.0001746
0.0001737
0.0001728
0.0001718
0.0001708
0.0001697
0.0001686
0.0001674
0.0001662
0.0001649
0.0001635
0.000162
0.0001603
0.0001586
0.0001566
0.0001545
0.0001521
0.0001494
0.0001464
0.0001431
0.0001393
0.0001351
0.0001305
0.0001255
0.00012
0.0001142
0.0001081
0.000102
9.604e-05
9.033e-05
8.489e-05
7.972e-05
7.478e-05
7.006e-05
6.556e-05
6.13e-05
5.73e-05
5.358e-05
5.016e-05
4.705e-05
4.423e-05
4.17e-05
3.944e-05
3.74e-05
3.556e-05
3.388e-05
3.234e-05
3.091e-05
2.958e-05
2.832e-05
2.713e-05
2.6e-05
2.492e-05
2.388e-05
2.289e-05
2.194e-05
2.102e-05
2.014e-05
1.929e-05
1.847e-05
1.767e-05
1.691e-05
1.617e-05
1.545e-05
1.476e-05
1.408e-05
1.343e-05
1.279e-05
1.217e-05
1.156e-05
1.097e-05
1.039e-05
9.823e-06
9.266e-06
8.717e-06
8.178e-06
7.647e-06
7.123e-06
6.606e-06
6.094e-06
5.588e-06
5.086e-06
4.588e-06
4.094e-06
3.602e-06
3.113e-06
2.624e-06
2.137e-06
1.649e-06
1.16e-06
6.683e-07
1.974e-07
0.000189
0.0001904
0.0001916
0.0001924
0.0001929
0.000193
0.0001929
0.0001927
0.0001923
0.0001918
0.0001913
0.0001908
0.0001902
0.0001896
0.0001891
0.0001885
0.000188
0.0001874
0.0001869
0.0001863
0.0001858
0.0001852
0.0001847
0.0001841
0.0001835
0.0001829
0.0001823
0.0001817
0.000181
0.0001804
0.0001797
0.000179
0.0001783
0.0001776
0.0001768
0.0001761
0.0001753
0.0001744
0.0001735
0.0001726
0.0001717
0.0001707
0.0001697
0.0001686
0.0001675
0.0001663
0.000165
0.0001636
0.0001621
0.0001605
0.0001587
0.0001567
0.0001545
0.0001519
0.000149
0.0001456
0.0001418
0.0001375
0.0001328
0.0001274
0.0001216
0.0001153
0.0001087
0.000102
9.561e-05
8.951e-05
8.374e-05
7.827e-05
7.307e-05
6.813e-05
6.345e-05
5.905e-05
5.494e-05
5.116e-05
4.773e-05
4.464e-05
4.19e-05
3.947e-05
3.732e-05
3.541e-05
3.37e-05
3.216e-05
3.075e-05
2.944e-05
2.822e-05
2.706e-05
2.596e-05
2.491e-05
2.391e-05
2.294e-05
2.202e-05
2.112e-05
2.026e-05
1.943e-05
1.863e-05
1.785e-05
1.71e-05
1.638e-05
1.567e-05
1.499e-05
1.433e-05
1.369e-05
1.306e-05
1.245e-05
1.186e-05
1.127e-05
1.07e-05
1.015e-05
9.597e-06
9.058e-06
8.528e-06
8.005e-06
7.489e-06
6.98e-06
6.477e-06
5.978e-06
5.485e-06
4.995e-06
4.509e-06
4.026e-06
3.546e-06
3.068e-06
2.591e-06
2.115e-06
1.639e-06
1.162e-06
6.827e-07
2.141e-07
0.0001879
0.0001893
0.0001904
0.0001912
0.0001917
0.000192
0.000192
0.0001918
0.0001915
0.0001912
0.0001907
0.0001903
0.0001898
0.0001892
0.0001887
0.0001882
0.0001877
0.0001872
0.0001867
0.0001862
0.0001857
0.0001852
0.0001846
0.0001841
0.0001836
0.000183
0.0001824
0.0001819
0.0001813
0.0001807
0.0001801
0.0001794
0.0001788
0.0001781
0.0001774
0.0001767
0.000176
0.0001752
0.0001744
0.0001736
0.0001727
0.0001719
0.0001709
0.00017
0.0001689
0.0001679
0.0001667
0.0001655
0.0001642
0.0001628
0.0001612
0.0001594
0.0001573
0.0001549
0.0001521
0.0001489
0.0001451
0.0001407
0.0001358
0.0001302
0.0001238
0.0001169
0.0001095
0.0001021
9.506e-05
8.84e-05
8.214e-05
7.627e-05
7.075e-05
6.556e-05
6.068e-05
5.614e-05
5.196e-05
4.816e-05
4.476e-05
4.175e-05
3.912e-05
3.683e-05
3.484e-05
3.311e-05
3.158e-05
3.02e-05
2.894e-05
2.777e-05
2.668e-05
2.564e-05
2.465e-05
2.37e-05
2.278e-05
2.189e-05
2.104e-05
2.021e-05
1.941e-05
1.864e-05
1.789e-05
1.717e-05
1.647e-05
1.579e-05
1.513e-05
1.449e-05
1.386e-05
1.325e-05
1.266e-05
1.208e-05
1.151e-05
1.096e-05
1.041e-05
9.878e-06
9.351e-06
8.833e-06
8.322e-06
7.817e-06
7.318e-06
6.825e-06
6.337e-06
5.853e-06
5.373e-06
4.897e-06
4.424e-06
3.953e-06
3.485e-06
3.019e-06
2.554e-06
2.09e-06
1.626e-06
1.163e-06
6.975e-07
2.316e-07
0.000187
0.0001883
0.0001894
0.0001902
0.0001908
0.0001911
0.0001912
0.0001911
0.0001909
0.0001906
0.0001902
0.0001898
0.0001894
0.0001889
0.0001884
0.000188
0.0001875
0.000187
0.0001866
0.0001861
0.0001856
0.0001851
0.0001846
0.0001841
0.0001836
0.0001831
0.0001826
0.0001821
0.0001815
0.000181
0.0001804
0.0001799
0.0001793
0.0001787
0.000178
0.0001774
0.0001767
0.0001761
0.0001754
0.0001746
0.0001739
0.0001731
0.0001723
0.0001714
0.0001706
0.0001696
0.0001687
0.0001676
0.0001665
0.0001653
0.000164
0.0001625
0.0001607
0.0001586
0.000156
0.000153
0.0001493
0.000145
0.0001399
0.0001341
0.0001272
0.0001194
0.000111
0.0001024
9.429e-05
8.673e-05
7.975e-05
7.334e-05
6.745e-05
6.203e-05
5.702e-05
5.242e-05
4.823e-05
4.449e-05
4.119e-05
3.832e-05
3.587e-05
3.379e-05
3.202e-05
3.051e-05
2.919e-05
2.801e-05
2.694e-05
2.594e-05
2.499e-05
2.408e-05
2.321e-05
2.236e-05
2.154e-05
2.075e-05
1.998e-05
1.923e-05
1.85e-05
1.779e-05
1.71e-05
1.644e-05
1.579e-05
1.516e-05
1.454e-05
1.394e-05
1.336e-05
1.279e-05
1.223e-05
1.168e-05
1.115e-05
1.062e-05
1.01e-05
9.593e-06
9.09e-06
8.594e-06
8.103e-06
7.618e-06
7.138e-06
6.662e-06
6.189e-06
5.721e-06
5.256e-06
4.793e-06
4.333e-06
3.876e-06
3.42e-06
2.967e-06
2.515e-06
2.063e-06
1.613e-06
1.163e-06
7.126e-07
2.496e-07
0.0001862
0.0001874
0.0001885
0.0001893
0.0001899
0.0001903
0.0001904
0.0001904
0.0001903
0.0001901
0.0001898
0.0001894
0.000189
0.0001886
0.0001882
0.0001878
0.0001873
0.0001869
0.0001864
0.000186
0.0001856
0.0001851
0.0001847
0.0001842
0.0001837
0.0001833
0.0001828
0.0001823
0.0001818
0.0001813
0.0001808
0.0001803
0.0001798
0.0001793
0.0001787
0.0001781
0.0001776
0.000177
0.0001764
0.0001757
0.0001751
0.0001744
0.0001737
0.000173
0.0001723
0.0001715
0.0001708
0.0001699
0.0001691
0.0001682
0.0001671
0.0001659
0.0001645
0.0001628
0.0001607
0.000158
0.0001547
0.0001506
0.0001457
0.0001398
0.0001326
0.0001238
0.0001137
0.000103
9.294e-05
8.382e-05
7.575e-05
6.876e-05
6.262e-05
5.717e-05
5.221e-05
4.769e-05
4.365e-05
4.008e-05
3.698e-05
3.434e-05
3.215e-05
3.034e-05
2.887e-05
2.763e-05
2.657e-05
2.563e-05
2.477e-05
2.395e-05
2.317e-05
2.241e-05
2.167e-05
2.094e-05
2.022e-05
1.953e-05
1.884e-05
1.817e-05
1.752e-05
1.689e-05
1.627e-05
1.566e-05
1.507e-05
1.449e-05
1.393e-05
1.338e-05
1.283e-05
1.23e-05
1.178e-05
1.127e-05
1.077e-05
1.027e-05
9.782e-06
9.298e-06
8.819e-06
8.346e-06
7.877e-06
7.412e-06
6.95e-06
6.492e-06
6.037e-06
5.584e-06
5.134e-06
4.686e-06
4.24e-06
3.796e-06
3.354e-06
2.913e-06
2.474e-06
2.036e-06
1.599e-06
1.163e-06
7.276e-07
2.679e-07
0.0001855
0.0001867
0.0001877
0.0001885
0.0001891
0.0001896
0.0001898
0.0001898
0.0001898
0.0001896
0.0001894
0.0001891
0.0001888
0.0001884
0.000188
0.0001876
0.0001872
0.0001868
0.0001864
0.000186
0.0001855
0.0001851
0.0001847
0.0001843
0.0001839
0.0001834
0.000183
0.0001826
0.0001822
0.0001817
0.0001813
0.0001808
0.0001803
0.0001799
0.0001794
0.0001789
0.0001784
0.0001779
0.0001774
0.0001769
0.0001763
0.0001758
0.0001752
0.0001747
0.0001741
0.0001735
0.000173
0.0001724
0.0001718
0.0001712
0.0001705
0.0001697
0.0001688
0.0001676
0.000166
0.000164
0.0001613
0.0001579
0.0001537
0.0001485
0.0001416
0.0001322
0.0001195
0.0001042
8.976e-05
7.788e-05
6.858e-05
6.149e-05
5.551e-05
5.051e-05
4.6e-05
4.187e-05
3.817e-05
3.493e-05
3.215e-05
2.984e-05
2.799e-05
2.655e-05
2.542e-05
2.452e-05
2.376e-05
2.309e-05
2.246e-05
2.185e-05
2.125e-05
2.064e-05
2.004e-05
1.944e-05
1.884e-05
1.825e-05
1.766e-05
1.708e-05
1.651e-05
1.595e-05
1.54e-05
1.486e-05
1.433e-05
1.381e-05
1.329e-05
1.279e-05
1.23e-05
1.181e-05
1.133e-05
1.085e-05
1.038e-05
9.915e-06
9.454e-06
8.997e-06
8.544e-06
8.094e-06
7.647e-06
7.203e-06
6.761e-06
6.32e-06
5.882e-06
5.446e-06
5.011e-06
4.577e-06
4.145e-06
3.715e-06
3.286e-06
2.858e-06
2.432e-06
2.007e-06
1.584e-06
1.162e-06
7.424e-07
2.861e-07
0.0001849
0.000186
0.000187
0.0001879
0.0001885
0.0001889
0.0001892
0.0001893
0.0001893
0.0001892
0.000189
0.0001888
0.0001885
0.0001882
0.0001878
0.0001875
0.0001871
0.0001867
0.0001863
0.0001859
0.0001856
0.0001852
0.0001848
0.0001844
0.000184
0.0001836
0.0001833
0.0001829
0.0001825
0.0001821
0.0001817
0.0001813
0.0001809
0.0001805
0.0001801
0.0001797
0.0001793
0.0001789
0.0001784
0.000178
0.0001776
0.0001772
0.0001768
0.0001763
0.0001759
0.0001756
0.0001752
0.0001749
0.0001745
0.0001743
0.000174
0.0001737
0.0001733
0.0001727
0.0001719
0.0001706
0.0001688
0.0001666
0.0001639
0.0001609
0.0001562
0.0001463
0.0001314
0.0001065
8.252e-05
6.763e-05
5.812e-05
5.116e-05
4.543e-05
4.181e-05
3.834e-05
3.498e-05
3.191e-05
2.916e-05
2.68e-05
2.491e-05
2.349e-05
2.247e-05
2.176e-05
2.124e-05
2.082e-05
2.044e-05
2.006e-05
1.967e-05
1.926e-05
1.882e-05
1.837e-05
1.79e-05
1.742e-05
1.693e-05
1.645e-05
1.596e-05
1.547e-05
1.499e-05
1.452e-05
1.404e-05
1.358e-05
1.311e-05
1.266e-05
1.22e-05
1.175e-05
1.131e-05
1.087e-05
1.043e-05
9.992e-06
9.558e-06
9.127e-06
8.698e-06
8.27e-06
7.844e-06
7.419e-06
6.995e-06
6.572e-06
6.15e-06
5.729e-06
5.308e-06
4.888e-06
4.47e-06
4.051e-06
3.634e-06
3.218e-06
2.804e-06
2.39e-06
1.979e-06
1.569e-06
1.162e-06
7.568e-07
3.039e-07
0.0001844
0.0001855
0.0001865
0.0001873
0.0001879
0.0001884
0.0001887
0.0001889
0.0001889
0.0001889
0.0001887
0.0001885
0.0001883
0.000188
0.0001877
0.0001874