/*--------------------------------*- C++ -*----------------------------------*\
  =========                 |
  \\      /  F ield         | OpenFOAM: The Open Source CFD Toolbox
   \\    /   O peration     | Website:  https://openfoam.org
    \\  /    A nd           | Version:  7
     \\/     M anipulation  |
\*---------------------------------------------------------------------------*/
FoamFile
{
    version     2.0;
    format      ascii;
    class       volVectorField;
    location    "2339.99947343932445";
    object      U;
}
// * * * * * * * * * * * * * * * * * * * * * * * * * * * * * * * * * * * * * //

dimensions      [0 1 -1 0 0 0 0];

internalField   nonuniform List<vector> 
4096
(
(0.001039 0.0001611 0)
(0.0007463 0.0001314 0)
(0.0005302 8.473e-05 0)
(0.0003919 5.358e-05 0)
(0.0003036 3.467e-05 0)
(0.0002457 2.329e-05 0)
(0.0002061 1.634e-05 0)
(0.0001778 1.196e-05 0)
(0.0001567 9.071e-06 0)
(0.0001406 7.085e-06 0)
(0.0001278 5.66e-06 0)
(0.0001176 4.6e-06 0)
(0.0001092 3.786e-06 0)
(0.0001023 3.147e-06 0)
(9.648e-05 2.633e-06 0)
(9.163e-05 2.212e-06 0)
(8.756e-05 1.862e-06 0)
(8.413e-05 1.566e-06 0)
(8.125e-05 1.313e-06 0)
(7.885e-05 1.093e-06 0)
(7.685e-05 9.009e-07 0)
(7.522e-05 7.296e-07 0)
(7.392e-05 5.754e-07 0)
(7.291e-05 4.348e-07 0)
(7.217e-05 3.047e-07 0)
(7.168e-05 1.827e-07 0)
(7.143e-05 6.688e-08 0)
(7.141e-05 -4.471e-08 0)
(7.161e-05 -1.536e-07 0)
(7.202e-05 -2.611e-07 0)
(7.265e-05 -3.686e-07 0)
(7.35e-05 -4.77e-07 0)
(7.456e-05 -5.872e-07 0)
(7.585e-05 -7.002e-07 0)
(7.737e-05 -8.165e-07 0)
(7.912e-05 -9.367e-07 0)
(8.112e-05 -1.061e-06 0)
(8.337e-05 -1.19e-06 0)
(8.588e-05 -1.323e-06 0)
(8.867e-05 -1.461e-06 0)
(9.173e-05 -1.602e-06 0)
(9.508e-05 -1.746e-06 0)
(9.871e-05 -1.892e-06 0)
(0.0001026 -2.038e-06 0)
(0.0001069 -2.182e-06 0)
(0.0001114 -2.322e-06 0)
(0.0001161 -2.456e-06 0)
(0.0001212 -2.579e-06 0)
(0.0001264 -2.689e-06 0)
(0.0001319 -2.781e-06 0)
(0.0001375 -2.851e-06 0)
(0.0001433 -2.894e-06 0)
(0.0001491 -2.906e-06 0)
(0.0001549 -2.882e-06 0)
(0.0001606 -2.82e-06 0)
(0.0001661 -2.714e-06 0)
(0.0001714 -2.565e-06 0)
(0.0001763 -2.369e-06 0)
(0.0001808 -2.129e-06 0)
(0.0001848 -1.848e-06 0)
(0.0001882 -1.528e-06 0)
(0.0001909 -1.177e-06 0)
(0.0001929 -8.03e-07 0)
(0.0001941 -4.138e-07 0)
(0.0001945 -1.922e-08 0)
(0.0001942 3.713e-07 0)
(0.000193 7.49e-07 0)
(0.0001912 1.106e-06 0)
(0.0001886 1.436e-06 0)
(0.0001855 1.734e-06 0)
(0.0001817 1.996e-06 0)
(0.0001775 2.22e-06 0)
(0.0001729 2.405e-06 0)
(0.000168 2.551e-06 0)
(0.0001627 2.66e-06 0)
(0.0001573 2.732e-06 0)
(0.0001518 2.771e-06 0)
(0.0001463 2.779e-06 0)
(0.0001408 2.76e-06 0)
(0.0001353 2.716e-06 0)
(0.0001299 2.651e-06 0)
(0.0001247 2.569e-06 0)
(0.0001197 2.472e-06 0)
(0.0001148 2.365e-06 0)
(0.0001102 2.249e-06 0)
(0.0001058 2.128e-06 0)
(0.0001017 2.004e-06 0)
(9.781e-05 1.879e-06 0)
(9.418e-05 1.754e-06 0)
(9.079e-05 1.631e-06 0)
(8.765e-05 1.512e-06 0)
(8.474e-05 1.397e-06 0)
(8.206e-05 1.287e-06 0)
(7.959e-05 1.182e-06 0)
(7.732e-05 1.083e-06 0)
(7.525e-05 9.899e-07 0)
(7.336e-05 9.026e-07 0)
(7.163e-05 8.213e-07 0)
(7.006e-05 7.457e-07 0)
(6.864e-05 6.758e-07 0)
(6.736e-05 6.113e-07 0)
(6.619e-05 5.52e-07 0)
(6.514e-05 4.975e-07 0)
(6.42e-05 4.477e-07 0)
(6.335e-05 4.023e-07 0)
(6.258e-05 3.608e-07 0)
(6.19e-05 3.232e-07 0)
(6.129e-05 2.89e-07 0)
(6.074e-05 2.58e-07 0)
(6.025e-05 2.301e-07 0)
(5.982e-05 2.049e-07 0)
(5.943e-05 1.822e-07 0)
(5.909e-05 1.62e-07 0)
(5.878e-05 1.439e-07 0)
(5.851e-05 1.279e-07 0)
(5.827e-05 1.138e-07 0)
(5.805e-05 1.016e-07 0)
(5.786e-05 9.123e-08 0)
(5.769e-05 8.272e-08 0)
(5.753e-05 7.614e-08 0)
(5.738e-05 7.166e-08 0)
(5.724e-05 6.962e-08 0)
(5.71e-05 7.063e-08 0)
(5.695e-05 7.587e-08 0)
(5.679e-05 8.752e-08 0)
(5.659e-05 1.092e-07 0)
(5.634e-05 1.451e-07 0)
(5.6e-05 1.886e-07 0)
(0.001209 0.0003128 0)
(0.001154 0.0003282 0)
(0.00101 0.000248 0)
(0.0008613 0.0001771 0)
(0.0007344 0.0001262 0)
(0.0006326 9.149e-05 0)
(0.0005524 6.795e-05 0)
(0.0004893 5.181e-05 0)
(0.000439 4.047e-05 0)
(0.0003986 3.227e-05 0)
(0.0003657 2.616e-05 0)
(0.0003385 2.149e-05 0)
(0.000316 1.783e-05 0)
(0.0002971 1.491e-05 0)
(0.0002812 1.254e-05 0)
(0.0002678 1.058e-05 0)
(0.0002564 8.933e-06 0)
(0.0002468 7.536e-06 0)
(0.0002387 6.333e-06 0)
(0.0002319 5.287e-06 0)
(0.0002262 4.364e-06 0)
(0.0002216 3.542e-06 0)
(0.0002178 2.799e-06 0)
(0.000215 2.12e-06 0)
(0.0002128 1.492e-06 0)
(0.0002114 9.019e-07 0)
(0.0002107 3.412e-07 0)
(0.0002106 -1.989e-07 0)
(0.0002111 -7.257e-07 0)
(0.0002122 -1.246e-06 0)
(0.000214 -1.764e-06 0)
(0.0002163 -2.287e-06 0)
(0.0002193 -2.817e-06 0)
(0.0002229 -3.36e-06 0)
(0.0002272 -3.917e-06 0)
(0.0002321 -4.492e-06 0)
(0.0002376 -5.085e-06 0)
(0.0002439 -5.698e-06 0)
(0.0002509 -6.33e-06 0)
(0.0002587 -6.981e-06 0)
(0.0002672 -7.647e-06 0)
(0.0002764 -8.325e-06 0)
(0.0002865 -9.008e-06 0)
(0.0002973 -9.691e-06 0)
(0.000309 -1.036e-05 0)
(0.0003213 -1.102e-05 0)
(0.0003344 -1.163e-05 0)
(0.0003482 -1.22e-05 0)
(0.0003625 -1.27e-05 0)
(0.0003774 -1.312e-05 0)
(0.0003927 -1.343e-05 0)
(0.0004083 -1.361e-05 0)
(0.0004239 -1.365e-05 0)
(0.0004395 -1.352e-05 0)
(0.0004548 -1.321e-05 0)
(0.0004697 -1.27e-05 0)
(0.0004838 -1.199e-05 0)
(0.000497 -1.107e-05 0)
(0.000509 -9.945e-06 0)
(0.0005197 -8.627e-06 0)
(0.0005287 -7.137e-06 0)
(0.0005359 -5.504e-06 0)
(0.0005412 -3.763e-06 0)
(0.0005445 -1.954e-06 0)
(0.0005457 -1.194e-07 0)
(0.0005448 1.698e-06 0)
(0.0005419 3.458e-06 0)
(0.000537 5.126e-06 0)
(0.0005303 6.67e-06 0)
(0.0005219 8.068e-06 0)
(0.000512 9.303e-06 0)
(0.0005008 1.036e-05 0)
(0.0004884 1.124e-05 0)
(0.0004751 1.195e-05 0)
(0.0004611 1.247e-05 0)
(0.0004466 1.283e-05 0)
(0.0004318 1.303e-05 0)
(0.0004167 1.309e-05 0)
(0.0004017 1.302e-05 0)
(0.0003868 1.283e-05 0)
(0.0003722 1.254e-05 0)
(0.0003579 1.217e-05 0)
(0.0003441 1.173e-05 0)
(0.0003308 1.124e-05 0)
(0.0003181 1.07e-05 0)
(0.000306 1.014e-05 0)
(0.0002946 9.564e-06 0)
(0.0002838 8.979e-06 0)
(0.0002737 8.396e-06 0)
(0.0002642 7.821e-06 0)
(0.0002554 7.26e-06 0)
(0.0002473 6.718e-06 0)
(0.0002397 6.197e-06 0)
(0.0002328 5.7e-06 0)
(0.0002264 5.23e-06 0)
(0.0002205 4.787e-06 0)
(0.0002151 4.371e-06 0)
(0.0002102 3.983e-06 0)
(0.0002057 3.621e-06 0)
(0.0002017 3.287e-06 0)
(0.000198 2.977e-06 0)
(0.0001946 2.692e-06 0)
(0.0001916 2.43e-06 0)
(0.0001889 2.19e-06 0)
(0.0001864 1.971e-06 0)
(0.0001842 1.771e-06 0)
(0.0001822 1.589e-06 0)
(0.0001804 1.423e-06 0)
(0.0001788 1.273e-06 0)
(0.0001774 1.137e-06 0)
(0.0001761 1.015e-06 0)
(0.000175 9.042e-07 0)
(0.000174 8.053e-07 0)
(0.000173 7.17e-07 0)
(0.0001722 6.386e-07 0)
(0.0001715 5.696e-07 0)
(0.0001709 5.097e-07 0)
(0.0001703 4.586e-07 0)
(0.0001697 4.164e-07 0)
(0.0001693 3.832e-07 0)
(0.0001688 3.597e-07 0)
(0.0001684 3.471e-07 0)
(0.000168 3.472e-07 0)
(0.0001676 3.63e-07 0)
(0.0001671 3.997e-07 0)
(0.0001667 4.642e-07 0)
(0.0001661 5.599e-07 0)
(0.0001656 6.598e-07 0)
(0.001226 0.0002775 0)
(0.001243 0.0004026 0)
(0.001194 0.0003664 0)
(0.001102 0.0002983 0)
(0.0009996 0.0002346 0)
(0.0009015 0.0001832 0)
(0.0008141 0.0001439 0)
(0.0007389 0.0001143 0)
(0.0006751 9.201e-05 0)
(0.0006212 7.5e-05 0)
(0.0005758 6.181e-05 0)
(0.0005373 5.142e-05 0)
(0.0005047 4.309e-05 0)
(0.0004769 3.631e-05 0)
(0.0004533 3.072e-05 0)
(0.000433 2.604e-05 0)
(0.0004158 2.208e-05 0)
(0.0004011 1.869e-05 0)
(0.0003887 1.575e-05 0)
(0.0003781 1.318e-05 0)
(0.0003694 1.091e-05 0)
(0.0003621 8.869e-06 0)
(0.0003563 7.023e-06 0)
(0.0003518 5.33e-06 0)
(0.0003484 3.759e-06 0)
(0.0003462 2.282e-06 0)
(0.000345 8.771e-07 0)
(0.0003449 -4.772e-07 0)
(0.0003457 -1.798e-06 0)
(0.0003475 -3.102e-06 0)
(0.0003502 -4.402e-06 0)
(0.0003539 -5.71e-06 0)
(0.0003586 -7.036e-06 0)
(0.0003643 -8.39e-06 0)
(0.0003709 -9.779e-06 0)
(0.0003786 -1.121e-05 0)
(0.0003873 -1.268e-05 0)
(0.0003971 -1.42e-05 0)
(0.0004081 -1.576e-05 0)
(0.0004201 -1.737e-05 0)
(0.0004334 -1.901e-05 0)
(0.0004478 -2.068e-05 0)
(0.0004635 -2.235e-05 0)
(0.0004803 -2.402e-05 0)
(0.0004983 -2.566e-05 0)
(0.0005175 -2.724e-05 0)
(0.0005377 -2.874e-05 0)
(0.000559 -3.011e-05 0)
(0.0005811 -3.131e-05 0)
(0.000604 -3.23e-05 0)
(0.0006276 -3.303e-05 0)
(0.0006514 -3.345e-05 0)
(0.0006755 -3.351e-05 0)
(0.0006994 -3.317e-05 0)
(0.0007229 -3.238e-05 0)
(0.0007457 -3.112e-05 0)
(0.0007673 -2.936e-05 0)
(0.0007875 -2.709e-05 0)
(0.0008059 -2.433e-05 0)
(0.0008221 -2.11e-05 0)
(0.0008359 -1.746e-05 0)
(0.000847 -1.348e-05 0)
(0.0008551 -9.235e-06 0)
(0.0008602 -4.825e-06 0)
(0.0008621 -3.53e-07 0)
(0.0008608 4.081e-06 0)
(0.0008564 8.379e-06 0)
(0.000849 1.246e-05 0)
(0.0008388 1.624e-05 0)
(0.0008261 1.967e-05 0)
(0.000811 2.271e-05 0)
(0.0007938 2.533e-05 0)
(0.0007749 2.751e-05 0)
(0.0007546 2.926e-05 0)
(0.0007332 3.059e-05 0)
(0.0007109 3.15e-05 0)
(0.0006881 3.203e-05 0)
(0.000665 3.221e-05 0)
(0.0006419 3.207e-05 0)
(0.0006189 3.164e-05 0)
(0.0005963 3.096e-05 0)
(0.0005743 3.008e-05 0)
(0.0005529 2.903e-05 0)
(0.0005322 2.784e-05 0)
(0.0005125 2.655e-05 0)
(0.0004937 2.519e-05 0)
(0.0004759 2.378e-05 0)
(0.0004591 2.236e-05 0)
(0.0004433 2.093e-05 0)
(0.0004285 1.952e-05 0)
(0.0004147 1.814e-05 0)
(0.0004019 1.681e-05 0)
(0.00039 1.552e-05 0)
(0.0003791 1.429e-05 0)
(0.000369 1.313e-05 0)
(0.0003597 1.203e-05 0)
(0.0003512 1.1e-05 0)
(0.0003434 1.004e-05 0)
(0.0003363 9.137e-06 0)
(0.0003298 8.302e-06 0)
(0.000324 7.53e-06 0)
(0.0003186 6.818e-06 0)
(0.0003138 6.163e-06 0)
(0.0003094 5.562e-06 0)
(0.0003055 5.012e-06 0)
(0.0003019 4.509e-06 0)
(0.0002987 4.05e-06 0)
(0.0002958 3.634e-06 0)
(0.0002932 3.255e-06 0)
(0.0002909 2.912e-06 0)
(0.0002888 2.603e-06 0)
(0.0002869 2.323e-06 0)
(0.0002853 2.073e-06 0)
(0.0002838 1.849e-06 0)
(0.0002825 1.65e-06 0)
(0.0002813 1.474e-06 0)
(0.0002802 1.321e-06 0)
(0.0002792 1.19e-06 0)
(0.0002784 1.08e-06 0)
(0.0002776 9.931e-07 0)
(0.0002768 9.289e-07 0)
(0.0002762 8.893e-07 0)
(0.0002755 8.772e-07 0)
(0.0002749 8.959e-07 0)
(0.0002742 9.502e-07 0)
(0.0002736 1.043e-06 0)
(0.0002729 1.168e-06 0)
(0.0002722 1.276e-06 0)
(0.001224 0.0002275 0)
(0.00126 0.0004003 0)
(0.001258 0.0004194 0)
(0.001216 0.000379 0)
(0.001149 0.0003231 0)
(0.001073 0.0002688 0)
(0.000997 0.0002218 0)
(0.0009256 0.000183 0)
(0.0008609 0.0001517 0)
(0.0008035 0.0001265 0)
(0.0007531 0.0001061 0)
(0.0007092 8.949e-05 0)
(0.0006711 7.582e-05 0)
(0.0006379 6.446e-05 0)
(0.0006093 5.492e-05 0)
(0.0005845 4.683e-05 0)
(0.0005631 3.99e-05 0)
(0.0005448 3.391e-05 0)
(0.0005291 2.868e-05 0)
(0.0005158 2.407e-05 0)
(0.0005046 1.996e-05 0)
(0.0004954 1.626e-05 0)
(0.0004879 1.29e-05 0)
(0.0004821 9.799e-06 0)
(0.0004778 6.916e-06 0)
(0.000475 4.199e-06 0)
(0.0004735 1.608e-06 0)
(0.0004734 -8.926e-07 0)
(0.0004745 -3.334e-06 0)
(0.0004769 -5.743e-06 0)
(0.0004805 -8.145e-06 0)
(0.0004854 -1.056e-05 0)
(0.0004916 -1.301e-05 0)
(0.000499 -1.551e-05 0)
(0.0005078 -1.807e-05 0)
(0.0005179 -2.069e-05 0)
(0.0005293 -2.34e-05 0)
(0.0005422 -2.619e-05 0)
(0.0005566 -2.905e-05 0)
(0.0005724 -3.198e-05 0)
(0.0005897 -3.498e-05 0)
(0.0006086 -3.801e-05 0)
(0.000629 -4.106e-05 0)
(0.0006509 -4.409e-05 0)
(0.0006744 -4.706e-05 0)
(0.0006993 -4.992e-05 0)
(0.0007256 -5.261e-05 0)
(0.0007531 -5.507e-05 0)
(0.0007819 -5.723e-05 0)
(0.0008116 -5.899e-05 0)
(0.000842 -6.028e-05 0)
(0.0008729 -6.1e-05 0)
(0.0009039 -6.108e-05 0)
(0.0009348 -6.042e-05 0)
(0.0009651 -5.895e-05 0)
(0.0009945 -5.663e-05 0)
(0.001022 -5.34e-05 0)
(0.001048 -4.926e-05 0)
(0.001072 -4.423e-05 0)
(0.001093 -3.837e-05 0)
(0.001111 -3.177e-05 0)
(0.001125 -2.454e-05 0)
(0.001136 -1.684e-05 0)
(0.001142 -8.844e-06 0)
(0.001145 -7.318e-07 0)
(0.001143 7.313e-06 0)
(0.001138 1.512e-05 0)
(0.001128 2.253e-05 0)
(0.001115 2.941e-05 0)
(0.001099 3.566e-05 0)
(0.001079 4.121e-05 0)
(0.001057 4.6e-05 0)
(0.001033 5.001e-05 0)
(0.001007 5.323e-05 0)
(0.0009792 5.569e-05 0)
(0.0009504 5.74e-05 0)
(0.000921 5.842e-05 0)
(0.0008911 5.879e-05 0)
(0.0008611 5.858e-05 0)
(0.0008314 5.785e-05 0)
(0.0008021 5.667e-05 0)
(0.0007734 5.51e-05 0)
(0.0007456 5.323e-05 0)
(0.0007187 5.11e-05 0)
(0.000693 4.878e-05 0)
(0.0006684 4.632e-05 0)
(0.0006451 4.378e-05 0)
(0.0006231 4.119e-05 0)
(0.0006024 3.86e-05 0)
(0.000583 3.604e-05 0)
(0.0005649 3.353e-05 0)
(0.000548 3.109e-05 0)
(0.0005324 2.874e-05 0)
(0.0005179 2.65e-05 0)
(0.0005046 2.437e-05 0)
(0.0004923 2.235e-05 0)
(0.000481 2.046e-05 0)
(0.0004707 1.868e-05 0)
(0.0004612 1.703e-05 0)
(0.0004526 1.549e-05 0)
(0.0004448 1.406e-05 0)
(0.0004377 1.275e-05 0)
(0.0004312 1.154e-05 0)
(0.0004253 1.042e-05 0)
(0.00042 9.403e-06 0)
(0.0004152 8.469e-06 0)
(0.0004109 7.618e-06 0)
(0.000407 6.842e-06 0)
(0.0004035 6.137e-06 0)
(0.0004004 5.498e-06 0)
(0.0003976 4.92e-06 0)
(0.000395 4.399e-06 0)
(0.0003928 3.93e-06 0)
(0.0003907 3.51e-06 0)
(0.0003889 3.136e-06 0)
(0.0003873 2.805e-06 0)
(0.0003858 2.516e-06 0)
(0.0003845 2.267e-06 0)
(0.0003833 2.058e-06 0)
(0.0003823 1.887e-06 0)
(0.0003813 1.757e-06 0)
(0.0003803 1.669e-06 0)
(0.0003795 1.624e-06 0)
(0.0003787 1.626e-06 0)
(0.0003778 1.675e-06 0)
(0.0003771 1.769e-06 0)
(0.0003763 1.891e-06 0)
(0.0003755 1.987e-06 0)
(0.001219 0.0001846 0)
(0.001255 0.0003713 0)
(0.001275 0.0004302 0)
(0.001264 0.0004212 0)
(0.001229 0.000383 0)
(0.001178 0.0003358 0)
(0.00112 0.0002891 0)
(0.00106 0.000247 0)
(0.001002 0.0002104 0)
(0.0009477 0.0001793 0)
(0.0008983 0.0001531 0)
(0.0008538 0.0001309 0)
(0.0008141 0.0001122 0)
(0.0007789 9.633e-05 0)
(0.0007479 8.272e-05 0)
(0.0007208 7.1e-05 0)
(0.000697 6.082e-05 0)
(0.0006765 5.193e-05 0)
(0.0006587 4.408e-05 0)
(0.0006436 3.711e-05 0)
(0.0006309 3.085e-05 0)
(0.0006203 2.518e-05 0)
(0.0006117 1.999e-05 0)
(0.000605 1.52e-05 0)
(0.0006001 1.071e-05 0)
(0.0005969 6.478e-06 0)
(0.0005953 2.427e-06 0)
(0.0005952 -1.489e-06 0)
(0.0005967 -5.318e-06 0)
(0.0005996 -9.101e-06 0)
(0.0006041 -1.287e-05 0)
(0.00061 -1.667e-05 0)
(0.0006174 -2.051e-05 0)
(0.0006264 -2.443e-05 0)
(0.000637 -2.844e-05 0)
(0.0006491 -3.256e-05 0)
(0.0006629 -3.679e-05 0)
(0.0006784 -4.115e-05 0)
(0.0006956 -4.562e-05 0)
(0.0007145 -5.019e-05 0)
(0.0007353 -5.485e-05 0)
(0.0007578 -5.956e-05 0)
(0.0007822 -6.429e-05 0)
(0.0008084 -6.899e-05 0)
(0.0008364 -7.358e-05 0)
(0.0008661 -7.8e-05 0)
(0.0008974 -8.216e-05 0)
(0.0009303 -8.594e-05 0)
(0.0009644 -8.925e-05 0)
(0.0009997 -9.195e-05 0)
(0.001036 -9.391e-05 0)
(0.001073 -9.499e-05 0)
(0.00111 -9.507e-05 0)
(0.001146 -9.401e-05 0)
(0.001182 -9.17e-05 0)
(0.001217 -8.806e-05 0)
(0.00125 -8.302e-05 0)
(0.001281 -7.659e-05 0)
(0.001309 -6.877e-05 0)
(0.001334 -5.967e-05 0)
(0.001355 -4.941e-05 0)
(0.001372 -3.82e-05 0)
(0.001385 -2.625e-05 0)
(0.001393 -1.384e-05 0)
(0.001396 -1.249e-06 0)
(0.001394 1.124e-05 0)
(0.001387 2.336e-05 0)
(0.001376 3.487e-05 0)
(0.001361 4.557e-05 0)
(0.001341 5.53e-05 0)
(0.001318 6.394e-05 0)
(0.001292 7.141e-05 0)
(0.001264 7.768e-05 0)
(0.001232 8.274e-05 0)
(0.0012 8.661e-05 0)
(0.001166 8.933e-05 0)
(0.001131 9.097e-05 0)
(0.001095 9.161e-05 0)
(0.001059 9.134e-05 0)
(0.001024 9.027e-05 0)
(0.0009891 8.849e-05 0)
(0.000955 8.611e-05 0)
(0.0009218 8.324e-05 0)
(0.0008897 7.997e-05 0)
(0.000859 7.64e-05 0)
(0.0008296 7.261e-05 0)
(0.0008017 6.868e-05 0)
(0.0007753 6.468e-05 0)
(0.0007504 6.067e-05 0)
(0.0007271 5.669e-05 0)
(0.0007053 5.279e-05 0)
(0.000685 4.899e-05 0)
(0.0006662 4.534e-05 0)
(0.0006487 4.184e-05 0)
(0.0006326 3.851e-05 0)
(0.0006177 3.536e-05 0)
(0.0006041 3.239e-05 0)
(0.0005916 2.961e-05 0)
(0.0005801 2.701e-05 0)
(0.0005696 2.459e-05 0)
(0.0005601 2.235e-05 0)
(0.0005514 2.028e-05 0)
(0.0005435 1.837e-05 0)
(0.0005363 1.662e-05 0)
(0.0005298 1.5e-05 0)
(0.000524 1.353e-05 0)
(0.0005187 1.218e-05 0)
(0.0005139 1.095e-05 0)
(0.0005096 9.836e-06 0)
(0.0005057 8.821e-06 0)
(0.0005022 7.903e-06 0)
(0.0004991 7.073e-06 0)
(0.0004963 6.326e-06 0)
(0.0004938 5.657e-06 0)
(0.0004915 5.059e-06 0)
(0.0004895 4.53e-06 0)
(0.0004877 4.065e-06 0)
(0.000486 3.662e-06 0)
(0.0004846 3.32e-06 0)
(0.0004832 3.038e-06 0)
(0.000482 2.815e-06 0)
(0.0004809 2.652e-06 0)
(0.0004798 2.55e-06 0)
(0.0004789 2.51e-06 0)
(0.0004779 2.529e-06 0)
(0.000477 2.599e-06 0)
(0.0004762 2.697e-06 0)
(0.0004754 2.773e-06 0)
(0.001214 0.000152 0)
(0.001246 0.0003355 0)
(0.001274 0.0004183 0)
(0.001282 0.0004357 0)
(0.001268 0.0004172 0)
(0.001239 0.0003821 0)
(0.001199 0.0003412 0)
(0.001153 0.0003003 0)
(0.001106 0.0002624 0)
(0.001059 0.0002282 0)
(0.001014 0.0001982 0)
(0.0009729 0.0001719 0)
(0.0009347 0.0001491 0)
(0.0009002 0.0001292 0)
(0.0008691 0.0001119 0)
(0.0008415 9.667e-05 0)
(0.0008171 8.329e-05 0)
(0.0007957 7.145e-05 0)
(0.0007771 6.089e-05 0)
(0.0007611 5.142e-05 0)
(0.0007475 4.286e-05 0)
(0.0007362 3.504e-05 0)
(0.0007271 2.785e-05 0)
(0.0007199 2.116e-05 0)
(0.0007147 1.488e-05 0)
(0.0007113 8.928e-06 0)
(0.0007097 3.216e-06 0)
(0.0007098 -2.321e-06 0)
(0.0007116 -7.744e-06 0)
(0.0007151 -1.311e-05 0)
(0.0007202 -1.847e-05 0)
(0.0007271 -2.385e-05 0)
(0.0007356 -2.931e-05 0)
(0.0007459 -3.488e-05 0)
(0.0007579 -4.057e-05 0)
(0.0007717 -4.641e-05 0)
(0.0007874 -5.241e-05 0)
(0.000805 -5.857e-05 0)
(0.0008245 -6.49e-05 0)
(0.000846 -7.136e-05 0)
(0.0008695 -7.793e-05 0)
(0.000895 -8.458e-05 0)
(0.0009226 -9.125e-05 0)
(0.0009523 -9.786e-05 0)
(0.0009839 -0.0001043 0)
(0.001017 -0.0001105 0)
(0.001053 -0.0001164 0)
(0.00109 -0.0001217 0)
(0.001129 -0.0001263 0)
(0.001168 -0.0001301 0)
(0.001209 -0.0001328 0)
(0.001251 -0.0001343 0)
(0.001293 -0.0001344 0)
(0.001334 -0.0001329 0)
(0.001375 -0.0001296 0)
(0.001414 -0.0001244 0)
(0.001452 -0.0001173 0)
(0.001487 -0.0001082 0)
(0.001519 -9.722e-05 0)
(0.001547 -8.437e-05 0)
(0.001571 -6.989e-05 0)
(0.00159 -5.405e-05 0)
(0.001605 -3.718e-05 0)
(0.001613 -1.966e-05 0)
(0.001617 -1.88e-06 0)
(0.001615 1.575e-05 0)
(0.001607 3.286e-05 0)
(0.001595 4.912e-05 0)
(0.001577 6.423e-05 0)
(0.001555 7.798e-05 0)
(0.001529 9.02e-05 0)
(0.0015 0.0001008 0)
(0.001467 0.0001097 0)
(0.001432 0.0001168 0)
(0.001395 0.0001223 0)
(0.001357 0.0001262 0)
(0.001317 0.0001286 0)
(0.001277 0.0001296 0)
(0.001237 0.0001293 0)
(0.001197 0.0001278 0)
(0.001157 0.0001254 0)
(0.001119 0.0001221 0)
(0.001081 0.0001181 0)
(0.001045 0.0001135 0)
(0.00101 0.0001085 0)
(0.0009766 0.0001032 0)
(0.0009449 9.766e-05 0)
(0.000915 9.204e-05 0)
(0.0008868 8.639e-05 0)
(0.0008603 8.078e-05 0)
(0.0008355 7.528e-05 0)
(0.0008124 6.992e-05 0)
(0.0007909 6.475e-05 0)
(0.000771 5.98e-05 0)
(0.0007525 5.509e-05 0)
(0.0007355 5.062e-05 0)
(0.0007199 4.641e-05 0)
(0.0007056 4.246e-05 0)
(0.0006924 3.877e-05 0)
(0.0006804 3.533e-05 0)
(0.0006694 3.214e-05 0)
(0.0006594 2.919e-05 0)
(0.0006503 2.646e-05 0)
(0.0006421 2.395e-05 0)
(0.0006346 2.165e-05 0)
(0.0006278 1.954e-05 0)
(0.0006217 1.761e-05 0)
(0.0006161 1.585e-05 0)
(0.0006111 1.425e-05 0)
(0.0006066 1.279e-05 0)
(0.0006026 1.147e-05 0)
(0.0005989 1.028e-05 0)
(0.0005956 9.2e-06 0)
(0.0005927 8.234e-06 0)
(0.0005901 7.37e-06 0)
(0.0005877 6.602e-06 0)
(0.0005856 5.926e-06 0)
(0.0005837 5.337e-06 0)
(0.000582 4.833e-06 0)
(0.0005804 4.41e-06 0)
(0.000579 4.068e-06 0)
(0.0005777 3.805e-06 0)
(0.0005765 3.622e-06 0)
(0.0005755 3.515e-06 0)
(0.0005744 3.48e-06 0)
(0.0005735 3.505e-06 0)
(0.0005725 3.567e-06 0)
(0.0005717 3.619e-06 0)
(0.00121 0.0001279 0)
(0.001237 0.0003008 0)
(0.001266 0.0003959 0)
(0.001284 0.0004324 0)
(0.001286 0.0004317 0)
(0.001273 0.0004099 0)
(0.001249 0.0003776 0)
(0.001217 0.0003413 0)
(0.001181 0.0003049 0)
(0.001143 0.0002703 0)
(0.001106 0.0002385 0)
(0.001069 0.0002097 0)
(0.001035 0.0001839 0)
(0.001003 0.0001609 0)
(0.0009736 0.0001405 0)
(0.0009471 0.0001222 0)
(0.0009233 0.0001059 0)
(0.0009023 9.13e-05 0)
(0.0008838 7.813e-05 0)
(0.0008678 6.619e-05 0)
(0.0008541 5.53e-05 0)
(0.0008427 4.528e-05 0)
(0.0008335 3.601e-05 0)
(0.0008263 2.734e-05 0)
(0.0008211 1.915e-05 0)
(0.0008178 1.136e-05 0)
(0.0008163 3.854e-06 0)
(0.0008167 -3.441e-06 0)
(0.0008189 -1.06e-05 0)
(0.0008228 -1.77e-05 0)
(0.0008286 -2.479e-05 0)
(0.0008362 -3.194e-05 0)
(0.0008456 -3.918e-05 0)
(0.0008568 -4.655e-05 0)
(0.00087 -5.41e-05 0)
(0.0008851 -6.184e-05 0)
(0.0009023 -6.979e-05 0)
(0.0009215 -7.795e-05 0)
(0.0009428 -8.632e-05 0)
(0.0009662 -9.487e-05 0)
(0.0009918 -0.0001036 0)
(0.00102 -0.0001123 0)
(0.00105 -0.0001211 0)
(0.001082 -0.0001299 0)
(0.001116 -0.0001384 0)
(0.001153 -0.0001466 0)
(0.001192 -0.0001543 0)
(0.001232 -0.0001613 0)
(0.001274 -0.0001674 0)
(0.001318 -0.0001724 0)
(0.001362 -0.000176 0)
(0.001408 -0.000178 0)
(0.001453 -0.0001781 0)
(0.001499 -0.0001761 0)
(0.001543 -0.0001718 0)
(0.001586 -0.000165 0)
(0.001628 -0.0001556 0)
(0.001666 -0.0001436 0)
(0.001701 -0.000129 0)
(0.001732 -0.000112 0)
(0.001759 -9.278e-05 0)
(0.00178 -7.178e-05 0)
(0.001796 -4.941e-05 0)
(0.001806 -2.617e-05 0)
(0.001809 -2.589e-06 0)
(0.001807 2.079e-05 0)
(0.001799 4.347e-05 0)
(0.001785 6.5e-05 0)
(0.001766 8.502e-05 0)
(0.001742 0.0001032 0)
(0.001713 0.0001194 0)
(0.001681 0.0001334 0)
(0.001645 0.0001452 0)
(0.001607 0.0001547 0)
(0.001566 0.000162 0)
(0.001524 0.0001672 0)
(0.001481 0.0001704 0)
(0.001437 0.0001717 0)
(0.001393 0.0001714 0)
(0.001349 0.0001695 0)
(0.001306 0.0001663 0)
(0.001264 0.000162 0)
(0.001223 0.0001567 0)
(0.001184 0.0001507 0)
(0.001145 0.0001442 0)
(0.001109 0.0001372 0)
(0.001075 0.0001299 0)
(0.001042 0.0001225 0)
(0.001011 0.000115 0)
(0.000982 0.0001076 0)
(0.0009548 0.0001004 0)
(0.0009295 9.327e-05 0)
(0.000906 8.643e-05 0)
(0.0008842 7.988e-05 0)
(0.000864 7.363e-05 0)
(0.0008453 6.771e-05 0)
(0.0008281 6.212e-05 0)
(0.0008124 5.687e-05 0)
(0.0007979 5.197e-05 0)
(0.0007847 4.739e-05 0)
(0.0007726 4.315e-05 0)
(0.0007615 3.921e-05 0)
(0.0007515 3.558e-05 0)
(0.0007423 3.223e-05 0)
(0.0007341 2.916e-05 0)
(0.0007265 2.634e-05 0)
(0.0007197 2.376e-05 0)
(0.0007136 2.14e-05 0)
(0.000708 1.925e-05 0)
(0.000703 1.73e-05 0)
(0.0006985 1.553e-05 0)
(0.0006944 1.392e-05 0)
(0.0006908 1.247e-05 0)
(0.0006875 1.117e-05 0)
(0.0006846 1.001e-05 0)
(0.0006819 8.969e-06 0)
(0.0006796 8.051e-06 0)
(0.0006774 7.247e-06 0)
(0.0006755 6.553e-06 0)
(0.0006738 5.965e-06 0)
(0.0006722 5.48e-06 0)
(0.0006708 5.094e-06 0)
(0.0006695 4.807e-06 0)
(0.0006683 4.612e-06 0)
(0.0006672 4.503e-06 0)
(0.0006662 4.468e-06 0)
(0.0006653 4.482e-06 0)
(0.0006643 4.508e-06 0)
(0.001208 0.0001098 0)
(0.00123 0.0002699 0)
(0.001258 0.0003695 0)
(0.001281 0.0004188 0)
(0.001292 0.0004324 0)
(0.001291 0.000423 0)
(0.001279 0.0004001 0)
(0.00126 0.00037 0)
(0.001235 0.0003372 0)
(0.001206 0.0003041 0)
(0.001176 0.0002723 0)
(0.001146 0.0002425 0)
(0.001117 0.000215 0)
(0.001089 0.0001899 0)
(0.001062 0.000167 0)
(0.001038 0.0001463 0)
(0.001016 0.0001275 0)
(0.0009965 0.0001105 0)
(0.0009791 9.491e-05 0)
(0.0009638 8.066e-05 0)
(0.0009507 6.755e-05 0)
(0.0009397 5.539e-05 0)
(0.0009308 4.405e-05 0)
(0.0009239 3.339e-05 0)
(0.000919 2.327e-05 0)
(0.000916 1.359e-05 0)
(0.0009148 4.23e-06 0)
(0.0009155 -4.895e-06 0)
(0.0009181 -1.388e-05 0)
(0.0009225 -2.28e-05 0)
(0.0009287 -3.172e-05 0)
(0.0009369 -4.072e-05 0)
(0.0009469 -4.985e-05 0)
(0.000959 -5.916e-05 0)
(0.000973 -6.868e-05 0)
(0.000989 -7.845e-05 0)
(0.001007 -8.848e-05 0)
(0.001028 -9.878e-05 0)
(0.00105 -0.0001093 0)
(0.001075 -0.0001201 0)
(0.001102 -0.0001311 0)
(0.001131 -0.0001421 0)
(0.001163 -0.0001532 0)
(0.001197 -0.0001642 0)
(0.001234 -0.000175 0)
(0.001273 -0.0001853 0)
(0.001313 -0.000195 0)
(0.001356 -0.0002039 0)
(0.001401 -0.0002116 0)
(0.001447 -0.0002179 0)
(0.001495 -0.0002225 0)
(0.001543 -0.000225 0)
(0.001592 -0.0002252 0)
(0.00164 -0.0002228 0)
(0.001688 -0.0002174 0)
(0.001734 -0.0002089 0)
(0.001778 -0.0001971 0)
(0.00182 -0.000182 0)
(0.001858 -0.0001635 0)
(0.001891 -0.000142 0)
(0.00192 -0.0001177 0)
(0.001943 -9.11e-05 0)
(0.00196 -6.272e-05 0)
(0.00197 -3.323e-05 0)
(0.001974 -3.326e-06 0)
(0.001972 2.631e-05 0)
(0.001963 5.505e-05 0)
(0.001948 8.231e-05 0)
(0.001927 0.0001076 0)
(0.001901 0.0001306 0)
(0.001871 0.0001511 0)
(0.001836 0.0001688 0)
(0.001798 0.0001836 0)
(0.001757 0.0001957 0)
(0.001713 0.0002049 0)
(0.001668 0.0002115 0)
(0.001622 0.0002155 0)
(0.001576 0.0002172 0)
(0.001529 0.0002167 0)
(0.001482 0.0002144 0)
(0.001436 0.0002104 0)
(0.001392 0.000205 0)
(0.001348 0.0001984 0)
(0.001306 0.0001908 0)
(0.001265 0.0001825 0)
(0.001227 0.0001737 0)
(0.00119 0.0001646 0)
(0.001155 0.0001553 0)
(0.001123 0.0001459 0)
(0.001092 0.0001365 0)
(0.001063 0.0001274 0)
(0.001036 0.0001184 0)
(0.001011 0.0001098 0)
(0.000988 0.0001015 0)
(0.0009666 9.365e-05 0)
(0.0009467 8.616e-05 0)
(0.0009285 7.91e-05 0)
(0.0009117 7.247e-05 0)
(0.0008963 6.626e-05 0)
(0.0008821 6.046e-05 0)
(0.0008692 5.508e-05 0)
(0.0008575 5.009e-05 0)
(0.0008467 4.548e-05 0)
(0.0008369 4.124e-05 0)
(0.0008281 3.733e-05 0)
(0.00082 3.374e-05 0)
(0.0008127 3.046e-05 0)
(0.0008061 2.746e-05 0)
(0.0008001 2.472e-05 0)
(0.0007947 2.223e-05 0)
(0.0007899 1.997e-05 0)
(0.0007855 1.792e-05 0)
(0.0007816 1.607e-05 0)
(0.000778 1.44e-05 0)
(0.0007749 1.29e-05 0)
(0.000772 1.157e-05 0)
(0.0007695 1.038e-05 0)
(0.0007672 9.341e-06 0)
(0.0007651 8.436e-06 0)
(0.0007632 7.662e-06 0)
(0.0007616 7.012e-06 0)
(0.0007601 6.485e-06 0)
(0.0007587 6.073e-06 0)
(0.0007575 5.773e-06 0)
(0.0007563 5.575e-06 0)
(0.0007553 5.466e-06 0)
(0.0007543 5.425e-06 0)
(0.0007533 5.422e-06 0)
(0.001206 9.576e-05 0)
(0.001225 0.0002429 0)
(0.001251 0.0003424 0)
(0.001275 0.0003995 0)
(0.001291 0.0004239 0)
(0.001299 0.0004251 0)
(0.001297 0.0004111 0)
(0.001288 0.0003879 0)
(0.001272 0.0003598 0)
(0.001253 0.0003295 0)
(0.001231 0.000299 0)
(0.001207 0.0002694 0)
(0.001183 0.0002413 0)
(0.00116 0.000215 0)
(0.001137 0.0001906 0)
(0.001116 0.0001681 0)
(0.001097 0.0001473 0)
(0.001079 0.0001282 0)
(0.001063 0.0001105 0)
(0.001049 9.423e-05 0)
(0.001037 7.908e-05 0)
(0.001027 6.492e-05 0)
(0.001019 5.162e-05 0)
(0.001013 3.902e-05 0)
(0.001008 2.701e-05 0)
(0.001006 1.546e-05 0)
(0.001005 4.254e-06 0)
(0.001006 -6.714e-06 0)
(0.001009 -1.754e-05 0)
(0.001014 -2.832e-05 0)
(0.00102 -3.912e-05 0)
(0.001029 -5.003e-05 0)
(0.00104 -6.11e-05 0)
(0.001052 -7.24e-05 0)
(0.001067 -8.397e-05 0)
(0.001083 -9.584e-05 0)
(0.001102 -0.000108 0)
(0.001123 -0.0001205 0)
(0.001146 -0.0001334 0)
(0.001172 -0.0001465 0)
(0.0012 -0.0001598 0)
(0.00123 -0.0001732 0)
(0.001263 -0.0001867 0)
(0.001298 -0.0002001 0)
(0.001336 -0.0002132 0)
(0.001376 -0.0002258 0)
(0.001418 -0.0002377 0)
(0.001463 -0.0002485 0)
(0.001509 -0.000258 0)
(0.001557 -0.0002658 0)
(0.001607 -0.0002715 0)
(0.001657 -0.0002747 0)
(0.001708 -0.0002751 0)
(0.001759 -0.0002723 0)
(0.001809 -0.0002659 0)
(0.001858 -0.0002556 0)
(0.001904 -0.0002413 0)
(0.001948 -0.0002229 0)
(0.001988 -0.0002005 0)
(0.002024 -0.0001742 0)
(0.002054 -0.0001444 0)
(0.002079 -0.0001118 0)
(0.002096 -7.693e-05 0)
(0.002108 -4.073e-05 0)
(0.002112 -4.031e-06 0)
(0.002109 3.231e-05 0)
(0.002099 6.751e-05 0)
(0.002083 0.0001009 0)
(0.002061 0.0001318 0)
(0.002034 0.0001599 0)
(0.002002 0.0001848 0)
(0.001965 0.0002063 0)
(0.001925 0.0002244 0)
(0.001882 0.000239 0)
(0.001836 0.0002502 0)
(0.001789 0.0002582 0)
(0.001741 0.0002631 0)
(0.001692 0.0002651 0)
(0.001643 0.0002645 0)
(0.001595 0.0002616 0)
(0.001547 0.0002567 0)
(0.001501 0.0002501 0)
(0.001455 0.0002421 0)
(0.001412 0.0002329 0)
(0.00137 0.0002228 0)
(0.00133 0.0002121 0)
(0.001292 0.000201 0)
(0.001256 0.0001896 0)
(0.001222 0.0001782 0)
(0.00119 0.0001668 0)
(0.00116 0.0001557 0)
(0.001132 0.0001448 0)
(0.001106 0.0001343 0)
(0.001082 0.0001242 0)
(0.00106 0.0001146 0)
(0.00104 0.0001055 0)
(0.001021 9.693e-05 0)
(0.001003 8.884e-05 0)
(0.0009873 8.127e-05 0)
(0.0009727 7.421e-05 0)
(0.0009593 6.764e-05 0)
(0.000947 6.155e-05 0)
(0.0009359 5.592e-05 0)
(0.0009257 5.073e-05 0)
(0.0009165 4.595e-05 0)
(0.0009081 4.156e-05 0)
(0.0009005 3.754e-05 0)
(0.0008936 3.387e-05 0)
(0.0008874 3.051e-05 0)
(0.0008817 2.746e-05 0)
(0.0008766 2.468e-05 0)
(0.0008721 2.216e-05 0)
(0.0008679 1.988e-05 0)
(0.0008642 1.783e-05 0)
(0.0008609 1.598e-05 0)
(0.0008579 1.433e-05 0)
(0.0008552 1.286e-05 0)
(0.0008528 1.157e-05 0)
(0.0008507 1.043e-05 0)
(0.0008487 9.455e-06 0)
(0.000847 8.627e-06 0)
(0.0008454 7.941e-06 0)
(0.000844 7.392e-06 0)
(0.0008428 6.972e-06 0)
(0.0008416 6.673e-06 0)
(0.0008405 6.481e-06 0)
(0.0008396 6.38e-06 0)
(0.0008386 6.346e-06 0)
(0.001205 8.46e-05 0)
(0.001221 0.0002194 0)
(0.001244 0.0003164 0)
(0.001268 0.0003776 0)
(0.001288 0.0004095 0)
(0.001301 0.0004192 0)
(0.001307 0.0004132 0)
(0.001305 0.0003966 0)
(0.001298 0.0003736 0)
(0.001286 0.0003469 0)
(0.001272 0.0003187 0)
(0.001255 0.0002902 0)
(0.001237 0.0002624 0)
(0.001218 0.0002357 0)
(0.0012 0.0002105 0)
(0.001182 0.0001867 0)
(0.001166 0.0001645 0)
(0.001151 0.0001438 0)
(0.001137 0.0001245 0)
(0.001125 0.0001064 0)
(0.001114 8.946e-05 0)
(0.001106 7.35e-05 0)
(0.001098 5.84e-05 0)
(0.001093 4.401e-05 0)
(0.001089 3.02e-05 0)
(0.001087 1.686e-05 0)
(0.001087 3.862e-06 0)
(0.001088 -8.907e-06 0)
(0.001092 -2.155e-05 0)
(0.001097 -3.416e-05 0)
(0.001104 -4.683e-05 0)
(0.001112 -5.965e-05 0)
(0.001123 -7.268e-05 0)
(0.001136 -8.598e-05 0)
(0.001151 -9.961e-05 0)
(0.001167 -0.0001136 0)
(0.001186 -0.000128 0)
(0.001207 -0.0001427 0)
(0.001231 -0.0001579 0)
(0.001257 -0.0001733 0)
(0.001285 -0.0001891 0)
(0.001316 -0.000205 0)
(0.001349 -0.000221 0)
(0.001384 -0.0002368 0)
(0.001423 -0.0002524 0)
(0.001463 -0.0002674 0)
(0.001506 -0.0002815 0)
(0.001551 -0.0002944 0)
(0.001599 -0.0003058 0)
(0.001648 -0.0003152 0)
(0.001698 -0.0003221 0)
(0.00175 -0.0003262 0)
(0.001802 -0.0003269 0)
(0.001855 -0.0003238 0)
(0.001907 -0.0003164 0)
(0.001957 -0.0003045 0)
(0.002006 -0.0002877 0)
(0.002052 -0.000266 0)
(0.002094 -0.0002393 0)
(0.002131 -0.000208 0)
(0.002163 -0.0001725 0)
(0.002188 -0.0001335 0)
(0.002207 -9.185e-05 0)
(0.002218 -4.853e-05 0)
(0.002223 -4.63e-06 0)
(0.00222 3.88e-05 0)
(0.002209 8.079e-05 0)
(0.002192 0.0001205 0)
(0.002169 0.0001573 0)
(0.002141 0.0001906 0)
(0.002107 0.0002201 0)
(0.002069 0.0002456 0)
(0.002027 0.0002669 0)
(0.001983 0.0002842 0)
(0.001936 0.0002974 0)
(0.001887 0.0003067 0)
(0.001838 0.0003124 0)
(0.001787 0.0003147 0)
(0.001737 0.0003139 0)
(0.001688 0.0003104 0)
(0.001639 0.0003045 0)
(0.001591 0.0002966 0)