/*--------------------------------*- C++ -*----------------------------------*\
  =========                 |
  \\      /  F ield         | OpenFOAM: The Open Source CFD Toolbox
   \\    /   O peration     | Website:  https://openfoam.org
    \\  /    A nd           | Version:  7
     \\/     M anipulation  |
\*---------------------------------------------------------------------------*/
FoamFile
{
    version     2.0;
    format      ascii;
    class       volScalarField;
    location    "2339.99947343932445";
    object      Y.K;
}
// * * * * * * * * * * * * * * * * * * * * * * * * * * * * * * * * * * * * * //

dimensions      [0 0 0 0 0 0 0];

internalField   nonuniform List<scalar> 
4096
(
4.847e-73
-2.664e-74
6.246e-72
-1.039e-72
-2.376e-73
1.065e-72
-5.777e-73
-2.91e-73
2.024e-73
-3.338e-73
6.162e-72
-8.386e-71
1.285e-69
-1.769e-68
2.409e-67
-3.068e-66
3.745e-65
-4.455e-64
4.97e-63
-5.48e-62
5.846e-61
-6.036e-60
6.102e-59
-5.996e-58
5.751e-57
-5.344e-56
4.82e-55
-4.15e-54
3.413e-53
-2.79e-52
2.257e-51
-1.802e-50
1.414e-49
-1.085e-48
8.118e-48
-5.886e-47
4.111e-46
-2.747e-45
1.738e-44
-1.029e-43
5.539e-43
-2.61e-42
1.001e-41
-1.849e-41
-1.73e-40
2.456e-39
-2.1e-38
1.49e-37
-9.147e-37
5.136e-36
-2.655e-35
1.295e-34
-6.092e-34
2.913e-33
-1.309e-32
5.886e-32
-2.282e-31
9.567e-31
-2.666e-30
1.095e-29
-1.15e-29
7.738e-29
4.049e-28
6.702e-28
5.195e-27
3.044e-26
3.015e-26
3.816e-25
1.117e-24
2.434e-24
1.857e-23
5.405e-23
1.322e-22
9.746e-22
2.558e-21
8.259e-21
1.199e-19
1.844e-18
4.809e-18
9.277e-18
1.594e-17
2.577e-17
4.011e-17
6.07e-17
8.987e-17
1.306e-16
1.867e-16
2.631e-16
3.659e-16
5.025e-16
6.823e-16
9.168e-16
1.22e-15
1.608e-15
2.102e-15
2.726e-15
3.507e-15
4.482e-15
5.689e-15
7.177e-15
9e-15
1.123e-14
1.393e-14
1.719e-14
2.113e-14
2.585e-14
3.15e-14
3.823e-14
4.622e-14
5.567e-14
6.684e-14
7.998e-14
9.541e-14
1.135e-13
1.346e-13
1.592e-13
1.877e-13
2.209e-13
2.592e-13
3.034e-13
3.543e-13
4.128e-13
4.795e-13
5.551e-13
6.396e-13
7.31e-13
8.226e-13
8.956e-13
1.14e-71
-6.486e-71
7.46e-71
-1.295e-71
-5.241e-71
4.544e-71
-3.769e-72
-1.763e-71
6.362e-72
-1.773e-71
3.485e-70
-4.719e-69
7.058e-68
-1.004e-66
1.348e-65
-1.719e-64
2.09e-63
-2.437e-62
2.739e-61
-2.981e-60
3.152e-59
-3.248e-58
3.263e-57
-3.197e-56
3.051e-55
-2.825e-54
2.536e-53
-2.176e-52
1.789e-51
-1.462e-50
1.182e-49
-9.43e-49
7.389e-48
-5.664e-47
4.23e-46
-3.062e-45
2.136e-44
-1.425e-43
9.018e-43
-5.339e-42
2.9e-41
-1.383e-40
5.441e-40
-1.2e-39
-6.829e-39
1.132e-37
-9.958e-37
7.177e-36
-4.34e-35
2.434e-34
-1.25e-33
6.136e-33
-2.872e-32
1.349e-31
-5.975e-31
2.7e-30
-1.026e-29
4.498e-29
-1.181e-28
5.325e-28
-3.805e-28
4.277e-27
2.099e-26
4.273e-26
2.887e-25
1.542e-24
2.029e-24
1.89e-23
5.606e-23
1.275e-22
8.418e-22
2.421e-21
5.732e-21
3.65e-20
9.433e-20
2.228e-19
1.441e-18
3.728e-18
7.311e-18
1.275e-17
2.084e-17
3.266e-17
4.969e-17
7.384e-17
1.076e-16
1.543e-16
2.18e-16
3.039e-16
4.184e-16
5.696e-16
7.673e-16
1.024e-15
1.353e-15
1.773e-15
2.306e-15
2.975e-15
3.812e-15
4.853e-15
6.139e-15
7.719e-15
9.654e-15
1.201e-14
1.487e-14
1.832e-14
2.247e-14
2.744e-14
3.339e-14
4.046e-14
4.885e-14
5.879e-14
7.05e-14
8.428e-14
1.005e-13
1.194e-13
1.415e-13
1.672e-13
1.971e-13
2.317e-13
2.718e-13
3.18e-13
3.712e-13
4.323e-13
5.022e-13
5.819e-13
6.718e-13
7.719e-13
8.792e-13
9.827e-13
-2.634e-70
1.833e-69
-4.586e-69
6.092e-69
-4.19e-69
7.062e-70
1.087e-69
-6.84e-70
-2.244e-71
-9.334e-70
1.95e-68
-2.522e-67
3.762e-66
-5.334e-65
7.134e-64
-9.04e-63
1.092e-61
-1.264e-60
1.41e-59
-1.524e-58
1.601e-57
-1.639e-56
1.637e-55
-1.595e-54
1.514e-53
-1.395e-52
1.247e-51
-1.066e-50
8.769e-50
-7.167e-49
5.795e-48
-4.619e-47
3.617e-46
-2.771e-45
2.068e-44
-1.497e-43
1.044e-42
-6.977e-42
4.426e-41
-2.635e-40
1.445e-39
-7.055e-39
2.898e-38
-7.917e-38
-1.709e-37
4.388e-36
-4.16e-35
3.096e-34
-1.88e-33
1.061e-32
-5.428e-32
2.651e-31
-1.224e-30
5.732e-30
-2.491e-29
1.142e-28
-4.181e-28
2.005e-27
-4.712e-27
2.51e-26
-4.471e-27
2.488e-25
1.048e-24
2.746e-24
1.638e-23
7.554e-23
1.324e-22
9.3e-22
2.713e-21
6.408e-21
3.548e-20
9.86e-20
2.194e-19
1.057e-18
2.591e-18
4.887e-18
8.461e-18
1.393e-17
2.207e-17
3.394e-17
5.088e-17
7.466e-17
1.075e-16
1.524e-16
2.129e-16
2.935e-16
3.999e-16
5.391e-16
7.195e-16
9.517e-16
1.248e-15
1.625e-15
2.099e-15
2.694e-15
3.436e-15
4.357e-15
5.493e-15
6.889e-15
8.597e-15
1.068e-14
1.32e-14
1.625e-14
1.993e-14
2.434e-14
2.961e-14
3.59e-14
4.338e-14
5.224e-14
6.272e-14
7.506e-14
8.958e-14
1.066e-13
1.265e-13
1.497e-13
1.768e-13
2.082e-13
2.446e-13
2.866e-13
3.352e-13
3.911e-13
4.553e-13
5.29e-13
6.132e-13
7.092e-13
8.183e-13
9.416e-13
1.081e-12
1.24e-12
4.335e-69
-3.444e-68
1.207e-67
-2.578e-67
3.558e-67
-3.214e-67
1.767e-67
-3.846e-68
-1.19e-68
-5.459e-68
1.059e-66
-1.273e-65
1.885e-64
-2.655e-63
3.518e-62
-4.412e-61
5.269e-60
-6.031e-59
6.655e-58
-7.117e-57
7.403e-56
-7.509e-55
7.436e-54
-7.189e-53
6.777e-52
-6.211e-51
5.522e-50
-4.706e-49
3.875e-48
-3.169e-47
2.563e-46
-2.043e-45
1.6e-44
-1.226e-43
9.159e-43
-6.636e-42
4.64e-41
-3.111e-40
1.986e-39
-1.194e-38
6.659e-38
-3.36e-37
1.448e-36
-4.807e-36
2.121e-36
1.243e-34
-1.443e-33
1.15e-32
-7.069e-32
4.064e-31
-2.074e-30
1.01e-29
-4.568e-29
2.144e-28
-8.976e-28
4.238e-27
-1.417e-26
8.203e-26
-1.506e-25
1.105e-24
7.975e-25
1.435e-23
5.757e-23
1.587e-22
8.917e-22
3.351e-21
7.753e-21
4.131e-20
1.152e-19
2.733e-19
1.128e-18
2.812e-18
5.45e-18
9.624e-18
1.606e-17
2.571e-17
3.977e-17
5.984e-17
8.792e-17
1.265e-16
1.786e-16
2.48e-16
3.393e-16
4.58e-16
6.108e-16
8.057e-16
1.053e-15
1.363e-15
1.752e-15
2.235e-15
2.834e-15
3.572e-15
4.479e-15
5.588e-15
6.941e-15
8.586e-15
1.058e-14
1.299e-14
1.589e-14
1.937e-14
2.354e-14
2.852e-14
3.446e-14
4.151e-14
4.987e-14
5.976e-14
7.141e-14
8.513e-14
1.012e-13
1.201e-13
1.421e-13
1.678e-13
1.977e-13
2.323e-13
2.725e-13
3.19e-13
3.725e-13
4.342e-13
5.051e-13
5.864e-13
6.794e-13
7.856e-13
9.067e-13
1.044e-12
1.2e-12
1.377e-12
1.58e-12
1.84e-12
-6.183e-68
5.339e-67
-2.316e-66
6.607e-66
-1.306e-65
1.854e-65
-1.903e-65
1.375e-65
-6.254e-66
-2.297e-66
5.567e-65
-6.083e-64
8.877e-63
-1.233e-61
1.608e-60
-1.982e-59
2.325e-58
-2.615e-57
2.837e-56
-2.987e-55
3.063e-54
-3.066e-53
3e-52
-2.87e-51
2.681e-50
-2.439e-49
2.156e-48
-1.831e-47
1.51e-46
-1.236e-45
1.001e-44
-7.987e-44
6.262e-43
-4.806e-42
3.597e-41
-2.614e-40
1.836e-39
-1.239e-38
7.983e-38
-4.869e-37
2.778e-36
-1.456e-35
6.761e-35
-2.62e-34
5.872e-34
1.021e-33
-3.747e-32
3.482e-31
-2.206e-30
1.322e-29
-6.768e-29
3.312e-28
-1.452e-27
6.943e-27
-2.66e-26
1.336e-25
-3.296e-25
3.072e-24
-2.609e-24
4.417e-23
7.931e-23
7.872e-22
2.96e-21
8.636e-21
4.321e-20
1.423e-19
3.546e-19
1.378e-18
3.593e-18
7.326e-18
1.354e-17
2.352e-17
3.899e-17
6.213e-17
9.572e-17
1.432e-16
2.085e-16
2.964e-16
4.125e-16
5.63e-16
7.555e-16
9.982e-16
1.301e-15
1.676e-15
2.136e-15
2.697e-15
3.379e-15
4.205e-15
5.2e-15
6.397e-15
7.834e-15
9.555e-15
1.161e-14
1.407e-14
1.701e-14
2.05e-14
2.465e-14
2.958e-14
3.543e-14
4.234e-14
5.052e-14
6.015e-14
7.15e-14
8.484e-14
1.005e-13
1.188e-13
1.403e-13
1.653e-13
1.944e-13
2.283e-13
2.675e-13
3.131e-13
3.657e-13
4.264e-13
4.963e-13
5.767e-13
6.689e-13
7.746e-13
8.954e-13
1.033e-12
1.19e-12
1.369e-12
1.571e-12
1.8e-12
2.059e-12
2.35e-12
2.683e-12
3.144e-12
8.138e-67
-7.42e-66
3.731e-65
-1.308e-64
3.325e-64
-6.335e-64
9.194e-64
-1.013e-63
8.264e-64
-5.206e-64
2.797e-63
-2.756e-62
3.909e-61
-5.3e-60
6.733e-59
-8.075e-58
9.221e-57
-1.011e-55
1.07e-54
-1.102e-53
1.107e-52
-1.088e-51
1.048e-50
-9.887e-50
9.128e-49
-8.228e-48
7.224e-47
-6.119e-46
5.056e-45
-4.146e-44
3.363e-43
-2.689e-42
2.113e-41
-1.627e-40
1.222e-39
-8.926e-39
6.311e-38
-4.299e-37
2.806e-36
-1.743e-35
1.022e-34
-5.577e-34
2.782e-33
-1.221e-32
4.312e-32
-8.322e-32
-3.443e-31
7.453e-30
-5.285e-29
3.495e-28
-1.823e-27
9.19e-27
-3.834e-26
1.98e-25
-5.984e-25
3.476e-24
2.872e-25
1.084e-22
5.842e-23
1.522e-21
6.042e-21
3.848e-20
1.338e-19
3.959e-19
1.606e-18
4.522e-18
1.005e-17
2.012e-17
3.766e-17
6.671e-17
1.127e-16
1.826e-16
2.847e-16
4.287e-16
6.254e-16
8.864e-16
1.224e-15
1.651e-15
2.18e-15
2.827e-15
3.605e-15
4.531e-15
5.626e-15
6.911e-15
8.415e-15
1.017e-14
1.221e-14
1.459e-14
1.735e-14
2.058e-14
2.434e-14
2.872e-14
3.383e-14
3.981e-14
4.679e-14
5.494e-14
6.448e-14
7.562e-14
8.863e-14
1.038e-13
1.216e-13
1.422e-13
1.663e-13
1.943e-13
2.268e-13
2.646e-13
3.084e-13
3.591e-13
4.176e-13
4.853e-13
5.632e-13
6.528e-13
7.558e-13
8.74e-13
1.009e-12
1.164e-12
1.34e-12
1.541e-12
1.77e-12
2.03e-12
2.324e-12
2.657e-12
3.032e-12
3.455e-12
3.931e-12
4.465e-12
5.068e-12
5.945e-12
-1.019e-65
9.632e-65
-5.393e-64
2.209e-63
-6.808e-63
1.623e-62
-3.041e-62
4.479e-62
-5.042e-62
3.829e-62
1.09e-61
-1.167e-60
1.591e-59
-2.076e-58
2.534e-57
-2.918e-56
3.205e-55
-3.387e-54
3.47e-53
-3.466e-52
3.389e-51
-3.252e-50
3.067e-49
-2.842e-48
2.586e-47
-2.305e-46
2.009e-45
-1.698e-44
1.407e-43
-1.157e-42
9.412e-42
-7.551e-41
5.958e-40
-4.608e-39
3.481e-38
-2.561e-37
1.828e-36
-1.26e-35
8.358e-35
-5.305e-34
3.202e-33
-1.82e-32
9.661e-32
-4.701e-31
2.029e-30
-7.485e-30
1.673e-29
2.847e-29
-5.548e-28
6.539e-27
-3.805e-26
2.144e-25
-8.236e-25
5.516e-24
-8.274e-24
7.89e-23
3.183e-22
3.802e-21
9.277e-21
7.13e-20
3.063e-19
1.424e-18
4.576e-18
1.164e-17
2.649e-17
5.584e-17
1.103e-16
2.055e-16
3.631e-16
6.107e-16
9.815e-16
1.512e-15
2.241e-15
3.205e-15
4.437e-15
5.965e-15
7.81e-15
9.989e-15
1.251e-14
1.539e-14
1.864e-14
2.228e-14
2.633e-14
3.083e-14
3.584e-14
4.142e-14
4.766e-14
5.466e-14
6.255e-14
7.148e-14
8.161e-14
9.316e-14
1.064e-13
1.215e-13
1.389e-13
1.589e-13
1.819e-13
2.085e-13
2.392e-13
2.746e-13
3.154e-13
3.626e-13
4.17e-13
4.797e-13
5.52e-13
6.351e-13
7.308e-13
8.407e-13
9.668e-13
1.111e-12
1.277e-12
1.466e-12
1.682e-12
1.929e-12
2.209e-12
2.529e-12
2.891e-12
3.301e-12
3.766e-12
4.29e-12
4.882e-12
5.548e-12
6.296e-12
7.136e-12
8.075e-12
9.124e-12
1.029e-11
1.206e-11
1.23e-64
-1.192e-63
7.238e-63
-3.349e-62
1.205e-61
-3.446e-61
7.942e-61
-1.477e-60
2.189e-60
-2.545e-60
6.628e-60
-4.536e-59
5.846e-58
-7.209e-57
8.295e-56
-9.019e-55
9.385e-54
-9.439e-53
9.25e-52
-8.882e-51
8.389e-50
-7.812e-49
7.179e-48
-6.511e-47
5.823e-46
-5.126e-45
4.431e-44
-3.74e-43
3.112e-42
-2.57e-41
2.1e-40
-1.694e-39
1.344e-38
-1.047e-37
7.976e-37
-5.927e-36
4.282e-35
-2.997e-34
2.026e-33
-1.317e-32
8.194e-32
-4.841e-31
2.709e-30
-1.422e-29
6.928e-29
-3.075e-28
1.198e-27
-3.764e-27
6.034e-27
2.346e-26
-2.901e-25
3.905e-24
-1.19e-23
1.607e-22
7.121e-23
2.463e-21
2.437e-20
1.321e-19
5.28e-19
2.578e-18
9.028e-18
2.533e-17
6.363e-17
1.474e-16
3.179e-16
6.414e-16
1.216e-15
2.173e-15
3.675e-15
5.905e-15
9.047e-15
1.326e-14
1.867e-14
2.534e-14
3.326e-14
4.237e-14
5.255e-14
6.367e-14
7.558e-14
8.817e-14
1.013e-13
1.151e-13
1.294e-13
1.445e-13
1.604e-13
1.773e-13
1.955e-13
2.154e-13
2.371e-13
2.612e-13
2.88e-13
3.181e-13
3.521e-13
3.906e-13
4.343e-13
4.842e-13
5.411e-13
6.062e-13
6.806e-13
7.658e-13
8.634e-13
9.751e-13
1.103e-12
1.249e-12
1.417e-12
1.608e-12
1.827e-12
2.076e-12
2.361e-12
2.685e-12
3.054e-12
3.473e-12
3.95e-12
4.489e-12
5.101e-12
5.792e-12
6.573e-12
7.454e-12
8.445e-12
9.56e-12
1.081e-11
1.221e-11
1.378e-11
1.553e-11
1.748e-11
1.965e-11
2.204e-11
2.573e-11
-1.441e-63
1.421e-62
-9.18e-62
4.686e-61
-1.917e-60
6.391e-60
-1.757e-59
3.984e-59
-7.292e-59
9.857e-59
1.136e-58
-1.563e-57
1.872e-56
-2.114e-55
2.235e-54
-2.242e-53
2.169e-52
-2.045e-51
1.894e-50
-1.732e-49
1.568e-48
-1.408e-47
1.255e-46
-1.11e-45
9.73e-45
-8.445e-44
7.239e-43
-6.113e-42
5.117e-41
-4.253e-40
3.501e-39
-2.847e-38
2.281e-37
-1.795e-36
1.385e-35
-1.044e-34
7.673e-34
-5.479e-33
3.791e-32
-2.536e-31
1.628e-30
-9.946e-30
5.816e-29
-3.224e-28
1.695e-27
-8.398e-27
3.884e-26
-1.657e-25
6.324e-25
-2.277e-24
5.29e-24
2.546e-23
2.524e-23
3.119e-21
6.658e-21
1.29e-19
9.751e-19
4.293e-18
1.503e-17
4.67e-17
1.326e-16
3.467e-16
8.386e-16
1.882e-15
3.928e-15
7.649e-15
1.395e-14
2.391e-14
3.867e-14
5.927e-14
8.641e-14
1.203e-13
1.607e-13
2.066e-13
2.568e-13
3.096e-13
3.634e-13
4.167e-13
4.685e-13
5.18e-13
5.65e-13
6.099e-13
6.53e-13
6.952e-13
7.373e-13
7.803e-13
8.254e-13
8.735e-13
9.26e-13
9.84e-13
1.049e-12
1.122e-12
1.205e-12
1.299e-12
1.406e-12
1.528e-12
1.668e-12
1.827e-12
2.009e-12
2.217e-12
2.454e-12
2.724e-12
3.032e-12
3.382e-12
3.781e-12
4.235e-12
4.75e-12
5.335e-12
5.998e-12
6.75e-12
7.601e-12
8.563e-12
9.649e-12
1.087e-11
1.225e-11
1.381e-11
1.555e-11
1.751e-11
1.971e-11
2.217e-11
2.491e-11
2.797e-11
3.138e-11
3.517e-11
3.937e-11
4.403e-11
4.911e-11
5.71e-11
1.636e-62
-1.632e-61
1.108e-60
-6.138e-60
2.799e-59
-1.066e-58
3.423e-58
-9.289e-58
2.115e-57
-4.007e-57
1.014e-56
-4.713e-56
4.753e-55
-4.77e-54
4.465e-53
-4.001e-52
3.52e-51
-3.062e-50
2.647e-49
-2.283e-48
1.966e-47
-1.693e-46
1.456e-45
-1.251e-44
1.073e-43
-9.165e-43
7.781e-42
-6.595e-41
5.572e-40
-4.678e-39
3.894e-38
-3.207e-37
2.608e-36
-2.089e-35
1.646e-34
-1.272e-33
9.589e-33
-7.055e-32
5.044e-31
-3.506e-30
2.328e-29
-1.469e-28
8.905e-28
-5.073e-27
2.789e-26
-1.469e-25
7.387e-25
-3.532e-24
1.613e-23
-6.826e-23
2.892e-22
8.871e-23
8.856e-21
6.896e-20
5.569e-19
3.849e-18
1.76e-17
6.561e-17
2.188e-16
6.662e-16
1.86e-15
4.775e-15
1.129e-14
2.464e-14
4.979e-14
9.346e-14
1.636e-13
2.684e-13
4.142e-13
6.041e-13
8.365e-13
1.104e-12
1.397e-12
1.699e-12
1.997e-12
2.276e-12
2.525e-12
2.739e-12
2.915e-12
3.055e-12
3.164e-12
3.249e-12
3.315e-12
3.37e-12
3.418e-12
3.467e-12
3.522e-12
3.586e-12
3.665e-12
3.761e-12
3.88e-12
4.025e-12
4.198e-12
4.404e-12
4.646e-12
4.929e-12
5.259e-12
5.639e-12
6.078e-12
6.581e-12
7.156e-12
7.813e-12
8.56e-12
9.411e-12
1.038e-11
1.147e-11
1.271e-11
1.411e-11
1.569e-11
1.748e-11
1.949e-11
2.175e-11
2.429e-11
2.715e-11
3.035e-11
3.394e-11
3.795e-11
4.243e-11
4.743e-11
5.3e-11
5.92e-11
6.608e-11
7.37e-11
8.215e-11
9.147e-11
1.018e-10
1.129e-10
1.306e-10
-1.792e-61
1.802e-60
-1.274e-59
7.553e-59
-3.785e-58
1.621e-57
-5.983e-57
1.904e-56
-5.132e-56
1.093e-55
-1.113e-56
-8.868e-55
8.478e-54
-6.746e-53
5.187e-52
-3.969e-51
3.111e-50
-2.465e-49
1.971e-48
-1.59e-47
1.294e-46
-1.062e-45
8.77e-45
-7.281e-44
6.07e-43
-5.069e-42
4.233e-41
-3.53e-40
2.937e-39
-2.433e-38
2e-37
-1.633e-36
1.329e-35
-1.066e-34
8.505e-34
-6.72e-33
5.136e-32
-3.854e-31
2.808e-30
-1.99e-29
1.346e-28
-8.996e-28
5.715e-27
-3.568e-26
2.136e-25
-1.228e-24
6.721e-24
-3.534e-23
1.792e-22
-7.741e-22
3.068e-21
3.172e-20
3.388e-19
2.82e-18
1.516e-17
6.716e-17
2.669e-16
9.661e-16
3.191e-15
9.62e-15
2.649e-14
6.672e-14
1.539e-13
3.262e-13
6.363e-13
1.148e-12
1.925e-12
3.014e-12
4.425e-12
6.128e-12
8.041e-12
1.005e-11
1.202e-11
1.381e-11
1.533e-11
1.649e-11
1.727e-11
1.774e-11
1.786e-11
1.775e-11
1.75e-11
1.712e-11
1.667e-11
1.619e-11
1.573e-11
1.532e-11
1.496e-11
1.468e-11
1.449e-11
1.438e-11
1.441e-11
1.451e-11
1.471e-11
1.504e-11
1.549e-11
1.606e-11
1.677e-11
1.763e-11
1.864e-11
1.982e-11
2.12e-11
2.278e-11
2.46e-11
2.666e-11
2.901e-11
3.168e-11
3.469e-11
3.808e-11
4.191e-11
4.621e-11
5.104e-11
5.646e-11
6.252e-11
6.93e-11
7.687e-11
8.532e-11
9.473e-11
1.052e-10
1.168e-10
1.297e-10
1.44e-10
1.598e-10
1.773e-10
1.965e-10
2.177e-10
2.41e-10
2.659e-10
3.06e-10
1.877e-60
-1.896e-59
1.383e-58
-8.699e-58
4.736e-57
-2.254e-56
9.459e-56
-3.52e-55
1.162e-54
-3.378e-54
8.486e-54
-1.789e-53
3.312e-53
-1.047e-52
7.466e-52
-6.222e-51
4.552e-50
-3.08e-49
1.979e-48
-1.457e-47
1.105e-46
-9.376e-46
8.139e-45
-6.981e-44
6.393e-43
-5.364e-42
4.17e-41
-3.039e-40
2.006e-39
-1.284e-38
2.932e-38
2.034e-37
-2.066e-36
3.098e-35
-3.295e-34
2.359e-33
-2.419e-32
1.286e-31
-6.859e-31
2.369e-30
7.087e-30
-2.141e-28
2.727e-27
-2.588e-26
2.147e-25
-1.651e-24
1.145e-23
-7.321e-23
5.78e-22
-9.436e-22
1.166e-19
1.318e-18
8.595e-18
4.616e-17
2.226e-16
9.76e-16
3.894e-15
1.412e-14
4.65e-14
1.39e-13
3.772e-13
9.306e-13
2.09e-12
4.287e-12
8.052e-12
1.392e-11
2.229e-11
3.319e-11
4.626e-11
6.068e-11
7.53e-11
8.887e-11
1.004e-10
1.087e-10
1.138e-10
1.152e-10
1.14e-10
1.109e-10
1.062e-10
1.005e-10
9.417e-11
8.781e-11
8.169e-11
7.601e-11
7.088e-11
6.637e-11
6.249e-11
5.924e-11
5.658e-11
5.449e-11
5.294e-11
5.191e-11
5.124e-11
5.128e-11
5.161e-11
5.238e-11
5.361e-11
5.53e-11
5.745e-11
6.01e-11
6.328e-11
6.701e-11
7.135e-11
7.634e-11
8.204e-11
8.853e-11
9.588e-11
1.042e-10
1.135e-10
1.24e-10
1.357e-10
1.488e-10
1.634e-10
1.798e-10
1.979e-10
2.181e-10
2.405e-10
2.653e-10
2.928e-10
3.231e-10
3.566e-10
3.935e-10
4.341e-10
4.786e-10
5.275e-10
5.811e-10
6.379e-10
7.301e-10
-1.851e-59
1.871e-58
-1.402e-57
9.265e-57
-5.422e-56
2.833e-55
-1.331e-54
5.658e-54
-2.178e-53
7.543e-53
-2.302e-52
5.831e-52
-1.001e-51
-3.337e-52
8.868e-51
-7.54e-51
-4.929e-49
7.493e-48
-6.479e-47
4.805e-46
-3.658e-45
2.488e-44
-1.598e-43
1.203e-42
-3.421e-42
-5.467e-42
2.821e-40
-3.961e-39
4.017e-38
-3.421e-37
2.693e-36
-1.836e-35
1.979e-34
-8.574e-34
4.089e-33
-1.18e-32
-5.796e-32
1.509e-30
-1.856e-29
1.83e-28
-1.598e-27
1.284e-26
-9.641e-26
6.844e-25
-4.611e-24
2.96e-23
-1.782e-22
1.189e-21
-3.258e-21
2.24e-19
2.774e-18
1.991e-17
1.191e-16
6.416e-16
3.14e-15
1.394e-14
5.608e-14
2.038e-13
6.686e-13
1.978e-12
5.282e-12
1.273e-11
2.777e-11
5.497e-11
9.906e-11
1.636e-10
2.491e-10
3.519e-10
4.642e-10
5.756e-10
6.739e-10
7.502e-10
7.987e-10
8.103e-10
7.981e-10
7.673e-10
7.207e-10
6.643e-10
6.036e-10
5.43e-10
4.853e-10
4.324e-10
3.853e-10
3.442e-10
3.088e-10
2.789e-10
2.538e-10
2.33e-10
2.16e-10
2.022e-10
1.913e-10
1.829e-10
1.767e-10
1.726e-10
1.698e-10
1.697e-10
1.705e-10
1.729e-10
1.767e-10
1.821e-10
1.89e-10
1.974e-10
2.076e-10
2.194e-10
2.331e-10
2.489e-10
2.668e-10
2.87e-10
3.098e-10
3.354e-10
3.64e-10
3.96e-10
4.316e-10
4.712e-10
5.151e-10
5.638e-10
6.176e-10
6.771e-10
7.426e-10
8.148e-10
8.942e-10
9.813e-10
1.077e-09
1.181e-09
1.295e-09
1.42e-09
1.552e-09
1.766e-09
1.685e-58
-1.699e-57
1.299e-56
-8.962e-56
5.593e-55
-3.179e-54
1.658e-53
-7.982e-53
3.561e-52
-1.472e-51
5.583e-51
-1.887e-50
5.196e-50
-2.586e-50
-6.473e-49
6.666e-48
-5.248e-47
3.904e-46
-2.594e-45
1.579e-44
-1.167e-43
8.457e-43
-5.998e-42
4.505e-41
-3.309e-40
2.358e-39
-1.598e-38
1.006e-37
-5.79e-37
2.729e-36
-6.236e-36
-5.956e-35
1.232e-33
-1.475e-32
1.47e-31
-1.323e-30
1.111e-29
-8.841e-29
6.719e-28
-4.9e-27
3.439e-26
-2.326e-25
1.52e-24
-9.553e-24
5.836e-23
-3.36e-22
2.075e-21
-7.074e-21
3.58e-19
4.893e-18
3.885e-17
2.6e-16
1.572e-15
8.641e-15
4.304e-14
1.936e-13
7.846e-13
2.856e-12
9.323e-12
2.727e-11
7.146e-11
1.679e-10
3.546e-10
6.75e-10
1.162e-09
1.826e-09
2.636e-09
3.52e-09
4.386e-09
5.133e-09
5.647e-09
5.925e-09
5.865e-09
5.649e-09
5.277e-09
4.798e-09
4.268e-09
3.734e-09
3.228e-09
2.768e-09
2.365e-09
2.02e-09
1.729e-09
1.487e-09
1.288e-09
1.125e-09
9.929e-10
8.855e-10
7.988e-10
7.292e-10
6.737e-10
6.3e-10
5.962e-10
5.709e-10
5.526e-10
5.411e-10
5.343e-10
5.35e-10
5.392e-10
5.48e-10
5.615e-10
5.795e-10
6.022e-10
6.297e-10
6.622e-10
7e-10
7.433e-10
7.926e-10
8.482e-10
9.108e-10
9.809e-10
1.059e-09
1.146e-09
1.242e-09
1.349e-09
1.467e-09
1.597e-09
1.741e-09
1.898e-09
2.071e-09
2.261e-09
2.468e-09
2.695e-09
2.942e-09
3.211e-09
3.504e-09
3.811e-09
4.313e-09
-1.369e-57
1.372e-56
-1.065e-55
7.618e-55
-5.026e-54
3.077e-53
-1.76e-52
9.474e-52
-4.831e-51
2.347e-50
-1.09e-49
4.852e-49
-2.061e-48
8.247e-48
-2.999e-47
8.869e-47
-1.095e-46
-1.78e-45
1.67e-44
-2.007e-43
1.105e-42
-6.345e-42
5.517e-41
-1.65e-40
4.32e-41
8.605e-39
-1.36e-37
1.481e-36
-1.418e-35
1.26e-34
-1.064e-33
8.636e-33
-6.786e-32
5.181e-31
-3.853e-30
2.794e-29
-1.977e-28
1.365e-27
-9.2e-27
6.046e-26
-3.873e-25
2.419e-24
-1.465e-23
8.7e-23
-4.899e-22
2.937e-21
-1.105e-20
4.681e-19
7.08e-18
6.235e-17
4.682e-16
3.19e-15
1.978e-14
1.112e-13
5.637e-13
2.568e-12
1.048e-11
3.815e-11
1.238e-10
3.572e-10
9.168e-10
2.094e-09
4.264e-09
7.774e-09
1.274e-08
1.896e-08
2.584e-08
3.252e-08
3.828e-08
4.21e-08
4.321e-08
4.23e-08
3.993e-08
3.636e-08
3.21e-08
2.764e-08
2.334e-08
1.944e-08
1.603e-08
1.316e-08
1.079e-08
8.858e-09
7.312e-09
6.079e-09
5.101e-09
4.326e-09
3.713e-09
3.228e-09
2.843e-09
2.538e-09
2.297e-09
2.107e-09
1.958e-09
1.844e-09
1.757e-09
1.694e-09
1.652e-09
1.626e-09
1.622e-09
1.63e-09
1.651e-09
1.686e-09
1.735e-09
1.796e-09
1.872e-09
1.961e-09
2.065e-09
2.184e-09
2.319e-09
2.472e-09
2.643e-09
2.834e-09
3.047e-09
3.282e-09
3.542e-09
3.829e-09
4.145e-09
4.492e-09
4.872e-09
5.288e-09
5.743e-09
6.239e-09
6.78e-09
7.367e-09
8.004e-09
8.698e-09
9.417e-09
1.06e-08
9.49e-57
-9.425e-56
7.388e-55
-5.437e-54
3.752e-53
-2.441e-52
1.506e-51
-8.873e-51
5.027e-50
-2.759e-49
1.478e-48
-7.79e-48
4.073e-47
-2.132e-46
1.128e-45
-6.088e-45
3.383e-44
-1.949e-43
1.167e-42
-7.272e-42
4.705e-41
-3.153e-40
2.182e-39
-1.556e-38
1.138e-37
-8.521e-37
6.424e-36
-4.76e-35
3.49e-34
-2.53e-33
1.811e-32
-1.28e-31
8.922e-31
-6.134e-30
4.155e-29
-2.771e-28
1.818e-27
-1.173e-26
7.43e-26
-4.617e-25
2.813e-24
-1.675e-23
9.839e-23
-5.513e-22
3.282e-21
-1.293e-20
4.929e-19
8.249e-18
8.061e-17
6.797e-16
5.225e-15
3.665e-14
2.333e-13
1.341e-12
6.916e-12
3.188e-11
1.308e-10
4.76e-10
1.532e-09
4.353e-09
1.091e-08
2.414e-08
4.721e-08
8.204e-08
1.273e-07
1.787e-07
2.29e-07
2.718e-07
3.027e-07
3.047e-07
2.957e-07
2.748e-07
2.451e-07
2.111e-07
1.766e-07
1.445e-07
1.163e-07
9.256e-08
7.316e-08
5.769e-08
4.556e-08
3.615e-08
2.889e-08
2.331e-08
1.903e-08
1.573e-08
1.319e-08
1.122e-08
9.683e-09
8.485e-09
7.546e-09
6.81e-09
6.234e-09
5.786e-09
5.441e-09
5.182e-09
4.994e-09
4.866e-09
4.789e-09
4.767e-09
4.789e-09
4.846e-09
4.941e-09
5.074e-09
5.244e-09
5.452e-09
5.699e-09
5.985e-09
6.312e-09
6.683e-09
7.1e-09
7.566e-09
8.084e-09
8.658e-09
9.292e-09
9.99e-09
1.076e-08
1.16e-08
1.252e-08
1.352e-08
1.461e-08
1.58e-08
1.709e-08
1.849e-08
2.001e-08
2.165e-08
2.334e-08
2.613e-08
-5.32e-56
5.234e-55
-4.127e-54
3.1e-53
-2.213e-52
1.507e-51
-9.837e-51
6.187e-50
-3.772e-49
2.241e-48
-1.305e-47
7.49e-47
-4.254e-46
2.402e-45
-1.356e-44
7.683e-44
-4.401e-43
2.565e-42
-1.531e-41
9.414e-41
-5.981e-40
3.925e-39
-2.653e-38
1.836e-37
-1.294e-36
9.243e-36
-6.562e-35
4.575e-34
-3.152e-33
2.148e-32
-1.448e-31
9.651e-31
-6.366e-30
4.152e-29
-2.677e-28
1.705e-27
-1.073e-26
6.658e-26
-4.074e-25
2.456e-24
-1.456e-23
8.534e-23
-4.77e-22
2.851e-21
-1.152e-20
4.125e-19
7.62e-18
8.251e-17
7.801e-16
6.762e-15
5.367e-14
3.876e-13
2.531e-12
1.485e-11
7.782e-11
3.624e-10
1.493e-09
5.417e-09
1.726e-08
4.814e-08
1.174e-07
2.504e-07
4.681e-07
7.712e-07
1.127e-06
1.486e-06
1.786e-06
2.022e-06
2.022e-06
1.952e-06
1.795e-06
1.576e-06
1.33e-06
1.088e-06
8.666e-07
6.773e-07
5.22e-07
3.99e-07
3.037e-07
2.313e-07
1.769e-07
1.362e-07
1.06e-07
8.341e-08
6.654e-08
5.387e-08
4.429e-08
3.7e-08
3.142e-08
2.712e-08
2.378e-08
2.118e-08
1.916e-08
1.758e-08
1.636e-08
1.542e-08
1.472e-08
1.422e-08
1.388e-08
1.367e-08
1.364e-08
1.371e-08
1.387e-08
1.415e-08
1.452e-08
1.5e-08
1.558e-08
1.626e-08
1.705e-08
1.794e-08
1.895e-08
2.009e-08
2.135e-08
2.274e-08
2.429e-08
2.598e-08
2.784e-08
2.987e-08
3.209e-08
3.451e-08
3.713e-08
3.998e-08
4.307e-08
4.641e-08
5.001e-08
5.391e-08
5.79e-08
6.449e-08
2.317e-55
-2.258e-54
1.785e-53
-1.359e-52
9.934e-52
-6.986e-51
4.745e-50
-3.129e-49
2.016e-48
-1.276e-47
7.993e-47
-4.978e-46
3.096e-45
-1.929e-44
1.206e-43
-7.558e-43
4.751e-42
-2.991e-41
1.884e-40
-1.187e-39
7.475e-39
-4.708e-38
2.968e-37
-1.874e-36
1.188e-35
-7.571e-35
4.827e-34
-3.069e-33
1.948e-32
-1.233e-31
7.779e-31
-4.888e-30
3.056e-29
-1.9e-28
1.174e-27
-7.199e-27
4.377e-26
-2.637e-25
1.573e-24
-9.271e-24
5.411e-23
-3.057e-22
1.913e-21
-7.867e-21
2.713e-19
5.516e-18
6.598e-17
6.97e-16
6.791e-15
6.084e-14
4.979e-13
3.695e-12
2.47e-11
1.476e-10
7.84e-10
3.678e-09
1.516e-08
5.467e-08
1.717e-07
4.683e-07
1.106e-06
2.262e-06
4.017e-06
6.239e-06
8.548e-06
1.054e-05
1.204e-05
1.224e-05
1.18e-05
1.078e-05
9.376e-06
7.808e-06
6.275e-06
4.9e-06
3.742e-06
2.811e-06
2.089e-06
1.543e-06
1.138e-06
8.425e-07
6.276e-07
4.719e-07
3.591e-07
2.771e-07
2.171e-07
1.729e-07
1.401e-07
1.155e-07
9.684e-08
8.263e-08
7.17e-08
6.325e-08
5.669e-08
5.158e-08
4.761e-08
4.454e-08
4.222e-08
4.049e-08
3.927e-08
3.85e-08
3.801e-08
3.806e-08
3.831e-08
3.884e-08
3.965e-08
4.073e-08
4.207e-08
4.368e-08
4.557e-08
4.772e-08
5.017e-08
5.291e-08
5.597e-08
5.936e-08
6.309e-08
6.72e-08
7.169e-08
7.659e-08
8.194e-08
8.775e-08
9.405e-08
1.009e-07
1.082e-07
1.162e-07
1.247e-07
1.339e-07
1.434e-07
1.589e-07
-7.427e-55
7.359e-54
-5.886e-53
4.525e-52
-3.333e-51
2.356e-50
-1.598e-49
1.04e-48
-6.505e-48
3.908e-47
-2.255e-46
1.249e-45
-6.632e-45
3.366e-44
-1.626e-43
7.44e-43
-3.21e-42
1.313e-41
-5.322e-41
2.479e-40
-1.616e-39
1.413e-38
-1.349e-37
1.258e-36
-1.115e-35
9.46e-35
-7.483e-34
5.593e-33
-4.018e-32
2.802e-31
-1.909e-30
1.275e-29
-8.381e-29
5.427e-28
-3.468e-27
2.189e-26
-1.366e-25
8.427e-25
-5.141e-24
3.104e-23
-1.842e-22
1.138e-21
-4.184e-21
1.378e-19
3.099e-18
4.085e-17
4.798e-16
5.226e-15
5.262e-14
4.862e-13
4.092e-12
3.112e-11
2.122e-10
1.287e-09
6.896e-09
3.242e-08
1.33e-07
4.737e-07
1.457e-06
3.857e-06
8.758e-06
1.706e-05
2.862e-05
4.167e-05
5.33e-05
6.205e-05
6.473e-05
6.256e-05
5.726e-05
4.968e-05
4.115e-05
3.279e-05
2.531e-05
1.905e-05
1.406e-05
1.024e-05
7.393e-06
5.319e-06
3.832e-06
2.774e-06
2.026e-06
1.497e-06
1.121e-06
8.526e-07
6.595e-07
5.193e-07
4.164e-07
3.401e-07
2.829e-07
2.395e-07
2.064e-07
1.809e-07
1.612e-07
1.458e-07
1.339e-07
1.247e-07
1.176e-07
1.122e-07
1.083e-07
1.057e-07
1.041e-07
1.034e-07
1.038e-07
1.048e-07
1.065e-07
1.089e-07
1.121e-07
1.159e-07
1.203e-07
1.255e-07
1.314e-07
1.38e-07
1.454e-07
1.536e-07
1.626e-07
1.725e-07
1.834e-07
1.952e-07
2.08e-07
2.219e-07
2.37e-07
2.532e-07
2.707e-07
2.896e-07
3.097e-07
3.315e-07
3.535e-07
3.899e-07
3.408e-54
-3.115e-53
2.388e-52
-1.837e-51
1.404e-50
-1.063e-49
7.936e-49
-5.831e-48
4.206e-47
-2.977e-46
2.067e-45
-1.409e-44
9.435e-44
-6.218e-43
4.038e-42
-2.589e-41
1.641e-40
-1.03e-39
6.411e-39
-3.96e-38
2.431e-37
-1.485e-36
9.023e-36
-5.461e-35
3.292e-34
-1.978e-33
1.182e-32
-7.029e-32
4.161e-31
-2.452e-30
1.439e-29
-8.415e-29
4.901e-28
-2.844e-27
1.645e-26
-9.478e-26
5.443e-25
-3.115e-24
1.778e-23
-1.008e-22
5.863e-22
-2.605e-21
4.098e-20
1.309e-18
1.946e-17
2.532e-16
3.064e-15
3.444e-14
3.573e-13
3.394e-12
2.927e-11
2.271e-10
1.572e-09
9.621e-09
5.165e-08
2.415e-07
9.772e-07
3.402e-06
1.014e-05
2.577e-05
5.567e-05
0.0001025
0.0001613
0.0002186
0.000263
0.0002848
0.0002776
0.0002565
0.0002241
0.0001866
0.000149
0.000115
8.632e-05
6.333e-05
4.567e-05
3.255e-05
2.305e-05
1.629e-05
1.155e-05
8.238e-06
5.939e-06
4.338e-06
3.217e-06
2.426e-06
1.863e-06
1.457e-06
1.162e-06
9.446e-07
7.824e-07
6.601e-07
5.67e-07
4.954e-07
4.401e-07
3.971e-07
3.636e-07
3.376e-07
3.176e-07
3.023e-07
2.911e-07
2.831e-07
2.783e-07
2.752e-07
2.756e-07
2.775e-07
2.812e-07
2.867e-07
2.939e-07
3.029e-07
3.136e-07
3.26e-07
3.402e-07
3.561e-07
3.739e-07
3.936e-07
4.153e-07
4.391e-07
4.651e-07
4.933e-07
5.24e-07
5.571e-07
5.929e-07
6.314e-07
6.728e-07
7.171e-07
7.644e-07
8.152e-07
8.665e-07
9.508e-07
8.356e-54
-8.261e-53
6.672e-52
-5.241e-51
3.985e-50
-2.934e-49
2.095e-48
-1.451e-47
9.778e-47
-6.423e-46
4.123e-45
-2.596e-44
1.607e-43
-9.826e-43
5.953e-42
-3.588e-41
2.158e-40
-1.301e-39
7.871e-39
-4.795e-38
2.944e-37
-1.823e-36
1.139e-35
-7.167e-35
4.543e-34
-2.9e-33
1.843e-32
-1.163e-31
7.288e-31
-4.542e-30
2.817e-29
-1.739e-28
1.07e-27
-6.557e-27
4.008e-26
-2.444e-25
1.488e-24
-9.043e-24
5.492e-23
-3.314e-22
2.102e-21
-7.975e-21
2.732e-19
6.894e-18
1.024e-16
1.368e-15
1.705e-14
1.971e-13
2.1e-12
2.041e-11
1.795e-10
1.414e-09
9.876e-09
6.053e-08
3.226e-07
1.483e-06
5.843e-06
1.959e-05
5.566e-05
0.0001338
0.0002715
0.0004678
0.0006838
0.0008617
0.0009848
0.0009746
0.0009187
0.0008185
0.0006934
0.0005628
0.0004407
0.0003346
0.0002475
0.0001793
0.0001278
9.015e-05
6.32e-05
4.427e-05
3.112e-05
2.205e-05
1.581e-05
1.149e-05
8.488e-06
6.383e-06
4.892e-06
3.822e-06
3.045e-06
2.474e-06
2.049e-06
1.729e-06
1.485e-06
1.298e-06
1.153e-06
1.041e-06
9.53e-07
8.846e-07
8.317e-07
7.913e-07
7.613e-07
7.397e-07
7.262e-07
7.165e-07
7.169e-07
7.207e-07
7.288e-07
7.416e-07
7.587e-07
7.8e-07
8.056e-07
8.353e-07
8.693e-07
9.076e-07
9.503e-07
9.976e-07
1.05e-06
1.106e-06
1.168e-06
1.235e-06
1.308e-06
1.386e-06
1.471e-06
1.561e-06
1.658e-06
1.761e-06
1.87e-06
1.987e-06
2.105e-06
2.297e-06
-2.617e-53
2.428e-52
-1.88e-51
1.451e-50
-1.107e-49
8.332e-49
-6.171e-48
4.491e-47
-3.209e-46
2.25e-45
-1.549e-44
1.047e-43
-6.956e-43
4.546e-42
-2.927e-41
1.858e-40
-1.165e-39
7.226e-39
-4.437e-38
2.7e-37
-1.631e-36
9.784e-36
-5.836e-35
3.465e-34
-2.048e-33
1.206e-32
-7.069e-32
4.128e-31
-2.403e-30
1.396e-29
-8.099e-29
4.695e-28
-2.721e-27
1.578e-26
-9.161e-26
5.329e-25
-3.108e-24
1.82e-23
-1.067e-22
6.475e-22
-2.929e-21
5.844e-20
1.957e-18
3.206e-17
4.684e-16
6.412e-15
8.197e-14
9.714e-13
1.058e-11
1.048e-10
9.357e-10
7.438e-09
5.204e-08
3.167e-07
1.657e-06
7.391e-06
2.787e-05
8.828e-05
0.0002344
0.0005227
0.0009854
0.00157
0.002112
0.002487
0.002597
0.00251
0.002303
0.002012
0.001685
0.00136
0.001063
0.0008072
0.0005976
0.0004332
0.000309
0.0002179
0.0001527
0.0001069
7.519e-05
5.331e-05
3.825e-05
2.785e-05
2.062e-05
1.556e-05
1.196e-05
9.379e-06
7.502e-06
6.119e-06
5.087e-06
4.309e-06
3.715e-06
3.258e-06
2.903e-06
2.627e-06
2.411e-06
2.243e-06
2.112e-06
2.012e-06
1.938e-06
1.884e-06
1.85e-06
1.826e-06
1.826e-06
1.835e-06
1.854e-06
1.884e-06
1.926e-06
1.977e-06
2.039e-06
2.11e-06
2.192e-06
2.283e-06
2.386e-06
2.498e-06
2.622e-06
2.756e-06
2.902e-06
3.06e-06
3.23e-06
3.412e-06
3.608e-06
3.816e-06
4.038e-06
4.273e-06
4.522e-06
4.786e-06
5.049e-06
5.478e-06
-4.044e-53
3.977e-52
-3.221e-51
2.557e-50
-1.977e-49
1.488e-48
-1.091e-47
7.799e-47
-5.438e-46
3.704e-45
-2.471e-44
1.617e-43
-1.04e-42
6.597e-42
-4.134e-41
2.565e-40
-1.58e-39
9.674e-39
-5.901e-38
3.591e-37
-2.183e-36
1.327e-35
-8.076e-35
4.922e-34
-3.006e-33
1.84e-32
-1.125e-31
6.842e-31
-4.149e-30
2.511e-29
-1.518e-28
9.174e-28
-5.549e-27
3.362e-26
-2.043e-25
1.246e-24
-7.633e-24
4.707e-23
-2.907e-22
1.906e-21
-7.282e-21
2.719e-19
7.552e-18
1.24e-16
1.851e-15
2.594e-14
3.391e-13
4.102e-12
4.549e-11
4.575e-10
4.124e-09
3.29e-08
2.29e-07
1.371e-06
6.967e-06
2.971e-05
0.0001052
0.0003081
0.0007482
0.001523
0.002654
0.003847
0.004857
0.005211
0.005126
0.004875
0.004454
0.003894
0.003279
0.002679
0.002124
0.001636
0.001228
0.0009009
0.0006496
0.0004625
0.0003269
0.0002307
0.0001635
0.0001168
8.443e-05
6.197e-05
4.627e-05
3.52e-05
2.729e-05
2.158e-05
1.741e-05
1.431e-05
1.199e-05