/*--------------------------------*- C++ -*----------------------------------*\
  =========                 |
  \\      /  F ield         | OpenFOAM: The Open Source CFD Toolbox
   \\    /   O peration     | Website:  https://openfoam.org
    \\  /    A nd           | Version:  7
     \\/     M anipulation  |
\*---------------------------------------------------------------------------*/
FoamFile
{
    version     2.0;
    format      ascii;
    class       volScalarField;
    location    "959.999473410657174";
    object      p;
}
// * * * * * * * * * * * * * * * * * * * * * * * * * * * * * * * * * * * * * //

dimensions      [0 2 -2 0 0 0 0];

internalField   nonuniform List<scalar> 
4096
(
0.0006299
0.000459
0.0003748
0.0003326
0.0003093
0.0002954
0.0002865
0.0002804
0.000276
0.0002727
0.0002702
0.0002682
0.0002665
0.0002652
0.000264
0.000263
0.0002621
0.0002613
0.0002606
0.00026
0.0002594
0.0002588
0.0002582
0.0002577
0.0002572
0.0002567
0.0002562
0.0002557
0.0002552
0.0002547
0.0002542
0.0002537
0.0002531
0.0002525
0.0002519
0.0002512
0.0002505
0.0002497
0.0002488
0.0002478
0.0002467
0.0002454
0.000244
0.0002424
0.0002406
0.0002385
0.0002362
0.0002336
0.0002306
0.0002273
0.0002237
0.0002196
0.0002151
0.0002102
0.0002048
0.000199
0.0001927
0.000186
0.000179
0.0001716
0.0001639
0.0001559
0.0001478
0.0001395
0.0001313
0.0001231
0.000115
0.0001071
9.95e-05
9.216e-05
8.517e-05
7.854e-05
7.231e-05
6.648e-05
6.107e-05
5.608e-05
5.149e-05
4.73e-05
4.349e-05
4.004e-05
3.693e-05
3.415e-05
3.165e-05
2.943e-05
2.745e-05
2.568e-05
2.412e-05
2.272e-05
2.148e-05
2.037e-05
1.937e-05
1.847e-05
1.765e-05
1.691e-05
1.622e-05
1.558e-05
1.498e-05
1.442e-05
1.388e-05
1.336e-05
1.286e-05
1.237e-05
1.189e-05
1.142e-05
1.095e-05
1.048e-05
1.002e-05
9.557e-06
9.094e-06
8.629e-06
8.163e-06
7.694e-06
7.222e-06
6.748e-06
6.271e-06
5.79e-06
5.306e-06
4.818e-06
4.327e-06
3.832e-06
3.335e-06
2.834e-06
2.333e-06
1.833e-06
1.337e-06
8.527e-07
3.964e-07
5.79e-08
0.0004855
0.0004217
0.0003719
0.0003399
0.0003189
0.0003047
0.0002946
0.0002873
0.0002818
0.0002776
0.0002743
0.0002716
0.0002694
0.0002676
0.0002661
0.0002648
0.0002636
0.0002626
0.0002616
0.0002608
0.00026
0.0002593
0.0002586
0.0002579
0.0002573
0.0002567
0.0002561
0.0002554
0.0002548
0.0002542
0.0002536
0.0002529
0.0002522
0.0002515
0.0002507
0.0002499
0.000249
0.0002481
0.000247
0.0002459
0.0002446
0.0002432
0.0002416
0.0002398
0.0002379
0.0002357
0.0002332
0.0002305
0.0002275
0.0002242
0.0002205
0.0002164
0.0002119
0.0002071
0.0002018
0.0001961
0.0001901
0.0001837
0.0001769
0.0001698
0.0001624
0.0001548
0.0001471
0.0001393
0.0001315
0.0001237
0.000116
0.0001085
0.0001012
9.415e-05
8.743e-05
8.105e-05
7.501e-05
6.935e-05
6.405e-05
5.914e-05
5.46e-05
5.042e-05
4.66e-05
4.311e-05
3.994e-05
3.707e-05
3.448e-05
3.215e-05
3.005e-05
2.816e-05
2.646e-05
2.493e-05
2.355e-05
2.231e-05
2.118e-05
2.015e-05
1.921e-05
1.834e-05
1.754e-05
1.679e-05
1.609e-05
1.543e-05
1.48e-05
1.42e-05
1.362e-05
1.306e-05
1.252e-05
1.198e-05
1.146e-05
1.094e-05
1.043e-05
9.929e-06
9.427e-06
8.927e-06
8.429e-06
7.932e-06
7.435e-06
6.938e-06
6.44e-06
5.942e-06
5.442e-06
4.941e-06
4.438e-06
3.934e-06
3.429e-06
2.924e-06
2.419e-06
1.916e-06
1.418e-06
9.308e-07
4.613e-07
8.477e-08
0.000402
0.0003803
0.0003549
0.0003341
0.0003186
0.0003069
0.0002979
0.0002909
0.0002853
0.0002808
0.0002772
0.0002742
0.0002717
0.0002696
0.0002678
0.0002662
0.0002649
0.0002636
0.0002625
0.0002615
0.0002606
0.0002597
0.0002589
0.0002581
0.0002573
0.0002566
0.0002559
0.0002551
0.0002544
0.0002537
0.0002529
0.0002521
0.0002513
0.0002505
0.0002496
0.0002486
0.0002476
0.0002465
0.0002453
0.000244
0.0002426
0.0002411
0.0002394
0.0002375
0.0002354
0.0002331
0.0002306
0.0002278
0.0002247
0.0002213
0.0002176
0.0002135
0.0002091
0.0002043
0.0001992
0.0001937
0.0001878
0.0001816
0.000175
0.0001682
0.0001612
0.0001539
0.0001465
0.0001391
0.0001316
0.0001241
0.0001168
0.0001096
0.0001026
9.587e-05
8.94e-05
8.323e-05
7.738e-05
7.187e-05
6.669e-05
6.186e-05
5.738e-05
5.323e-05
4.94e-05
4.589e-05
4.268e-05
3.975e-05
3.709e-05
3.466e-05
3.246e-05
3.046e-05
2.865e-05
2.701e-05
2.551e-05
2.415e-05
2.29e-05
2.175e-05
2.07e-05
1.973e-05
1.882e-05
1.797e-05
1.718e-05
1.643e-05
1.571e-05
1.503e-05
1.438e-05
1.375e-05
1.314e-05
1.255e-05
1.197e-05
1.141e-05
1.085e-05
1.03e-05
9.764e-06
9.23e-06
8.701e-06
8.175e-06
7.653e-06
7.133e-06
6.615e-06
6.099e-06
5.583e-06
5.068e-06
4.553e-06
4.039e-06
3.525e-06
3.012e-06
2.501e-06
1.991e-06
1.485e-06
9.858e-07
4.954e-07
8.904e-08
0.0003572
0.0003502
0.0003368
0.0003237
0.0003128
0.000304
0.0002969
0.000291
0.0002861
0.000282
0.0002785
0.0002756
0.000273
0.0002709
0.0002689
0.0002673
0.0002658
0.0002644
0.0002632
0.0002621
0.000261
0.00026
0.0002591
0.0002582
0.0002574
0.0002565
0.0002557
0.0002549
0.000254
0.0002532
0.0002523
0.0002514
0.0002505
0.0002496
0.0002486
0.0002475
0.0002464
0.0002452
0.0002439
0.0002425
0.000241
0.0002393
0.0002375
0.0002355
0.0002333
0.000231
0.0002284
0.0002255
0.0002224
0.000219
0.0002153
0.0002112
0.0002069
0.0002022
0.0001971
0.0001917
0.000186
0.00018
0.0001736
0.000167
0.0001602
0.0001532
0.0001461
0.0001389
0.0001316
0.0001245
0.0001174
0.0001105
0.0001037
9.718e-05
9.091e-05
8.492e-05
7.923e-05
7.385e-05
6.878e-05
6.403e-05
5.96e-05
5.549e-05
5.168e-05
4.816e-05
4.493e-05
4.196e-05
3.924e-05
3.676e-05
3.449e-05
3.241e-05
3.052e-05
2.878e-05
2.719e-05
2.574e-05
2.44e-05
2.316e-05
2.201e-05
2.095e-05
1.996e-05
1.902e-05
1.815e-05
1.732e-05
1.654e-05
1.579e-05
1.507e-05
1.438e-05
1.371e-05
1.307e-05
1.244e-05
1.183e-05
1.124e-05
1.065e-05
1.008e-05
9.513e-06
8.955e-06
8.404e-06
7.858e-06
7.317e-06
6.78e-06
6.247e-06
5.716e-06
5.188e-06
4.662e-06
4.137e-06
3.613e-06
3.091e-06
2.571e-06
2.052e-06
1.535e-06
1.021e-06
5.109e-07
8.554e-08
0.0003303
0.0003293
0.0003224
0.0003138
0.000306
0.0002994
0.0002939
0.0002892
0.0002852
0.0002817
0.0002786
0.0002759
0.0002735
0.0002714
0.0002695
0.0002678
0.0002663
0.0002649
0.0002636
0.0002624
0.0002613
0.0002602
0.0002592
0.0002583
0.0002573
0.0002564
0.0002555
0.0002546
0.0002537
0.0002528
0.0002518
0.0002508
0.0002498
0.0002488
0.0002477
0.0002466
0.0002454
0.0002441
0.0002427
0.0002412
0.0002396
0.0002378
0.0002359
0.0002339
0.0002317
0.0002292
0.0002266
0.0002237
0.0002206
0.0002172
0.0002134
0.0002094
0.0002051
0.0002005
0.0001955
0.0001902
0.0001846
0.0001787
0.0001725
0.0001661
0.0001594
0.0001526
0.0001457
0.0001387
0.0001317
0.0001247
0.0001178
0.0001111
0.0001045
9.815e-05
9.204e-05
8.62e-05
8.064e-05
7.536e-05
7.038e-05
6.571e-05
6.134e-05
5.726e-05
5.347e-05
4.996e-05
4.672e-05
4.374e-05
4.099e-05
3.846e-05
3.615e-05
3.402e-05
3.206e-05
3.026e-05
2.86e-05
2.708e-05
2.566e-05
2.435e-05
2.313e-05
2.2e-05
2.093e-05
1.993e-05
1.899e-05
1.81e-05
1.725e-05
1.645e-05
1.568e-05
1.493e-05
1.422e-05
1.353e-05
1.286e-05
1.222e-05
1.158e-05
1.097e-05
1.036e-05
9.768e-06
9.185e-06
8.61e-06
8.044e-06
7.484e-06
6.931e-06
6.382e-06
5.838e-06
5.297e-06
4.759e-06
4.224e-06
3.692e-06
3.16e-06
2.631e-06
2.102e-06
1.574e-06
1.047e-06
5.204e-07
8.153e-08
0.0003129
0.0003145
0.0003111
0.0003055
0.0002998
0.0002947
0.0002904
0.0002866
0.0002833
0.0002804
0.0002778
0.0002754
0.0002733
0.0002713
0.0002695
0.0002679
0.0002664
0.000265
0.0002637
0.0002625
0.0002614
0.0002603
0.0002593
0.0002582
0.0002572
0.0002563
0.0002553
0.0002543
0.0002534
0.0002524
0.0002514
0.0002503
0.0002493
0.0002482
0.000247
0.0002458
0.0002445
0.0002431
0.0002417
0.0002401
0.0002385
0.0002367
0.0002347
0.0002326
0.0002304
0.0002279
0.0002252
0.0002223
0.0002192
0.0002158
0.0002121
0.0002081
0.0002038
0.0001992
0.0001943
0.0001891
0.0001836
0.0001778
0.0001717
0.0001654
0.0001589
0.0001522
0.0001454
0.0001385
0.0001316
0.0001248
0.0001181
0.0001115
0.000105
9.882e-05
9.284e-05
8.711e-05
8.165e-05
7.646e-05
7.156e-05
6.695e-05
6.262e-05
5.858e-05
5.482e-05
5.133e-05
4.809e-05
4.51e-05
4.234e-05
3.98e-05
3.745e-05
3.529e-05
3.329e-05
3.145e-05
2.974e-05
2.817e-05
2.67e-05
2.533e-05
2.406e-05
2.287e-05
2.175e-05
2.07e-05
1.97e-05
1.876e-05
1.786e-05
1.701e-05
1.619e-05
1.541e-05
1.465e-05
1.393e-05
1.323e-05
1.254e-05
1.188e-05
1.124e-05
1.061e-05
9.988e-06
9.384e-06
8.79e-06
8.206e-06
7.63e-06
7.061e-06
6.499e-06
5.943e-06
5.392e-06
4.844e-06
4.3e-06
3.759e-06
3.219e-06
2.681e-06
2.144e-06
1.606e-06
1.068e-06
5.28e-07
7.862e-08
0.000301
0.0003035
0.0003022
0.0002986
0.0002944
0.0002904
0.0002869
0.0002839
0.0002811
0.0002787
0.0002765
0.0002744
0.0002726
0.0002708
0.0002692
0.0002677
0.0002663
0.0002649
0.0002637
0.0002625
0.0002614
0.0002603
0.0002592
0.0002582
0.0002571
0.0002561
0.0002551
0.0002541
0.0002531
0.0002521
0.000251
0.0002499
0.0002488
0.0002476
0.0002464
0.0002452
0.0002438
0.0002424
0.0002409
0.0002393
0.0002376
0.0002358
0.0002338
0.0002317
0.0002294
0.0002269
0.0002242
0.0002213
0.0002182
0.0002148
0.0002111
0.0002072
0.0002029
0.0001984
0.0001935
0.0001884
0.0001829
0.0001772
0.0001712
0.0001649
0.0001585
0.0001519
0.0001451
0.0001383
0.0001315
0.0001248
0.0001182
0.0001117
0.0001053
9.922e-05
9.334e-05
8.769e-05
8.231e-05
7.719e-05
7.235e-05
6.778e-05
6.35e-05
5.95e-05
5.576e-05
5.229e-05
4.907e-05
4.608e-05
4.333e-05
4.077e-05
3.842e-05
3.624e-05
3.422e-05
3.235e-05
3.062e-05
2.901e-05
2.75e-05
2.61e-05
2.479e-05
2.356e-05
2.24e-05
2.13e-05
2.027e-05
1.929e-05
1.835e-05
1.746e-05
1.661e-05
1.579e-05
1.501e-05
1.425e-05
1.352e-05
1.281e-05
1.213e-05
1.146e-05
1.081e-05
1.017e-05
9.548e-06
8.938e-06
8.339e-06
7.75e-06
7.169e-06
6.597e-06
6.03e-06
5.47e-06
4.914e-06
4.362e-06
3.814e-06
3.267e-06
2.722e-06
2.178e-06
1.633e-06
1.086e-06
5.353e-07
7.742e-08
0.0002924
0.0002952
0.0002951
0.0002928
0.0002898
0.0002867
0.0002838
0.0002812
0.0002789
0.0002769
0.000275
0.0002732
0.0002716
0.0002701
0.0002686
0.0002672
0.0002659
0.0002647
0.0002635
0.0002623
0.0002612
0.0002601
0.0002591
0.000258
0.000257
0.000256
0.0002549
0.0002539
0.0002529
0.0002518
0.0002507
0.0002496
0.0002484
0.0002473
0.000246
0.0002447
0.0002433
0.0002419
0.0002404
0.0002388
0.000237
0.0002352
0.0002332
0.0002311
0.0002288
0.0002263
0.0002236
0.0002207
0.0002176
0.0002142
0.0002106
0.0002066
0.0002024
0.0001979
0.0001931
0.000188
0.0001825
0.0001768
0.0001709
0.0001647
0.0001582
0.0001516
0.0001449
0.0001382
0.0001314
0.0001247
0.0001181
0.0001117
0.0001054
9.938e-05
9.356e-05
8.797e-05
8.264e-05
7.756e-05
7.277e-05
6.824e-05
6.399e-05
6.002e-05
5.631e-05
5.286e-05
4.966e-05
4.67e-05
4.395e-05
4.141e-05
3.906e-05
3.688e-05
3.486e-05
3.298e-05
3.123e-05
2.96e-05
2.808e-05
2.666e-05
2.532e-05
2.406e-05
2.288e-05
2.176e-05
2.069e-05
1.968e-05
1.872e-05
1.78e-05
1.693e-05
1.609e-05
1.528e-05
1.45e-05
1.374e-05
1.302e-05
1.231e-05
1.163e-05
1.096e-05
1.031e-05
9.673e-06
9.051e-06
8.441e-06
7.841e-06
7.252e-06
6.671e-06
6.097e-06
5.53e-06
4.968e-06
4.41e-06
3.856e-06
3.305e-06
2.755e-06
2.205e-06
1.655e-06
1.101e-06
5.43e-07
7.821e-08
0.0002859
0.0002886
0.0002892
0.000288
0.0002858
0.0002834
0.000281
0.0002788
0.0002769
0.0002751
0.0002735
0.0002719
0.0002705
0.0002692
0.0002679
0.0002666
0.0002654
0.0002643
0.0002631
0.000262
0.000261
0.0002599
0.0002589
0.0002578
0.0002568
0.0002558
0.0002548
0.0002537
0.0002527
0.0002516
0.0002505
0.0002494
0.0002482
0.000247
0.0002457
0.0002444
0.000243
0.0002416
0.0002401
0.0002384
0.0002367
0.0002348
0.0002329
0.0002307
0.0002284
0.000226
0.0002233
0.0002204
0.0002173
0.000214
0.0002104
0.0002065
0.0002023
0.0001978
0.000193
0.0001878
0.0001824
0.0001767
0.0001708
0.0001645
0.0001581
0.0001515
0.0001448
0.000138
0.0001313
0.0001246
0.000118
0.0001116
0.0001053
9.931e-05
9.351e-05
8.795e-05
8.265e-05
7.76e-05
7.283e-05
6.833e-05
6.411e-05
6.016e-05
5.648e-05
5.306e-05
4.989e-05
4.695e-05
4.423e-05
4.171e-05
3.938e-05
3.721e-05
3.52e-05
3.333e-05
3.159e-05
2.996e-05
2.843e-05
2.7e-05
2.566e-05
2.439e-05
2.319e-05
2.205e-05
2.097e-05
1.995e-05
1.897e-05
1.803e-05
1.714e-05
1.628e-05
1.546e-05
1.466e-05
1.39e-05
1.315e-05
1.244e-05
1.174e-05
1.106e-05
1.04e-05
9.756e-06
9.126e-06
8.508e-06
7.902e-06
7.307e-06
6.72e-06
6.142e-06
5.57e-06
5.004e-06
4.443e-06
3.886e-06
3.332e-06
2.779e-06
2.226e-06
1.672e-06
1.115e-06
5.516e-07
8.118e-08
0.0002809
0.0002834
0.0002844
0.0002838
0.0002823
0.0002805
0.0002785
0.0002767
0.000275
0.0002734
0.000272
0.0002707
0.0002694
0.0002682
0.0002671
0.0002659
0.0002648
0.0002638
0.0002627
0.0002617
0.0002607
0.0002597
0.0002587
0.0002577
0.0002566
0.0002556
0.0002546
0.0002536
0.0002525
0.0002515
0.0002504
0.0002493
0.0002481
0.0002469
0.0002456
0.0002443
0.0002429
0.0002415
0.0002399
0.0002383
0.0002366
0.0002348
0.0002328
0.0002307
0.0002284
0.000226
0.0002234
0.0002205
0.0002175
0.0002141
0.0002105
0.0002066
0.0002025
0.000198
0.0001932
0.000188
0.0001826
0.0001769
0.0001709
0.0001646
0.0001581
0.0001515
0.0001447
0.0001379
0.0001311
0.0001243
0.0001177
0.0001113
0.000105
9.9e-05
9.32e-05
8.764e-05
8.234e-05
7.73e-05
7.253e-05
6.804e-05
6.384e-05
5.992e-05
5.627e-05
5.289e-05
4.975e-05
4.685e-05
4.417e-05
4.169e-05
3.939e-05
3.725e-05
3.527e-05
3.342e-05
3.17e-05
3.008e-05
2.857e-05
2.714e-05
2.58e-05
2.453e-05
2.333e-05
2.219e-05
2.111e-05
2.007e-05
1.909e-05
1.815e-05
1.725e-05
1.638e-05
1.555e-05
1.475e-05
1.397e-05
1.322e-05
1.25e-05
1.18e-05
1.111e-05
1.045e-05
9.797e-06
9.162e-06
8.541e-06
7.932e-06
7.333e-06
6.744e-06
6.163e-06
5.59e-06
5.023e-06
4.461e-06
3.903e-06
3.347e-06
2.794e-06
2.24e-06
1.685e-06
1.126e-06
5.613e-07
8.648e-08
0.0002768
0.0002792
0.0002804
0.0002803
0.0002793
0.0002779
0.0002764
0.0002748
0.0002733
0.0002719
0.0002707
0.0002695
0.0002684
0.0002673
0.0002662
0.0002652
0.0002642
0.0002632
0.0002623
0.0002613
0.0002603
0.0002594
0.0002584
0.0002575
0.0002565
0.0002555
0.0002545
0.0002535
0.0002525
0.0002514
0.0002503
0.0002492
0.0002481
0.0002469
0.0002456
0.0002443
0.000243
0.0002415
0.00024
0.0002384
0.0002368
0.000235
0.000233
0.000231
0.0002288
0.0002264
0.0002238
0.000221
0.0002179
0.0002147
0.0002111
0.0002072
0.0002031
0.0001986
0.0001937
0.0001886
0.0001831
0.0001773
0.0001712
0.0001649
0.0001583
0.0001516
0.0001447
0.0001377
0.0001308
0.000124
0.0001173
0.0001108
0.0001045
9.845e-05
9.261e-05
8.702e-05
8.169e-05
7.663e-05
7.186e-05
6.738e-05
6.319e-05
5.929e-05
5.568e-05
5.234e-05
4.925e-05
4.64e-05
4.377e-05
4.134e-05
3.909e-05
3.7e-05
3.506e-05
3.325e-05
3.156e-05
2.998e-05
2.848e-05
2.708e-05
2.575e-05
2.45e-05
2.331e-05
2.218e-05
2.11e-05
2.007e-05
1.909e-05
1.815e-05
1.725e-05
1.638e-05
1.555e-05
1.475e-05
1.397e-05
1.323e-05
1.25e-05
1.18e-05
1.111e-05
1.044e-05
9.795e-06
9.16e-06
8.538e-06
7.929e-06
7.33e-06
6.742e-06
6.162e-06
5.589e-06
5.023e-06
4.462e-06
3.906e-06
3.352e-06
2.8e-06
2.248e-06
1.694e-06
1.136e-06
5.723e-07
9.421e-08
0.0002735
0.0002757
0.000277
0.0002772
0.0002766
0.0002756
0.0002744
0.0002731
0.0002718
0.0002706
0.0002695
0.0002684
0.0002674
0.0002664
0.0002655
0.0002645
0.0002636
0.0002627
0.0002618
0.0002609
0.00026
0.0002591
0.0002582
0.0002573
0.0002564
0.0002554
0.0002545
0.0002535
0.0002525
0.0002515
0.0002504
0.0002493
0.0002482
0.000247
0.0002458
0.0002445
0.0002432
0.0002418
0.0002403
0.0002388
0.0002371
0.0002354
0.0002335
0.0002315
0.0002294
0.000227
0.0002245
0.0002218
0.0002188
0.0002156
0.000212
0.0002082
0.000204
0.0001995
0.0001947
0.0001895
0.0001839
0.000178
0.0001719
0.0001654
0.0001587
0.0001518
0.0001447
0.0001376
0.0001305
0.0001235
0.0001167
0.0001101
0.0001038
9.762e-05
9.172e-05
8.606e-05
8.068e-05
7.558e-05
7.079e-05
6.63e-05
6.213e-05
5.826e-05
5.469e-05
5.14e-05
4.838e-05
4.56e-05
4.304e-05
4.068e-05
3.85e-05
3.647e-05
3.459e-05
3.283e-05
3.119e-05
2.965e-05
2.82e-05
2.682e-05
2.553e-05
2.43e-05
2.313e-05
2.202e-05
2.095e-05
1.994e-05
1.897e-05
1.804e-05
1.715e-05
1.629e-05
1.547e-05
1.467e-05
1.39e-05
1.316e-05
1.244e-05
1.174e-05
1.106e-05
1.04e-05
9.749e-06
9.117e-06
8.5e-06
7.894e-06
7.299e-06
6.714e-06
6.137e-06
5.568e-06
5.006e-06
4.449e-06
3.895e-06
3.345e-06
2.797e-06
2.249e-06
1.699e-06
1.145e-06
5.846e-07
1.044e-07
0.0002708
0.0002728
0.0002741
0.0002745
0.0002743
0.0002736
0.0002726
0.0002716
0.0002705
0.0002694
0.0002684
0.0002674
0.0002665
0.0002656
0.0002647
0.0002639
0.0002631
0.0002622
0.0002614
0.0002606
0.0002597
0.0002589
0.000258
0.0002572
0.0002563
0.0002554
0.0002544
0.0002535
0.0002525
0.0002516
0.0002505
0.0002495
0.0002484
0.0002473
0.0002461
0.0002449
0.0002436
0.0002422
0.0002408
0.0002393
0.0002377
0.0002361
0.0002343
0.0002323
0.0002303
0.000228
0.0002256
0.000223
0.0002201
0.0002169
0.0002134
0.0002096
0.0002055
0.000201
0.0001961
0.0001908
0.0001852
0.0001791
0.0001728
0.0001662
0.0001592
0.0001521
0.0001448
0.0001374
0.0001301
0.0001229
0.000116
0.0001092
0.0001027
9.647e-05
9.046e-05
8.471e-05
7.925e-05
7.41e-05
6.927e-05
6.478e-05
6.063e-05
5.68e-05
5.329e-05
5.007e-05
4.713e-05
4.444e-05
4.197e-05
3.97e-05
3.761e-05
3.566e-05
3.386e-05
3.217e-05
3.059e-05
2.911e-05
2.771e-05
2.638e-05
2.513e-05
2.393e-05
2.28e-05
2.171e-05
2.068e-05
1.969e-05
1.874e-05
1.783e-05
1.695e-05
1.611e-05
1.53e-05
1.452e-05
1.376e-05
1.303e-05
1.232e-05
1.163e-05
1.095e-05
1.03e-05
9.661e-06
9.037e-06
8.427e-06
7.828e-06
7.239e-06
6.661e-06
6.09e-06
5.527e-06
4.971e-06
4.42e-06
3.872e-06
3.328e-06
2.786e-06
2.244e-06
1.7e-06
1.152e-06
5.984e-07
1.17e-07
0.0002685
0.0002703
0.0002717
0.0002722
0.0002722
0.0002718
0.0002711
0.0002702
0.0002693
0.0002683
0.0002674
0.0002666
0.0002657
0.0002649
0.0002641
0.0002633
0.0002626
0.0002618
0.000261
0.0002602
0.0002595
0.0002587
0.0002579
0.000257
0.0002562
0.0002554
0.0002545
0.0002536
0.0002527
0.0002517
0.0002508
0.0002498
0.0002487
0.0002476
0.0002465
0.0002453
0.0002441
0.0002428
0.0002415
0.0002401
0.0002386
0.000237
0.0002353
0.0002335
0.0002315
0.0002294
0.000227
0.0002245
0.0002217
0.0002187
0.0002153
0.0002116
0.0002074
0.0002029
0.000198
0.0001927
0.0001869
0.0001807
0.0001742
0.0001673
0.0001601
0.0001527
0.000145
0.0001373
0.0001297
0.0001222
0.000115
0.000108
0.0001014
9.492e-05
8.875e-05
8.288e-05
7.732e-05
7.211e-05
6.725e-05
6.277e-05
5.865e-05
5.488e-05
5.145e-05
4.833e-05
4.55e-05
4.292e-05
4.057e-05
3.841e-05
3.643e-05
3.459e-05
3.288e-05
3.128e-05
2.978e-05
2.837e-05
2.703e-05
2.577e-05
2.456e-05
2.342e-05
2.232e-05
2.128e-05
2.028e-05
1.932e-05
1.84e-05
1.752e-05
1.667e-05
1.585e-05
1.505e-05
1.429e-05
1.355e-05
1.283e-05
1.214e-05
1.146e-05
1.08e-05
1.016e-05
9.534e-06
8.921e-06
8.321e-06
7.732e-06
7.153e-06
6.583e-06
6.022e-06
5.467e-06
4.919e-06
4.376e-06
3.837e-06
3.301e-06
2.767e-06
2.233e-06
1.697e-06
1.158e-06
6.135e-07
1.319e-07
0.0002665
0.0002683
0.0002696
0.0002703
0.0002704
0.0002702
0.0002697
0.000269
0.0002682
0.0002674
0.0002666
0.0002658
0.000265
0.0002643
0.0002635
0.0002628
0.0002621
0.0002614
0.0002607
0.00026
0.0002593
0.0002585
0.0002578
0.000257
0.0002562
0.0002554
0.0002546
0.0002537
0.0002529
0.000252
0.0002511
0.0002501
0.0002491
0.0002481
0.0002471
0.000246
0.0002448
0.0002436
0.0002423
0.000241
0.0002396
0.0002381
0.0002365
0.0002348
0.000233
0.000231
0.0002288
0.0002264
0.0002238
0.0002209
0.0002176
0.000214
0.00021
0.0002055
0.0002006
0.0001951
0.0001893
0.0001829
0.0001761
0.0001689
0.0001614
0.0001536
0.0001455
0.0001373
0.0001292
0.0001213
0.0001137
0.0001064
9.95e-05
9.284e-05
8.648e-05
8.045e-05
7.48e-05
6.953e-05
6.466e-05
6.02e-05
5.614e-05
5.247e-05
4.916e-05
4.617e-05
4.348e-05
4.105e-05
3.884e-05
3.683e-05
3.498e-05
3.326e-05
3.167e-05
3.017e-05
2.877e-05
2.744e-05
2.618e-05
2.499e-05
2.385e-05
2.276e-05
2.172e-05
2.072e-05
1.977e-05
1.885e-05
1.796e-05
1.711e-05
1.629e-05
1.55e-05
1.474e-05
1.4e-05
1.328e-05
1.258e-05
1.191e-05
1.125e-05
1.061e-05
9.982e-06
9.37e-06
8.771e-06
8.184e-06
7.608e-06
7.042e-06
6.484e-06
5.933e-06
5.39e-06
4.852e-06
4.319e-06
3.791e-06
3.265e-06
2.74e-06
2.216e-06
1.691e-06
1.163e-06
6.298e-07
1.49e-07
0.0002649
0.0002665
0.0002678
0.0002685
0.0002688
0.0002687
0.0002684
0.0002679
0.0002672
0.0002666
0.0002658
0.0002651
0.0002644
0.0002637
0.0002631
0.0002624
0.0002617
0.0002611
0.0002604
0.0002598
0.0002591
0.0002584
0.0002577
0.000257
0.0002563
0.0002555
0.0002547
0.000254
0.0002532
0.0002523
0.0002515
0.0002506
0.0002497
0.0002487
0.0002477
0.0002467
0.0002456
0.0002445
0.0002433
0.0002421
0.0002408
0.0002394
0.000238
0.0002364
0.0002348
0.0002329
0.0002309
0.0002287
0.0002263
0.0002236
0.0002205
0.000217
0.0002131
0.0002088
0.0002039
0.0001984
0.0001925
0.0001859
0.0001788
0.0001713
0.0001633
0.0001549
0.0001462
0.0001373
0.0001285
0.00012
0.0001119
0.0001042
9.696e-05
9.003e-05
8.345e-05
7.728e-05
7.154e-05
6.625e-05
6.142e-05
5.703e-05
5.308e-05
4.954e-05
4.639e-05
4.358e-05
4.108e-05
3.883e-05
3.68e-05
3.496e-05
3.326e-05
3.17e-05
3.024e-05
2.887e-05
2.757e-05
2.634e-05
2.518e-05
2.406e-05
2.3e-05
2.197e-05
2.099e-05
2.005e-05
1.915e-05
1.828e-05
1.744e-05
1.662e-05
1.584e-05
1.508e-05
1.435e-05
1.364e-05
1.295e-05
1.228e-05
1.163e-05
1.099e-05
1.037e-05
9.766e-06
9.173e-06
8.591e-06
8.021e-06
7.46e-06
6.908e-06
6.364e-06
5.827e-06
5.296e-06
4.771e-06
4.251e-06
3.734e-06
3.22e-06
2.707e-06
2.195e-06
1.683e-06
1.167e-06
6.474e-07
1.681e-07
0.0002635
0.000265
0.0002662
0.000267
0.0002674
0.0002675
0.0002673
0.0002669
0.0002664
0.0002658
0.0002652
0.0002646
0.0002639
0.0002633
0.0002627
0.0002621
0.0002614
0.0002608
0.0002602
0.0002596
0.000259
0.0002583
0.0002577
0.000257
0.0002564
0.0002557
0.000255
0.0002542
0.0002535
0.0002527
0.0002519
0.0002511
0.0002503
0.0002494
0.0002485
0.0002475
0.0002466
0.0002455
0.0002445
0.0002434
0.0002422
0.000241
0.0002397
0.0002383
0.0002368
0.0002352
0.0002334
0.0002314
0.0002292
0.0002267
0.0002239
0.0002207
0.000217
0.0002128
0.0002081
0.0002027
0.0001967
0.0001901
0.0001827
0.0001747
0.0001662
0.0001572
0.0001475
0.0001375
0.0001276
0.0001181
0.0001092
0.0001011
9.341e-05
8.618e-05
7.943e-05
7.317e-05
6.742e-05
6.218e-05
5.744e-05
5.319e-05
4.941e-05
4.608e-05
4.315e-05
4.057e-05
3.83e-05
3.628e-05
3.446e-05
3.282e-05
3.131e-05
2.992e-05
2.861e-05
2.738e-05
2.621e-05
2.509e-05
2.403e-05
2.3e-05
2.202e-05
2.108e-05
2.016e-05
1.929e-05
1.844e-05
1.762e-05
1.683e-05
1.606e-05
1.532e-05
1.461e-05
1.391e-05
1.323e-05
1.257e-05
1.193e-05
1.131e-05
1.07e-05
1.01e-05
9.518e-06
8.946e-06
8.385e-06
7.833e-06
7.29e-06
6.754e-06
6.226e-06
5.705e-06
5.189e-06
4.678e-06
4.171e-06
3.668e-06
3.167e-06
2.668e-06
2.17e-06
1.671e-06
1.17e-06
6.659e-07
1.889e-07
0.0002623
0.0002637
0.0002649
0.0002657
0.0002662
0.0002664
0.0002663
0.000266
0.0002656
0.0002651
0.0002646
0.0002641
0.0002635
0.0002629
0.0002623
0.0002618
0.0002612
0.0002606
0.0002601
0.0002595
0.0002589
0.0002583
0.0002577
0.0002571
0.0002565
0.0002559
0.0002552
0.0002546
0.0002539
0.0002532
0.0002524
0.0002517
0.0002509
0.0002501
0.0002493
0.0002485
0.0002476
0.0002467
0.0002457
0.0002447
0.0002437
0.0002426
0.0002415
0.0002403
0.000239
0.0002376
0.0002361
0.0002344
0.0002325
0.0002304
0.0002279
0.000225
0.0002216
0.0002177
0.0002133
0.0002081
0.0002023
0.0001958
0.0001883
0.00018
0.0001709
0.0001609
0.0001497
0.0001378
0.0001261
0.000115
0.000105
9.628e-05
8.83e-05
8.09e-05
7.41e-05
6.789e-05
6.227e-05
5.72e-05
5.267e-05
4.866e-05
4.514e-05
4.209e-05
3.944e-05
3.716e-05
3.517e-05
3.342e-05
3.186e-05
3.045e-05
2.916e-05
2.795e-05
2.682e-05
2.574e-05
2.471e-05
2.371e-05
2.276e-05
2.184e-05
2.094e-05
2.008e-05
1.925e-05
1.844e-05
1.765e-05
1.689e-05
1.616e-05
1.544e-05
1.475e-05
1.407e-05
1.342e-05
1.278e-05
1.216e-05
1.155e-05
1.095e-05
1.037e-05
9.803e-06
9.244e-06
8.695e-06
8.156e-06
7.625e-06
7.101e-06
6.584e-06
6.074e-06
5.569e-06
5.069e-06
4.574e-06
4.082e-06
3.594e-06
3.108e-06
2.624e-06
2.14e-06
1.657e-06
1.172e-06
6.852e-07
2.111e-07
0.0002613
0.0002626
0.0002638
0.0002646
0.0002651
0.0002654
0.0002654
0.0002652
0.0002649
0.0002645
0.0002641
0.0002636
0.0002631
0.0002626
0.0002621
0.0002616
0.000261
0.0002605
0.00026
0.0002595
0.0002589
0.0002584
0.0002578
0.0002573
0.0002567
0.0002561
0.0002555
0.0002549
0.0002543
0.0002537
0.000253
0.0002524
0.0002517
0.000251
0.0002502
0.0002495
0.0002487
0.0002479
0.0002471
0.0002462
0.0002453
0.0002444
0.0002435
0.0002425
0.0002414
0.0002403
0.0002391
0.0002377
0.0002362
0.0002344
0.0002323
0.0002299
0.0002269
0.0002235
0.0002195
0.0002149
0.0002095
0.0002034
0.0001963
0.000188
0.0001787
0.0001679
0.0001543
0.0001386
0.0001232
0.0001093
9.8e-05
8.885e-05
8.083e-05
7.362e-05
6.714e-05
6.128e-05
5.601e-05
5.129e-05
4.711e-05
4.346e-05
4.03e-05
3.76e-05
3.532e-05
3.339e-05
3.174e-05
3.031e-05
2.904e-05
2.79e-05
2.684e-05
2.584e-05
2.489e-05
2.398e-05
2.309e-05
2.223e-05
2.14e-05
2.058e-05
1.978e-05
1.901e-05
1.826e-05
1.752e-05
1.681e-05
1.611e-05
1.543e-05
1.477e-05
1.413e-05
1.35e-05
1.289e-05
1.229e-05
1.17e-05
1.113e-05
1.057e-05
1.002e-05
9.48e-06
8.948e-06
8.425e-06
7.909e-06
7.4e-06
6.898e-06
6.401e-06
5.91e-06
5.423e-06
4.941e-06
4.462e-06
3.987e-06
3.514e-06
3.044e-06
2.575e-06
2.108e-06
1.641e-06
1.174e-06
7.051e-07
2.344e-07
0.0002604
0.0002617
0.0002628
0.0002637
0.0002642
0.0002645
0.0002646
0.0002645
0.0002643
0.000264
0.0002637
0.0002632
0.0002628
0.0002623
0.0002619
0.0002614
0.0002609
0.0002604
0.0002599
0.0002595
0.000259
0.0002585
0.000258
0.0002575
0.0002569
0.0002564
0.0002559
0.0002553
0.0002548
0.0002542
0.0002536
0.0002531
0.0002524
0.0002518
0.0002512
0.0002505
0.0002499
0.0002492
0.0002485
0.0002478
0.0002471
0.0002463
0.0002456
0.0002448
0.000244
0.0002431
0.0002422
0.0002412
0.00024
0.0002387
0.0002371
0.0002352
0.0002328
0.00023
0.0002267
0.0002228
0.0002184
0.0002134
0.0002075
0.0002002
0.0001914
0.0001799
0.0001626
0.0001394
0.0001179
9.981e-05
8.67e-05
7.75e-05
7.018e-05
6.391e-05
5.828e-05
5.322e-05
4.866e-05
4.452e-05
4.085e-05
3.767e-05
3.496e-05
3.271e-05
3.086e-05
2.934e-05
2.808e-05
2.701e-05
2.606e-05
2.52e-05
2.44e-05
2.362e-05
2.287e-05
2.213e-05
2.14e-05
2.068e-05
1.996e-05
1.926e-05
1.857e-05
1.788e-05
1.721e-05
1.656e-05
1.591e-05
1.528e-05
1.467e-05
1.406e-05
1.347e-05
1.29e-05
1.233e-05
1.177e-05
1.123e-05
1.069e-05
1.017e-05
9.65e-06
9.14e-06
8.637e-06
8.141e-06
7.65e-06
7.165e-06
6.685e-06
6.209e-06
5.737e-06
5.27e-06
4.805e-06
4.344e-06
3.886e-06
3.43e-06
2.976e-06
2.524e-06
2.074e-06
1.624e-06
1.175e-06
7.252e-07
2.584e-07
0.0002597
0.0002609
0.000262
0.0002628
0.0002634
0.0002638
0.0002639
0.0002639
0.0002638
0.0002636
0.0002633
0.0002629
0.0002625
0.0002621
0.0002617
0.0002613
0.0002608
0.0002604
0.0002599
0.0002595
0.000259
0.0002586
0.0002581
0.0002577
0.0002572
0.0002567
0.0002563
0.0002558
0.0002553
0.0002548
0.0002543
0.0002538
0.0002533
0.0002527
0.0002522
0.0002516
0.0002511
0.0002505
0.0002499
0.0002494
0.0002488
0.0002482
0.0002477
0.0002471
0.0002465
0.000246
0.0002454
0.0002448
0.000244
0.0002432
0.0002421
0.0002408
0.0002391
0.000237
0.0002344
0.0002316
0.0002284
0.0002254
0.0002212
0.0002139
0.0002097
0.000205
0.0001758
0.0001347
0.0001173
8.171e-05
6.515e-05
6.312e-05
5.913e-05
5.273e-05
4.758e-05
4.393e-05
4.042e-05
3.71e-05
3.409e-05
3.147e-05
2.929e-05
2.753e-05
2.617e-05
2.511e-05
2.428e-05
2.36e-05
2.3e-05
2.244e-05
2.19e-05
2.135e-05
2.08e-05
2.024e-05
1.966e-05
1.908e-05
1.849e-05
1.79e-05
1.731e-05
1.672e-05
1.614e-05
1.556e-05
1.499e-05
1.443e-05
1.388e-05
1.334e-05
1.28e-05
1.227e-05
1.176e-05
1.124e-05
1.074e-05
1.024e-05
9.754e-06
9.27e-06
8.791e-06
8.317e-06
7.848e-06
7.383e-06
6.922e-06
6.465e-06
6.011e-06
5.56e-06
5.112e-06
4.666e-06
4.223e-06
3.782e-06
3.343e-06
2.906e-06
2.471e-06
2.038e-06
1.606e-06
1.175e-06
7.454e-07
2.827e-07
0.0002591
0.0002602
0.0002613
0.0002621
0.0002627
0.0002631
0.0002633
0.0002634
0.0002633
0.0002632
0.0002629
0.0002627
0.0002623
0.000262
0.0002616
0.0002612
0.0002608
0.0002604
0.00026
0.0002596
0.0002591
0.0002587
0.0002583
0.0002579
0.0002575
0.0002571
0.0002567
0.0002562
0.0002558
0.0002554
0.000255
0.0002545
0.0002541
0.0002536
0.0002532
0.0002527
0.0002523
0.0002518
0.0002514
0.000251
0.0002506
0.0002502
0.0002498
0.0002494
0.0002491
0.0002488
0.0002486
0.0002483
0.000248
0.0002476
0.0002471
0.0002464
0.0002453
0.0002439
0.0002421
0.0002402
0.0002384
0.0002364
0.0002373
0.000227
0.0001709
0.0001646
0.0001507
0.0001272
0.000129
0.0001068
0.0001034
9.807e-05
5.17e-05
3.894e-05
3.79e-05
3.45e-05
3.185e-05
2.948e-05
2.716e-05
2.514e-05
2.348e-05
2.225e-05
2.14e-05
2.084e-05
2.046e-05
2.017e-05
1.993e-05
1.967e-05
1.939e-05
1.908e-05
1.872e-05
1.833e-05
1.791e-05
1.747e-05
1.701e-05
1.653e-05
1.604e-05
1.555e-05
1.505e-05
1.456e-05
1.406e-05
1.357e-05
1.308e-05
1.26e-05
1.212e-05
1.165e-05
1.117e-05
1.071e-05
1.025e-05
9.789e-06
9.336e-06
8.885e-06
8.438e-06
7.994e-06
7.553e-06
7.114e-06
6.678e-06
6.244e-06
5.811e-06
5.381e-06
4.952e-06
4.526e-06
4.1e-06
3.677e-06
3.255e-06
2.835e-06
2.417e-06
2.001e-06
1.587e-06
1.175e-06
7.653e-07
3.068e-07
0.0002586
0.0002597
0.0002607
0.0002615
0.0002621
0.0002626
0.0002628
0.0002629
0.0002629
0.0002628
0.0002627
0.0002624
0.0002621
0.0002618
0.0002615
0.0002611
0.0002608
0.0002604
0.00026
0.0002597
0.0002593
0.0002589
0.0002585
0.0002582
0.0002578
0.0002574
0.0002571
0.0002567
0.0002563
0.000256
0.0002556
0.0002553
0.0002549
0.0002545
0.0002542
0.0002538
0.0002535
0.0002531
0.0002528
0.0002525
0.0002523
0.000252
0.0002518
0.0002517
0.0002516
0.0002516
0.0002516
0.0002517
0.0002518
0.0002519
0.0002519
0.0002517
0.0002511
0.0002502
0.0002488
0.0002473
0.0002457
0.000244
0.0002306
0.0001856
0.0001265
9.889e-05
7.648e-06
9.901e-05
0.0001895
0.0001987
0.0001475
0.0001333
9.221e-05
6.69e-05
3.274e-05
2.569e-05
2.465e-05
2.219e-05
2.05e-05
1.898e-05
1.779e-05
1.705e-05
1.672e-05
1.665e-05
1.672e-05
1.683e-05
1.693e-05
1.697e-05
1.695e-05
1.685e-05
1.669e-05
1.647e-05
1.62e-05
1.588e-05
1.554e-05
1.517e-05
1.479e-05
1.439e-05
1.398e-05
1.356e-05
1.314e-05
1.272e-05
1.23e-05
1.187e-05
1.145e-05
1.102e-05
1.06e-05
1.018e-05
9.759e-06
9.34e-06
8.922e-06
8.506e-06
8.09e-06
7.676e-06
7.262e-06
6.849e-06
6.437e-06
6.025e-06
5.614e-06
5.204e-06
4.795e-06
4.387e-06
3.979e-06
3.573e-06
3.168e-06
2.765e-06
2.364e-06
1.965e-06
1.568e-06
1.175e-06
7.846e-07
3.305e-07
0.0002581
0.0002592
0.0002602
0.000261
0.0002616
0.0002621
0.0002624
0.0002626
0.0002626
0.0002626
0.0002624
0.0002622
0.000262
0.0002617
0.0002614
0.0002611
0.0002608
0.0002604
0.0002601