/*--------------------------------*- C++ -*----------------------------------*\
  =========                 |
  \\      /  F ield         | OpenFOAM: The Open Source CFD Toolbox
   \\    /   O peration     | Website:  https://openfoam.org
    \\  /    A nd           | Version:  7
     \\/     M anipulation  |
\*---------------------------------------------------------------------------*/
FoamFile
{
    version     2.0;
    format      ascii;
    class       surfaceScalarField;
    location    "959.999473410657174";
    object      phi;
}
// * * * * * * * * * * * * * * * * * * * * * * * * * * * * * * * * * * * * * //

dimensions      [0 3 -1 0 0 0 0];

internalField   nonuniform List<scalar> 
8032
(
6.857e-10
2.518e-10
4.804e-10
2.053e-10
3.48e-10
1.324e-10
2.643e-10
8.372e-11
2.101e-10
5.415e-11
1.738e-10
3.636e-11
1.483e-10
2.549e-11
1.296e-10
1.863e-11
1.155e-10
1.412e-11
1.045e-10
1.101e-11
9.575e-11
8.772e-12
8.864e-11
7.106e-12
8.282e-11
5.826e-12
7.8e-11
4.817e-12
7.4e-11
4.002e-12
7.066e-11
3.333e-12
6.789e-11
2.772e-12
6.56e-11
2.295e-12
6.371e-11
1.883e-12
6.219e-11
1.522e-12
6.099e-11
1.2e-12
6.008e-11
9.096e-13
5.944e-11
6.432e-13
5.904e-11
3.951e-13
5.888e-11
1.606e-13
5.895e-11
-6.448e-14
5.923e-11
-2.835e-13
5.973e-11
-4.996e-13
6.045e-11
-7.154e-13
6.138e-11
-9.332e-13
6.254e-11
-1.155e-12
6.392e-11
-1.383e-12
6.554e-11
-1.619e-12
6.74e-11
-1.863e-12
6.952e-11
-2.117e-12
7.19e-11
-2.382e-12
7.456e-11
-2.657e-12
7.75e-11
-2.943e-12
8.074e-11
-3.24e-12
8.428e-11
-3.545e-12
8.814e-11
-3.858e-12
9.232e-11
-4.176e-12
9.681e-11
-4.495e-12
1.016e-10
-4.813e-12
1.067e-10
-5.123e-12
1.122e-10
-5.421e-12
1.179e-10
-5.698e-12
1.238e-10
-5.949e-12
1.3e-10
-6.164e-12
1.363e-10
-6.334e-12
1.428e-10
-6.449e-12
1.493e-10
-6.501e-12
1.557e-10
-6.48e-12
1.621e-10
-6.377e-12
1.683e-10
-6.185e-12
1.742e-10
-5.897e-12
1.797e-10
-5.511e-12
1.847e-10
-5.025e-12
1.892e-10
-4.444e-12
1.93e-10
-3.772e-12
1.96e-10
-3.023e-12
1.982e-10
-2.209e-12
1.995e-10
-1.349e-12
2e-10
-4.643e-13
1.996e-10
4.239e-13
1.983e-10
1.294e-12
1.962e-10
2.126e-12
1.933e-10
2.903e-12
1.896e-10
3.611e-12
1.854e-10
4.241e-12
1.806e-10
4.786e-12
1.754e-10
5.243e-12
1.698e-10
5.612e-12
1.639e-10
5.895e-12
1.578e-10
6.095e-12
1.516e-10
6.216e-12
1.453e-10
6.266e-12
1.39e-10
6.25e-12
1.329e-10
6.177e-12
1.268e-10
6.052e-12
1.209e-10
5.885e-12
1.152e-10
5.683e-12
1.098e-10
5.452e-12
1.046e-10
5.2e-12
9.966e-11
4.933e-12
9.5e-11
4.656e-12
9.063e-11
4.374e-12
8.654e-11
4.092e-12
8.272e-11
3.813e-12
7.918e-11
3.539e-12
7.591e-11
3.275e-12
7.289e-11
3.02e-12
7.011e-11
2.778e-12
6.756e-11
2.547e-12
6.523e-11
2.33e-12
6.311e-11
2.127e-12
6.117e-11
1.936e-12
5.941e-11
1.76e-12
5.781e-11
1.596e-12
5.637e-11
1.444e-12
5.507e-11
1.305e-12
5.389e-11
1.177e-12
5.283e-11
1.06e-12
5.188e-11
9.527e-13
5.102e-11
8.551e-13
5.025e-11
7.664e-13
4.957e-11
6.858e-13
4.896e-11
6.127e-13
4.841e-11
5.467e-13
4.792e-11
4.871e-13
4.749e-11
4.334e-13
4.71e-11
3.852e-13
4.676e-11
3.421e-13
4.646e-11
3.037e-13
4.619e-11
2.696e-13
4.595e-11
2.398e-13
4.573e-11
2.139e-13
4.554e-11
1.919e-13
4.537e-11
1.738e-13
4.521e-11
1.598e-13
4.506e-11
1.502e-13
4.491e-11
1.458e-13
4.477e-11
1.477e-13
4.461e-11
1.584e-13
4.442e-11
1.826e-13
4.42e-11
2.278e-13
4.389e-11
3.026e-13
3.933e-13
9.523e-10
2.37e-10
8.501e-10
3.075e-10
7.275e-10
2.55e-10
6.183e-10
1.929e-10
5.294e-10
1.43e-10
4.593e-10
1.065e-10
4.043e-10
8.05e-11
3.609e-10
6.209e-11
3.261e-10
4.884e-11
2.98e-10
3.91e-11
2.751e-10
3.174e-11
2.561e-10
2.607e-11
2.403e-10
2.159e-11
2.272e-10
1.799e-11
2.161e-10
1.504e-11
2.069e-10
1.259e-11
1.991e-10
1.051e-11
1.927e-10
8.733e-12
1.874e-10
7.186e-12
1.831e-10
5.822e-12
1.797e-10
4.602e-12
1.771e-10
3.497e-12
1.753e-10
2.48e-12
1.741e-10
1.531e-12
1.737e-10
6.328e-13
1.738e-10
-2.294e-13
1.746e-10
-1.069e-12
1.76e-10
-1.896e-12
1.78e-10
-2.721e-12
1.806e-10
-3.552e-12
1.839e-10
-4.398e-12
1.878e-10
-5.264e-12
1.923e-10
-6.156e-12
1.975e-10
-7.079e-12
2.034e-10
-8.037e-12
2.101e-10
-9.03e-12
2.175e-10
-1.006e-11
2.257e-10
-1.113e-11
2.347e-10
-1.223e-11
2.445e-10
-1.336e-11
2.551e-10
-1.452e-11
2.666e-10
-1.568e-11
2.79e-10
-1.685e-11
2.922e-10
-1.801e-11
3.062e-10
-1.913e-11
3.21e-10
-2.02e-11
3.365e-10
-2.12e-11
3.526e-10
-2.209e-11
3.693e-10
-2.284e-11
3.864e-10
-2.342e-11
4.037e-10
-2.38e-11
4.212e-10
-2.395e-11
4.385e-10
-2.383e-11
4.556e-10
-2.341e-11
4.721e-10
-2.267e-11
4.877e-10
-2.158e-11
5.024e-10
-2.014e-11
5.157e-10
-1.835e-11
5.275e-10
-1.622e-11
5.375e-10
-1.376e-11
5.455e-10
-1.103e-11
5.513e-10
-8.076e-12
5.55e-10
-4.958e-12
5.562e-10
-1.749e-12
5.552e-10
1.473e-12
5.518e-10
4.633e-12
5.463e-10
7.663e-12
5.387e-10
1.05e-11
5.292e-10
1.31e-11
5.18e-10
1.542e-11
5.054e-10
1.744e-11
4.915e-10
1.915e-11
4.766e-10
2.054e-11
4.609e-10
2.161e-11
4.446e-10
2.239e-11
4.279e-10
2.289e-11
4.11e-10
2.312e-11
3.942e-10
2.31e-11
3.775e-10
2.288e-11
3.611e-10
2.246e-11
3.451e-10
2.189e-11
3.296e-10
2.118e-11
3.147e-10
2.036e-11
3.004e-10
1.946e-11
2.868e-10
1.85e-11
2.74e-10
1.75e-11
2.619e-10
1.647e-11
2.505e-10
1.544e-11
2.399e-10
1.441e-11
2.301e-10
1.341e-11
2.209e-10
1.243e-11
2.124e-10
1.149e-11
2.046e-10
1.058e-11
1.975e-10
9.726e-12
1.909e-10
8.914e-12
1.849e-10
8.15e-12
1.794e-10
7.435e-12
1.743e-10
6.769e-12
1.698e-10
6.15e-12
1.657e-10
5.577e-12
1.619e-10
5.048e-12
1.585e-10
4.562e-12
1.555e-10
4.116e-12
1.527e-10
3.707e-12
1.502e-10
3.334e-12
1.48e-10
2.994e-12
1.46e-10
2.685e-12
1.442e-10
2.404e-12
1.426e-10
2.149e-12
1.412e-10
1.919e-12
1.399e-10
1.712e-12
1.388e-10
1.526e-12
1.378e-10
1.358e-12
1.368e-10
1.209e-12
1.36e-10
1.077e-12
1.353e-10
9.603e-13
1.347e-10
8.591e-13
1.341e-10
7.727e-13
1.336e-10
7.01e-13
1.331e-10
6.445e-13
1.326e-10
6.039e-13
1.322e-10
5.81e-13
1.318e-10
5.783e-13
1.313e-10
5.998e-13
1.309e-10
6.515e-13
1.303e-10
7.403e-13
1.298e-10
8.649e-13
9.824e-13
9.779e-10
1.966e-10
9.637e-10
3.217e-10
9.013e-10
3.174e-10
8.213e-10
2.73e-10
7.41e-10
2.232e-10
6.681e-10
1.793e-10
6.049e-10
1.438e-10
5.51e-10
1.159e-10
5.057e-10
9.422e-11
4.675e-10
7.728e-11
4.353e-10
6.393e-11
4.081e-10
5.325e-11
3.851e-10
4.459e-11
3.656e-10
3.748e-11
3.491e-10
3.155e-11
3.352e-10
2.655e-11
3.234e-10
2.227e-11
3.136e-10
1.857e-11
3.055e-10
1.532e-11
2.988e-10
1.244e-11
2.936e-10
9.855e-12
2.896e-10
7.498e-12
2.867e-10
5.321e-12
2.85e-10
3.285e-12
2.843e-10
1.352e-12
2.845e-10
-5.054e-13
2.858e-10
-2.315e-12
2.88e-10
-4.1e-12
2.911e-10
-5.879e-12
2.953e-10
-7.671e-12
3.004e-10
-9.492e-12
3.064e-10
-1.135e-11
3.136e-10
-1.327e-11
3.217e-10
-1.525e-11
3.31e-10
-1.73e-11
3.414e-10
-1.942e-11
3.529e-10
-2.162e-11
3.657e-10
-2.389e-11
3.797e-10
-2.622e-11
3.949e-10
-2.862e-11
4.115e-10
-3.105e-11
4.293e-10
-3.351e-11
4.484e-10
-3.597e-11
4.688e-10
-3.839e-11
4.904e-10
-4.074e-11
5.132e-10
-4.297e-11
5.37e-10
-4.503e-11
5.618e-10
-4.686e-11
5.873e-10
-4.84e-11
6.135e-10
-4.958e-11
6.4e-10
-5.033e-11
6.667e-10
-5.059e-11
6.931e-10
-5.029e-11
7.191e-10
-4.936e-11
7.442e-10
-4.775e-11
7.68e-10
-4.543e-11
7.902e-10
-4.238e-11
8.105e-10
-3.859e-11
8.283e-10
-3.409e-11
8.435e-10
-2.894e-11
8.557e-10
-2.321e-11
8.646e-10
-1.701e-11
8.702e-10
-1.048e-11
8.722e-10
-3.76e-12
8.706e-10
2.99e-12
8.657e-10
9.616e-12
8.574e-10
1.597e-11
8.459e-10
2.194e-11
8.316e-10
2.741e-11
8.147e-10
3.231e-11
7.956e-10
3.659e-11
7.745e-10
4.022e-11
7.518e-10
4.32e-11
7.279e-10
4.552e-11
7.031e-10
4.722e-11
6.776e-10
4.832e-11
6.519e-10
4.887e-11
6.261e-10
4.89e-11
6.005e-10
4.849e-11
5.753e-10
4.767e-11
5.507e-10
4.651e-11
5.268e-10
4.506e-11
5.038e-10
4.338e-11
4.817e-10
4.152e-11
4.607e-10
3.951e-11
4.408e-10
3.742e-11
4.22e-10
3.527e-11
4.043e-10
3.311e-11
3.878e-10
3.095e-11
3.723e-10
2.883e-11
3.58e-10
2.676e-11
3.447e-10
2.476e-11
3.325e-10
2.285e-11
3.212e-10
2.102e-11
3.108e-10
1.929e-11
3.013e-10
1.766e-11
2.926e-10
1.613e-11
2.846e-10
1.471e-11
2.774e-10
1.338e-11
2.708e-10
1.215e-11
2.649e-10
1.101e-11
2.595e-10
9.965e-12
2.546e-10
9.002e-12
2.502e-10
8.12e-12
2.462e-10
7.313e-12
2.426e-10
6.576e-12
2.394e-10
5.906e-12
2.365e-10
5.296e-12
2.339e-10
4.743e-12
2.316e-10
4.242e-12
2.295e-10
3.79e-12
2.276e-10
3.383e-12
2.26e-10
3.017e-12
2.245e-10
2.691e-12
2.232e-10
2.4e-12
2.22e-10
2.144e-12
2.209e-10
1.921e-12
2.2e-10
1.729e-12
2.191e-10
1.569e-12
2.183e-10
1.44e-12
2.176e-10
1.343e-12
2.169e-10
1.281e-12
2.162e-10
1.256e-12
2.155e-10
1.272e-12
2.148e-10
1.332e-12
2.141e-10
1.435e-12
2.134e-10
1.57e-12
1.678e-12
9.752e-10
1.589e-10
9.93e-10
3.038e-10
9.728e-10
3.376e-10
9.27e-10
3.188e-10
8.692e-10
2.81e-10
8.087e-10
2.398e-10
7.507e-10
2.018e-10
6.976e-10
1.69e-10
6.503e-10
1.415e-10
6.087e-10
1.189e-10
5.725e-10
1.001e-10
5.411e-10
8.465e-11
5.14e-10
7.173e-11
4.906e-10
6.085e-11
4.705e-10
5.162e-11
4.534e-10
4.371e-11
4.388e-10
3.685e-11
4.265e-10
3.085e-11
4.163e-10
2.554e-11
4.079e-10
2.079e-11
4.013e-10
1.649e-11
3.963e-10
1.255e-11
3.927e-10
8.899e-12
3.905e-10
5.467e-12
3.896e-10
2.201e-12
3.901e-10
-9.47e-13
3.918e-10
-4.019e-12
3.947e-10
-7.051e-12
3.989e-10
-1.008e-11
4.044e-10
-1.312e-11
4.111e-10
-1.622e-11
4.191e-10
-1.938e-11
4.285e-10
-2.263e-11
4.392e-10
-2.598e-11
4.514e-10
-2.944e-11
4.65e-10
-3.303e-11
4.801e-10
-3.673e-11
4.968e-10
-4.055e-11
5.15e-10
-4.448e-11
5.349e-10
-4.85e-11
5.564e-10
-5.258e-11
5.796e-10
-5.669e-11
6.044e-10
-6.078e-11
6.308e-10
-6.481e-11
6.588e-10
-6.871e-11
6.882e-10
-7.24e-11
7.19e-10
-7.579e-11
7.509e-10
-7.88e-11
7.838e-10
-8.132e-11
8.175e-10
-8.323e-11
8.516e-10
-8.443e-11
8.858e-10
-8.48e-11
9.197e-10
-8.423e-11
9.53e-10
-8.263e-11
9.852e-10
-7.99e-11
1.016e-09
-7.599e-11
1.044e-09
-7.085e-11
1.07e-09
-6.451e-11
1.093e-09
-5.699e-11
1.112e-09
-4.838e-11
1.128e-09
-3.882e-11
1.14e-09
-2.849e-11
1.147e-09
-1.76e-11
1.149e-09
-6.398e-12
1.147e-09
4.857e-12
1.141e-09
1.591e-11
1.131e-09
2.652e-11
1.116e-09
3.649e-11
1.098e-09
4.564e-11
1.076e-09
5.385e-11
1.052e-09
6.104e-11
1.025e-09
6.716e-11
9.959e-10
7.219e-11
9.653e-10
7.614e-11
9.335e-10
7.905e-11
9.008e-10
8.096e-11
8.677e-10
8.196e-11
8.345e-10
8.21e-11
8.015e-10
8.148e-11
7.69e-10
8.019e-11
7.372e-10
7.832e-11
7.063e-10
7.596e-11
6.765e-10
7.32e-11
6.479e-10
7.013e-11
6.206e-10
6.682e-11
5.946e-10
6.335e-11
5.701e-10
5.978e-11
5.471e-10
5.617e-11
5.255e-10
5.257e-11
5.053e-10
4.902e-11
4.865e-10
4.556e-11
4.69e-10
4.22e-11
4.529e-10
3.898e-11
4.38e-10
3.591e-11
4.243e-10
3.299e-11
4.117e-10
3.024e-11
4.002e-10
2.765e-11
3.897e-10
2.523e-11
3.801e-10
2.298e-11
3.714e-10
2.089e-11
3.634e-10
1.896e-11
3.562e-10
1.718e-11
3.497e-10
1.553e-11
3.438e-10
1.403e-11
3.384e-10
1.265e-11
3.336e-10
1.139e-11
3.293e-10
1.024e-11
3.254e-10
9.194e-12
3.219e-10
8.245e-12
3.187e-10
7.384e-12
3.159e-10
6.606e-12
3.134e-10
5.904e-12
3.111e-10
5.274e-12
3.091e-10
4.709e-12
3.073e-10
4.206e-12
3.057e-10
3.762e-12
3.042e-10
3.372e-12
3.029e-10
3.036e-12
3.017e-10
2.752e-12
3.007e-10
2.52e-12
2.997e-10
2.339e-12
2.987e-10
2.212e-12
2.979e-10
2.14e-12
2.97e-10
2.124e-12
2.962e-10
2.165e-12
2.954e-10
2.255e-12
2.945e-10
2.373e-12
2.463e-12
9.668e-10
1.296e-10
9.945e-10
2.762e-10
9.98e-10
3.341e-10
9.782e-10
3.386e-10
9.428e-10
3.165e-10
8.99e-10
2.836e-10
8.523e-10
2.484e-10
8.063e-10
2.15e-10
7.627e-10
1.851e-10
7.227e-10
1.589e-10
6.866e-10
1.363e-10
6.544e-10
1.169e-10
6.259e-10
1.002e-10
6.01e-10
8.584e-11
5.792e-10
7.34e-11
5.603e-10
6.256e-11
5.442e-10
5.303e-11
5.304e-10
4.458e-11
5.189e-10
3.703e-11
5.095e-10
3.022e-11
5.02e-10
2.4e-11
4.963e-10
1.826e-11
4.923e-10
1.291e-11
4.899e-10
7.865e-12
4.89e-10
3.042e-12
4.897e-10
-1.621e-12
4.919e-10
-6.182e-12
4.955e-10
-1.069e-11
5.006e-10
-1.519e-11
5.072e-10
-1.973e-11
5.154e-10
-2.434e-11
5.25e-10
-2.905e-11
5.363e-10
-3.388e-11
5.492e-10
-3.886e-11
5.637e-10
-4.401e-11
5.8e-10
-4.932e-11
5.981e-10
-5.481e-11
6.18e-10
-6.046e-11
6.398e-10
-6.626e-11
6.635e-10
-7.219e-11
6.891e-10
-7.819e-11
7.166e-10
-8.424e-11
7.461e-10
-9.025e-11
7.775e-10
-9.616e-11
8.106e-10
-1.019e-10
8.455e-10
-1.072e-10
8.819e-10
-1.122e-10
9.197e-10
-1.166e-10
9.586e-10
-1.202e-10
9.983e-10
-1.23e-10
1.039e-09
-1.247e-10
1.079e-09
-1.252e-10
1.119e-09
-1.243e-10
1.158e-09
-1.219e-10
1.196e-09
-1.178e-10
1.232e-09
-1.12e-10
1.266e-09
-1.044e-10
1.296e-09
-9.507e-11
1.323e-09
-8.4e-11
1.346e-09
-7.133e-11
1.365e-09
-5.727e-11
1.378e-09
-4.207e-11
1.387e-09
-2.605e-11
1.39e-09
-9.564e-12
1.388e-09
6.996e-12
1.38e-09
2.326e-11
1.368e-09
3.888e-11
1.351e-09
5.356e-11
1.33e-09
6.704e-11
1.304e-09
7.915e-11
1.275e-09
8.977e-11
1.244e-09
9.883e-11
1.21e-09
1.063e-10
1.174e-09
1.122e-10
1.136e-09
1.165e-10
1.098e-09
1.195e-10
1.059e-09
1.21e-10
1.019e-09
1.213e-10
9.804e-10
1.205e-10
9.42e-10
1.187e-10
9.043e-10
1.16e-10
8.676e-10
1.126e-10
8.322e-10
1.086e-10
7.982e-10
1.041e-10
7.658e-10
9.93e-11
7.349e-10
9.423e-11
7.057e-10
8.9e-11
6.781e-10
8.371e-11
6.523e-10
7.842e-11
6.281e-10
7.319e-11
6.056e-10
6.809e-11
5.846e-10
6.313e-11
5.653e-10
5.837e-11
5.473e-10
5.382e-11
5.308e-10
4.949e-11
5.157e-10
4.541e-11
5.017e-10
4.157e-11
4.89e-10
3.797e-11
4.774e-10
3.462e-11
4.668e-10
3.151e-11
4.571e-10
2.862e-11
4.483e-10
2.595e-11
4.404e-10
2.35e-11
4.331e-10
2.124e-11
4.266e-10
1.917e-11
4.207e-10
1.728e-11
4.154e-10
1.555e-11
4.106e-10
1.398e-11
4.063e-10
1.255e-11
4.024e-10
1.125e-11
3.99e-10
1.008e-11
3.959e-10
9.02e-12
3.931e-10
8.065e-12
3.906e-10
7.21e-12
3.883e-10
6.446e-12
3.863e-10
5.769e-12
3.845e-10
5.174e-12
3.829e-10
4.658e-12
3.814e-10
4.217e-12
3.801e-10
3.851e-12
3.789e-10
3.558e-12
3.777e-10
3.338e-12
3.767e-10
3.192e-12
3.757e-10
3.119e-12
3.748e-10
3.114e-12
3.738e-10
3.166e-12
3.73e-10
3.251e-12
3.318e-12
9.592e-10
1.079e-10
9.876e-10
2.478e-10
1.003e-09
3.189e-10
1e-09
3.411e-10
9.829e-10
3.34e-10
9.549e-10
3.115e-10
9.21e-10
2.824e-10
8.846e-10
2.515e-10
8.479e-10
2.217e-10
8.126e-10
1.942e-10
7.794e-10
1.694e-10
7.49e-10
1.473e-10
7.214e-10
1.278e-10
6.967e-10
1.105e-10
6.749e-10
9.528e-11
6.557e-10
8.174e-11
6.39e-10
6.966e-11
6.248e-10
5.883e-11
6.128e-10
4.902e-11
6.029e-10
4.009e-11
5.951e-10
3.187e-11
5.891e-10
2.423e-11
5.849e-10
1.707e-11
5.825e-10
1.026e-11
5.818e-10
3.736e-12
5.828e-10
-2.596e-12
5.854e-10
-8.805e-12
5.897e-10
-1.496e-11
5.956e-10
-2.111e-11
6.032e-10
-2.731e-11
6.125e-10
-3.362e-11
6.235e-10
-4.006e-11
6.363e-10
-4.667e-11
6.509e-10
-5.348e-11
6.674e-10
-6.051e-11
6.858e-10
-6.776e-11
7.063e-10
-7.524e-11
7.288e-10
-8.294e-11
7.533e-10
-9.084e-11
7.8e-10
-9.889e-11
8.089e-10
-1.07e-10
8.399e-10
-1.152e-10
8.73e-10
-1.234e-10
9.083e-10
-1.314e-10
9.455e-10
-1.391e-10
9.846e-10
-1.464e-10
1.025e-09
-1.53e-10
1.068e-09
-1.589e-10
1.111e-09
-1.638e-10
1.156e-09
-1.675e-10
1.201e-09
-1.698e-10
1.246e-09
-1.704e-10
1.291e-09
-1.692e-10
1.335e-09
-1.658e-10
1.378e-09
-1.603e-10
1.418e-09
-1.524e-10
1.456e-09
-1.421e-10
1.49e-09
-1.294e-10
1.521e-09
-1.144e-10
1.546e-09
-9.715e-11
1.567e-09
-7.803e-11
1.582e-09
-5.736e-11
1.592e-09
-3.558e-11
1.596e-09
-1.316e-11
1.593e-09
9.363e-12
1.585e-09
3.148e-11
1.571e-09
5.272e-11
1.552e-09
7.267e-11
1.528e-09
9.1e-11
1.5e-09
1.075e-10
1.468e-09
1.219e-10
1.432e-09
1.343e-10
1.394e-09
1.445e-10
1.354e-09
1.525e-10
1.312e-09
1.585e-10
1.269e-09
1.626e-10
1.225e-09
1.648e-10
1.181e-09
1.653e-10
1.137e-09
1.642e-10
1.094e-09
1.619e-10
1.052e-09
1.583e-10
1.01e-09
1.538e-10
9.706e-10
1.484e-10
9.323e-10
1.424e-10
8.957e-10
1.359e-10
8.609e-10
1.29e-10
8.279e-10
1.22e-10
7.968e-10
1.148e-10
7.676e-10
1.076e-10
7.403e-10
1.006e-10
7.147e-10
9.361e-11
6.91e-10
8.687e-11
6.69e-10
8.039e-11
6.486e-10
7.418e-11
6.298e-10
6.828e-11
6.125e-10
6.27e-11
5.966e-10
5.745e-11
5.821e-10
5.253e-11
5.688e-10
4.793e-11
5.566e-10
4.366e-11
5.456e-10
3.969e-11
5.355e-10
3.603e-11
5.263e-10
3.265e-11
5.18e-10
2.954e-11
5.105e-10
2.669e-11
5.037e-10
2.408e-11
4.976e-10
2.17e-11
4.92e-10
1.952e-11
4.87e-10
1.754e-11
4.825e-10
1.574e-11
4.785e-10
1.412e-11
4.749e-10
1.264e-11
4.716e-10
1.132e-11
4.687e-10
1.013e-11
4.661e-10
9.06e-12
4.638e-10
8.113e-12
4.617e-10
7.278e-12
4.598e-10
6.549e-12
4.581e-10
5.922e-12
4.565e-10
5.393e-12
4.551e-10
4.962e-12
4.538e-10
4.624e-12
4.526e-10
4.379e-12
4.515e-10
4.223e-12
4.505e-10
4.15e-12
4.495e-10
4.145e-12
4.486e-10
4.185e-12
4.226e-12
9.536e-10
9.181e-11
9.796e-10
2.218e-10
9.997e-10
2.987e-10
1.008e-09
3.331e-10
1.003e-09
3.385e-10
9.883e-10
3.264e-10
9.663e-10
3.044e-10
9.398e-10
2.78e-10
9.111e-10
2.504e-10
8.82e-10
2.233e-10
8.536e-10
1.978e-10
8.266e-10
1.743e-10
8.015e-10
1.529e-10
7.786e-10
1.335e-10
7.579e-10
1.16e-10
7.395e-10
1.001e-10
7.234e-10
8.58e-11
7.094e-10
7.276e-11
6.976e-10
6.083e-11
6.879e-10
4.984e-11
6.801e-10
3.964e-11
6.743e-10
3.009e-11
6.703e-10
2.107e-11
6.681e-10
1.246e-11
6.676e-10
4.157e-12
6.69e-10
-3.929e-12
6.72e-10
-1.188e-11
6.769e-10
-1.978e-11
6.835e-10
-2.769e-11
6.918e-10
-3.568e-11
7.02e-10
-4.381e-11
7.141e-10
-5.211e-11
7.28e-10
-6.063e-11
7.44e-10
-6.941e-11
7.619e-10
-7.847e-11
7.82e-10
-8.781e-11
8.042e-10
-9.743e-11
8.286e-10
-1.073e-10
8.552e-10
-1.175e-10
8.841e-10
-1.278e-10
9.154e-10
-1.383e-10
9.489e-10
-1.488e-10
9.848e-10
-1.593e-10
1.023e-09
-1.695e-10
1.063e-09
-1.794e-10
1.105e-09
-1.887e-10
1.15e-09
-1.972e-10
1.195e-09
-2.047e-10
1.243e-09
-2.11e-10
1.291e-09
-2.157e-10
1.34e-09
-2.186e-10
1.388e-09
-2.194e-10
1.437e-09
-2.177e-10
1.485e-09
-2.135e-10
1.531e-09
-2.064e-10
1.575e-09
-1.963e-10
1.616e-09
-1.831e-10
1.653e-09
-1.667e-10
1.686e-09
-1.474e-10
1.714e-09
-1.253e-10
1.737e-09
-1.007e-10
1.753e-09
-7.404e-11
1.764e-09
-4.597e-11
1.768e-09
-1.708e-11
1.765e-09
1.194e-11
1.756e-09
4.042e-11
1.741e-09
6.776e-11
1.72e-09
9.342e-11
1.694e-09
1.17e-10
1.664e-09
1.382e-10
1.629e-09
1.567e-10
1.591e-09
1.726e-10
1.549e-09
1.857e-10
1.506e-09
1.961e-10
1.46e-09
2.039e-10
1.414e-09
2.092e-10
1.366e-09
2.121e-10
1.319e-09
2.128e-10
1.271e-09
2.116e-10
1.225e-09
2.086e-10
1.179e-09
2.041e-10
1.134e-09
1.983e-10
1.091e-09
1.915e-10
1.05e-09
1.839e-10
1.01e-09
1.756e-10
9.723e-10
1.668e-10
9.366e-10
1.578e-10
9.028e-10
1.486e-10
8.71e-10
1.394e-10
8.413e-10
1.303e-10
8.135e-10
1.214e-10
7.876e-10
1.127e-10
7.636e-10
1.044e-10
7.414e-10
9.641e-11
7.208e-10
8.88e-11
7.019e-10
8.161e-11
6.846e-10
7.483e-11
6.686e-10
6.847e-11
6.54e-10
6.253e-11
6.407e-10
5.7e-11
6.285e-10
5.187e-11
6.174e-10
4.712e-11
6.073e-10
4.274e-11
5.982e-10
3.87e-11
5.899e-10
3.5e-11
5.823e-10
3.16e-11
5.755e-10
2.85e-11
5.694e-10
2.566e-11
5.639e-10
2.308e-11
5.589e-10
2.073e-11
5.544e-10
1.86e-11
5.504e-10
1.668e-11
5.467e-10
1.494e-11
5.435e-10
1.338e-11
5.406e-10
1.198e-11
5.379e-10
1.073e-11
5.356e-10
9.626e-12
5.335e-10
8.658e-12
5.316e-10
7.819e-12
5.299e-10
7.105e-12
5.283e-10
6.51e-12
5.269e-10
6.032e-12
5.256e-10
5.667e-12
5.244e-10
5.408e-12
5.233e-10
5.248e-12
5.223e-10
5.172e-12
5.213e-10
5.157e-12
5.169e-12
9.498e-10
7.951e-11
9.725e-10
1.991e-10
9.941e-10
2.772e-10
1.008e-09
3.192e-10
1.012e-09
3.343e-10
1.007e-09
3.312e-10
9.952e-10
3.165e-10
9.779e-10
2.953e-10
9.573e-10
2.71e-10
9.349e-10
2.457e-10
9.12e-10
2.207e-10
8.894e-10
1.968e-10
8.679e-10
1.744e-10
8.477e-10
1.537e-10
8.291e-10
1.345e-10
8.124e-10
1.169e-10
7.975e-10
1.007e-10
7.845e-10
8.571e-11
7.735e-10
7.187e-11
7.643e-10
5.898e-11
7.571e-10
4.691e-11
7.516e-10
3.552e-11
7.48e-10
2.469e-11
7.462e-10
1.428e-11
7.462e-10
4.201e-12
7.479e-10
-5.659e-12
7.514e-10
-1.539e-11
7.567e-10
-2.508e-11
7.638e-10
-3.481e-11
7.728e-10
-4.465e-11
7.836e-10
-5.466e-11
7.964e-10
-6.489e-11
8.112e-10
-7.541e-11
8.28e-10
-8.624e-11
8.469e-10
-9.74e-11
8.681e-10
-1.089e-10
8.914e-10
-1.208e-10
9.171e-10
-1.33e-10
9.451e-10
-1.455e-10
9.755e-10
-1.582e-10
1.008e-09
-1.711e-10
1.044e-09
-1.84e-10
1.081e-09
-1.969e-10
1.121e-09
-2.095e-10
1.163e-09
-2.216e-10
1.208e-09
-2.331e-10
1.254e-09
-2.436e-10
1.302e-09
-2.528e-10
1.352e-09
-2.605e-10
1.403e-09
-2.664e-10
1.454e-09
-2.699e-10
1.505e-09
-2.709e-10
1.557e-09
-2.69e-10
1.607e-09
-2.638e-10
1.656e-09
-2.551e-10
1.702e-09
-2.427e-10
1.745e-09
-2.264e-10
1.785e-09
-2.063e-10
1.82e-09
-1.825e-10
1.85e-09
-1.551e-10
1.874e-09
-1.247e-10
1.892e-09
-9.178e-11
1.903e-09
-5.702e-11
1.907e-09
-2.123e-11
1.904e-09
1.472e-11
1.895e-09
4.997e-11
1.879e-09
8.376e-11
1.857e-09
1.155e-10
1.829e-09
1.445e-10
1.797e-09
1.706e-10
1.76e-09
1.935e-10
1.719e-09
2.131e-10
1.676e-09
2.292e-10
1.63e-09
2.421e-10
1.582e-09
2.517e-10
1.533e-09
2.582e-10
1.483e-09
2.618e-10
1.433e-09
2.628e-10
1.384e-09
2.613e-10
1.334e-09
2.577e-10
1.286e-09
2.523e-10
1.239e-09
2.452e-10
1.194e-09
2.369e-10
1.15e-09
2.275e-10
1.109e-09
2.173e-10
1.069e-09
2.066e-10
1.031e-09
1.955e-10
9.956e-10
1.842e-10
9.622e-10
1.729e-10
9.308e-10
1.617e-10
9.015e-10
1.507e-10
8.742e-10
1.4e-10
8.488e-10
1.298e-10
8.253e-10
1.199e-10
8.036e-10
1.105e-10
7.836e-10
1.016e-10
7.652e-10
9.325e-11
7.483e-10
8.538e-11
7.328e-10
7.803e-11
7.186e-10
7.118e-11
7.057e-10
6.482e-11
6.939e-10
5.892e-11
6.831e-10
5.348e-11
6.734e-10
4.847e-11
6.645e-10
4.386e-11
6.564e-10
3.964e-11
6.492e-10
3.577e-11
6.426e-10
3.224e-11
6.367e-10
2.902e-11
6.313e-10
2.609e-11
6.265e-10
2.343e-11
6.221e-10
2.102e-11
6.182e-10
1.884e-11
6.147e-10
1.688e-11
6.116e-10
1.512e-11
6.088e-10
1.355e-11
6.062e-10
1.216e-11
6.04e-10
1.093e-11
6.019e-10
9.858e-12
6.001e-10
8.938e-12
5.985e-10
8.163e-12
5.97e-10
7.527e-12
5.956e-10
7.023e-12
5.944e-10
6.645e-12
5.932e-10
6.384e-12
5.922e-10
6.225e-12
5.912e-10
6.15e-12
6.13e-12
9.472e-10
6.982e-11
9.669e-10
1.794e-10
9.881e-10
2.56e-10
1.005e-09
3.024e-10
1.015e-09
3.244e-10
1.017e-09
3.287e-10
1.013e-09
3.207e-10
1.004e-09
3.048e-10
9.904e-10
2.843e-10
9.746e-10
2.615e-10
9.574e-10
2.379e-10
9.397e-10
2.146e-10
9.221e-10
1.92e-10
9.053e-10
1.705e-10
8.894e-10
1.503e-10
8.749e-10
1.314e-10
8.619e-10
1.137e-10
8.504e-10
9.719e-11
8.406e-10
8.17e-11
8.324e-10
6.714e-11
8.26e-10
5.337e-11
8.212e-10
4.028e-11
8.182e-10
2.772e-11
8.168e-10
1.56e-11
8.173e-10
3.795e-12
8.194e-10
-7.803e-12
8.233e-10
-1.929e-11
8.29e-10
-3.076e-11
8.365e-10
-4.23e-11
8.458e-10
-5.399e-11
8.571e-10
-6.591e-11
8.703e-10
-7.81e-11
8.855e-10
-9.063e-11
9.028e-10
-1.035e-10
9.222e-10
-1.168e-10
9.439e-10
-1.306e-10
9.678e-10
-1.447e-10
9.941e-10
-1.593e-10
1.023e-09
-1.742e-10
1.054e-09
-1.893e-10
1.087e-09
-2.047e-10
1.124e-09
-2.201e-10
1.162e-09
-2.354e-10
1.203e-09
-2.504e-10
1.246e-09
-2.649e-10
1.292e-09
-2.786e-10
1.339e-09
-2.911e-10
1.389e-09
-3.022e-10
1.44e-09
-3.114e-10
1.492e-09
-3.184e-10
1.545e-09
-3.228e-10
1.598e-09
-3.24e-10
1.651e-09
-3.218e-10
1.702e-09
-3.157e-10
1.753e-09
-3.054e-10
1.801e-09
-2.907e-10
1.846e-09
-2.714e-10
1.887e-09
-2.474e-10
1.923e-09
-2.19e-10
1.955e-09
-1.863e-10
1.98e-09
-1.498e-10
1.998e-09
-1.103e-10
2.01e-09
-6.849e-11
2.014e-09
-2.547e-11
2.011e-09
1.771e-11
2.001e-09
6.002e-11
1.984e-09
1.005e-10
1.961e-09
1.384e-10
1.933e-09
1.731e-10
1.899e-09
2.043e-10
1.861e-09
2.315e-10
1.819e-09
2.548e-10
1.774e-09
2.741e-10
1.727e-09
2.894e-10
1.678e-09
3.009e-10
1.627e-09
3.086e-10
1.576e-09
3.13e-10
1.525e-09
3.142e-10
1.474e-09
3.125e-10
1.423e-09
3.082e-10
1.374e-09
3.017e-10
1.326e-09
2.934e-10
1.279e-09
2.835e-10
1.234e-09
2.723e-10
1.191e-09
2.602e-10
1.151e-09
2.474e-10
1.112e-09
2.342e-10
1.075e-09
2.207e-10
1.041e-09
2.072e-10
1.009e-09
1.939e-10
9.786e-10
1.808e-10
9.505e-10
1.681e-10
9.245e-10
1.558e-10
9.003e-10
1.441e-10
8.78e-10
1.329e-10
8.573e-10
1.222e-10
8.384e-10
1.122e-10
8.209e-10
1.028e-10
8.049e-10
9.402e-11
7.903e-10
8.582e-11
7.769e-10
7.82e-11
7.647e-10
7.114e-11
7.536e-10
6.461e-11
7.434e-10
5.859e-11
7.343e-10
5.306e-11
7.259e-10
4.798e-11
7.183e-10
4.333e-11
7.115e-10
3.908e-11
7.053e-10
3.52e-11
6.997e-10
3.167e-11
6.947e-10
2.846e-11
6.902e-10
2.555e-11
6.861e-10
2.292e-11
6.824e-10
2.054e-11
6.792e-10
1.841e-11
6.762e-10
1.65e-11
6.736e-10
1.48e-11
6.712e-10
1.33e-11
6.691e-10
1.199e-11
6.672e-10
1.085e-11
6.654e-10
9.878e-12
6.639e-10
9.069e-12
6.625e-10
8.414e-12
6.612e-10
7.906e-12
6.601e-10
7.533e-12
6.59e-10
7.285e-12
6.58e-10
7.144e-12
7.091e-12
9.454e-10
6.196e-11
9.625e-10
1.622e-10
9.826e-10
2.36e-10
1.001e-09
2.843e-10
1.014e-09
3.11e-10
1.022e-09
3.21e-10
1.024e-09
3.187e-10
1.021e-09
3.077e-10
1.014e-09
2.912e-10
1.004e-09
2.713e-10
9.923e-10
2.497e-10
9.794e-10
2.275e-10
9.661e-10
2.053e-10
9.528e-10
1.838e-10
9.401e-10
1.631e-10
9.281e-10
1.433e-10
9.173e-10
1.246e-10
9.076e-10
1.068e-10
8.993e-10
9.002e-11
8.924e-10
7.404e-11
8.87e-10
5.879e-11
8.831e-10
4.416e-11
8.808e-10
3.005e-11
8.8e-10
1.633e-11
8.809e-10
2.901e-12
8.835e-10
-1.035e-11
8.877e-10
-2.352e-11
8.937e-10
-3.671e-11
9.014e-10
-5.002e-11
9.109e-10
-6.352e-11
9.223e-10
-7.73e-11
9.356e-10
-9.142e-11
9.509e-10
-1.059e-10
9.683e-10
-1.209e-10
9.878e-10
-1.363e-10
1.009e-09
-1.523e-10
1.033e-09
-1.687e-10
1.06e-09
-1.855e-10
1.088e-09
-2.028e-10
1.119e-09
-2.204e-10
1.153e-09
-2.383e-10
1.189e-09
-2.562e-10
1.228e-09
-2.74e-10
1.269e-09
-2.914e-10
1.312e-09
-3.083e-10
1.358e-09
-3.242e-10
1.405e-09
-3.388e-10
1.455e-09
-3.518e-10
1.506e-09
-3.626e-10
1.558e-09
-3.708e-10
1.612e-09
-3.76e-10
1.665e-09
-3.776e-10
1.719e-09
-3.752e-10
1.771e-09
-3.683e-10
1.822e-09
-3.565e-10
1.871e-09
-3.395e-10
1.917e-09
-3.172e-10
1.959e-09
-2.894e-10
1.996e-09
-2.563e-10
2.028e-09
-2.181e-10
2.054e-09
-1.755e-10
2.072e-09
-1.292e-10
2.084e-09
-8.016e-11
2.088e-09
-2.969e-11
2.085e-09
2.095e-11
2.075e-09
7.048e-11
2.057e-09
1.178e-10
2.034e-09
1.619e-10
2.005e-09
2.023e-10
1.97e-09
2.385e-10
1.932e-09
2.701e-10
1.89e-09
2.971e-10
1.844e-09
3.194e-10
1.797e-09
3.371e-10
1.747e-09
3.504e-10
1.696e-09
3.594e-10
1.645e-09
3.645e-10
1.593e-09
3.659e-10
1.542e-09
3.639e-10
1.491e-09
3.59e-10
1.441e-09
3.514e-10
1.393e-09
3.417e-10
1.346e-09
3.302e-10
1.301e-09
3.173e-10
1.258e-09
3.032e-10
1.217e-09
2.883e-10
1.178e-09
2.73e-10
1.142e-09
2.574e-10
1.107e-09
2.417e-10
1.075e-09
2.262e-10
1.045e-09
2.11e-10
1.017e-09
1.962e-10
9.904e-10
1.82e-10
9.662e-10
1.683e-10
9.437e-10
1.553e-10
9.23e-10
1.429e-10
9.04e-10
1.313e-10
8.864e-10
1.204e-10
8.703e-10
1.101e-10
8.556e-10
1.006e-10
8.421e-10
9.168e-11
8.298e-10
8.345e-11
8.186e-10
7.583e-11
8.084e-10
6.881e-11
7.991e-10
6.235e-11
7.906e-10
5.642e-11
7.83e-10
5.098e-11
7.761e-10
4.601e-11
7.698e-10
4.147e-11
7.641e-10
3.733e-11
7.59e-10
3.357e-11
7.544e-10
3.015e-11
7.503e-10
2.706e-11
7.465e-10
2.427e-11
7.432e-10
2.176e-11
7.402e-10
1.951e-11
7.375e-10
1.75e-11
7.351e-10
1.571e-11
7.329e-10
1.415e-11
7.31e-10
1.278e-11
7.292e-10
1.161e-11
7.277e-10
1.062e-11
7.263e-10
9.809e-12
7.25e-10
9.162e-12
7.239e-10
8.673e-12
7.229e-10
8.33e-12
7.219e-10
8.121e-12
8.034e-12
9.441e-10
5.541e-11
9.591e-10
1.471e-10
9.779e-10
2.172e-10
9.963e-10
2.658e-10
1.012e-09
2.956e-10
1.023e-09
3.098e-10
1.03e-09
3.121e-10
1.032e-09
3.055e-10
1.03e-09
2.927e-10
1.026e-09
2.759e-10
1.019e-09
2.565e-10
1.01e-09
2.358e-10
1.001e-09
2.146e-10
9.916e-10
1.934e-10
9.821e-10
1.726e-10
9.729e-10
1.525e-10
9.644e-10
1.331e-10
9.568e-10
1.145e-10
9.502e-10
9.664e-11
9.447e-10
7.951e-11
9.405e-10
6.301e-11
9.376e-10
4.707e-11
9.36e-10
3.157e-11
9.359e-10
1.643e-11
9.373e-10
1.518e-12
9.402e-10
-1.326e-11
9.447e-10
-2.8e-11
9.508e-10
-4.281e-11
9.586e-10
-5.778e-11
9.681e-10
-7.301e-11
9.793e-10
-8.857e-11
9.924e-10
-1.045e-10
1.007e-09
-1.21e-10
1.024e-09
-1.379e-10
1.044e-09
-1.554e-10
1.065e-09
-1.735e-10
1.088e-09
-1.921e-10
1.114e-09
-2.112e-10
1.142e-09
-2.308e-10
1.172e-09
-2.508e-10
1.205e-09
-2.711e-10
1.24e-09
-2.914e-10
1.278e-09
-3.117e-10
1.318e-09
-3.316e-10
1.361e-09
-3.507e-10
1.405e-09
-3.689e-10
1.452e-09
-3.856e-10
1.501e-09
-4.005e-10
1.551e-09
-4.129e-10
1.603e-09
-4.225e-10
1.655e-09
-4.286e-10
1.708e-09
-4.306e-10
1.761e-09
-4.281e-10
1.813e-09
-4.204e-10
1.864e-09
-4.072e-10
1.913e-09
-3.881e-10
1.958e-09
-3.628e-10
2e-09
-3.313e-10
2.038e-09
-2.936e-10
2.07e-09
-2.5e-10
2.095e-09
-2.012e-10
2.114e-09
-1.481e-10
2.126e-09
-9.177e-11
2.13e-09
-3.373e-11
2.126e-09
2.446e-11
2.116e-09
8.124e-11
2.098e-09
1.353e-10
2.074e-09
1.856e-10
2.045e-09
2.315e-10
2.011e-09
2.725e-10
1.973e-09
3.083e-10
1.931e-09
3.389e-10
1.886e-09
3.642e-10
1.839e-09
3.843e-10
1.79e-09
3.993e-10
1.74e-09
4.095e-10
1.689e-09
4.152e-10
1.639e-09
4.168e-10
1.588e-09
4.145e-10
1.538e-09
4.089e-10
1.489e-09
4.004e-10
1.441e-09
3.893e-10
1.396e-09
3.762e-10
1.351e-09
3.614e-10
1.309e-09
3.454e-10
1.269e-09
3.285e-10
1.231e-09
3.11e-10
1.195e-09
2.933e-10
1.161e-09
2.755e-10
1.13e-09
2.579e-10
1.1e-09
2.406e-10
1.072e-09
2.238e-10
1.047e-09
2.076e-10
1.023e-09
1.921e-10
1.001e-09
1.773e-10
9.807e-10
1.632e-10
9.62e-10
1.5e-10
9.448e-10
1.376e-10
9.29e-10
1.259e-10
9.145e-10
1.15e-10
9.013e-10
1.049e-10
8.892e-10
9.555e-11
8.781e-10
8.688e-11
8.681e-10
7.888e-11
8.589e-10
7.151e-11
8.506e-10
6.474e-11
8.43e-10
5.853e-11
8.362e-10
5.285e-11
8.3e-10
4.766e-11
8.244e-10
4.293e-11
8.193e-10
3.863e-11
8.148e-10
3.472e-11
8.107e-10
3.117e-11
8.07e-10
2.797e-11
8.037e-10
2.508e-11
8.007e-10
2.249e-11
7.98e-10
2.017e-11
7.956e-10
1.811e-11
7.935e-10
1.629e-11
7.916e-10
1.47e-11
7.898e-10
1.332e-11
7.883e-10
1.215e-11
7.87e-10
1.117e-11
7.857e-10
1.039e-11
7.846e-10
9.778e-12
7.836e-10
9.339e-12
7.827e-10
9.061e-12
8.939e-12
9.431e-10
4.982e-11
9.564e-10
1.337e-10
9.739e-10
1.998e-10
9.92e-10
2.477e-10
1.009e-09
2.79e-10
1.022e-09
2.962e-10
1.032e-09
3.021e-10
1.038e-09
2.993e-10
1.041e-09
2.899e-10
1.041e-09
2.76e-10
1.039e-09
2.589e-10
1.035e-09
2.4e-10
1.029e-09
2.199e-10
1.023e-09
1.995e-10
1.017e-09
1.79e-10
1.01e-09
1.589e-10
1.004e-09
1.392e-10
9.986e-10
1.2e-10
9.938e-10
1.015e-10
9.898e-10
8.346e-11
9.868e-10
6.598e-11
9.85e-10
4.894e-11
9.843e-10
3.228e-11
9.848e-10
1.589e-11
9.866e-10
-3.207e-13
9.898e-10
-1.646e-11
9.945e-10
-3.262e-11
1.001e-09
-4.89e-11
1.008e-09
-6.541e-11
1.017e-09
-8.223e-11
1.028e-09
-9.945e-11
1.041e-09
-1.171e-10
1.055e-09
-1.354e-10
1.072e-09
-1.542e-10
1.09e-09
-1.736e-10
1.11e-09
-1.937e-10
1.132e-09
-2.144e-10
1.157e-09
-2.357e-10
1.184e-09
-2.575e-10
1.213e-09
-2.798e-10
1.244e-09
-3.024e-10
1.278e-09
-3.251e-10
1.314e-09
-3.477e-10
1.352e-09
-3.699e-10
1.393e-09
-3.914e-10
1.435e-09
-4.118e-10
1.48e-09
-4.306e-10
1.527e-09
-4.473e-10
1.576e-09
-4.614e-10
1.625e-09
-4.723e-10
1.676e-09
-4.793e-10
1.727e-09
-4.818e-10
1.779e-09
-4.792e-10
1.829e-09
-4.71e-10
1.878e-09
-4.565e-10
1.926e-09