/*--------------------------------*- C++ -*----------------------------------*\
  =========                 |
  \\      /  F ield         | OpenFOAM: The Open Source CFD Toolbox
   \\    /   O peration     | Website:  https://openfoam.org
    \\  /    A nd           | Version:  7
     \\/     M anipulation  |
\*---------------------------------------------------------------------------*/
FoamFile
{
    version     2.0;
    format      ascii;
    class       volVectorField;
    location    "959.999473410657174";
    object      U;
}
// * * * * * * * * * * * * * * * * * * * * * * * * * * * * * * * * * * * * * //

dimensions      [0 1 -1 0 0 0 0];

internalField   nonuniform List<vector> 
4096
(
(0.001039 0.0001611 0)
(0.0007463 0.0001314 0)
(0.0005302 8.474e-05 0)
(0.0003919 5.358e-05 0)
(0.0003036 3.466e-05 0)
(0.0002457 2.327e-05 0)
(0.0002061 1.631e-05 0)
(0.0001779 1.193e-05 0)
(0.0001569 9.036e-06 0)
(0.0001408 7.045e-06 0)
(0.0001282 5.614e-06 0)
(0.000118 4.548e-06 0)
(0.0001097 3.729e-06 0)
(0.0001029 3.083e-06 0)
(9.728e-05 2.561e-06 0)
(9.258e-05 2.133e-06 0)
(8.868e-05 1.774e-06 0)
(8.543e-05 1.469e-06 0)
(8.276e-05 1.205e-06 0)
(8.058e-05 9.739e-07 0)
(7.884e-05 7.681e-07 0)
(7.749e-05 5.821e-07 0)
(7.649e-05 4.116e-07 0)
(7.583e-05 2.529e-07 0)
(7.547e-05 1.028e-07 0)
(7.541e-05 -4.127e-08 0)
(7.564e-05 -1.814e-07 0)
(7.614e-05 -3.197e-07 0)
(7.691e-05 -4.578e-07 0)
(7.797e-05 -5.973e-07 0)
(7.931e-05 -7.393e-07 0)
(8.093e-05 -8.852e-07 0)
(8.285e-05 -1.036e-06 0)
(8.508e-05 -1.192e-06 0)
(8.763e-05 -1.355e-06 0)
(9.051e-05 -1.524e-06 0)
(9.373e-05 -1.701e-06 0)
(9.731e-05 -1.884e-06 0)
(0.0001013 -2.073e-06 0)
(0.0001056 -2.269e-06 0)
(0.0001104 -2.469e-06 0)
(0.0001155 -2.673e-06 0)
(0.000121 -2.877e-06 0)
(0.000127 -3.08e-06 0)
(0.0001334 -3.279e-06 0)
(0.0001401 -3.469e-06 0)
(0.0001472 -3.647e-06 0)
(0.0001547 -3.807e-06 0)
(0.0001624 -3.945e-06 0)
(0.0001704 -4.053e-06 0)
(0.0001786 -4.128e-06 0)
(0.0001869 -4.161e-06 0)
(0.0001952 -4.147e-06 0)
(0.0002034 -4.081e-06 0)
(0.0002115 -3.958e-06 0)
(0.0002192 -3.774e-06 0)
(0.0002265 -3.527e-06 0)
(0.0002333 -3.216e-06 0)
(0.0002393 -2.844e-06 0)
(0.0002446 -2.414e-06 0)
(0.0002489 -1.934e-06 0)
(0.0002523 -1.414e-06 0)
(0.0002545 -8.635e-07 0)
(0.0002557 -2.972e-07 0)
(0.0002557 2.713e-07 0)
(0.0002546 8.281e-07 0)
(0.0002524 1.361e-06 0)
(0.0002492 1.858e-06 0)
(0.0002451 2.311e-06 0)
(0.00024 2.714e-06 0)
(0.0002343 3.063e-06 0)
(0.0002278 3.356e-06 0)
(0.0002209 3.592e-06 0)
(0.0002135 3.773e-06 0)
(0.0002058 3.901e-06 0)
(0.000198 3.978e-06 0)
(0.00019 4.01e-06 0)
(0.000182 4e-06 0)
(0.000174 3.953e-06 0)
(0.0001662 3.874e-06 0)
(0.0001586 3.767e-06 0)
(0.0001511 3.637e-06 0)
(0.000144 3.489e-06 0)
(0.0001372 3.328e-06 0)
(0.0001307 3.157e-06 0)
(0.0001246 2.98e-06 0)
(0.0001188 2.799e-06 0)
(0.0001134 2.619e-06 0)
(0.0001083 2.44e-06 0)
(0.0001036 2.265e-06 0)
(9.926e-05 2.096e-06 0)
(9.523e-05 1.933e-06 0)
(9.152e-05 1.778e-06 0)
(8.811e-05 1.63e-06 0)
(8.499e-05 1.491e-06 0)
(8.214e-05 1.361e-06 0)
(7.954e-05 1.239e-06 0)
(7.717e-05 1.126e-06 0)
(7.502e-05 1.021e-06 0)
(7.308e-05 9.244e-07 0)
(7.132e-05 8.352e-07 0)
(6.973e-05 7.533e-07 0)
(6.83e-05 6.783e-07 0)
(6.701e-05 6.098e-07 0)
(6.585e-05 5.473e-07 0)
(6.482e-05 4.905e-07 0)
(6.389e-05 4.389e-07 0)
(6.306e-05 3.921e-07 0)
(6.231e-05 3.499e-07 0)
(6.165e-05 3.117e-07 0)
(6.106e-05 2.774e-07 0)
(6.054e-05 2.465e-07 0)
(6.007e-05 2.189e-07 0)
(5.966e-05 1.943e-07 0)
(5.929e-05 1.726e-07 0)
(5.897e-05 1.535e-07 0)
(5.868e-05 1.369e-07 0)
(5.842e-05 1.228e-07 0)
(5.818e-05 1.113e-07 0)
(5.797e-05 1.023e-07 0)
(5.777e-05 9.615e-08 0)
(5.758e-05 9.328e-08 0)
(5.739e-05 9.451e-08 0)
(5.72e-05 1.014e-07 0)
(5.698e-05 1.169e-07 0)
(5.672e-05 1.458e-07 0)
(5.638e-05 1.937e-07 0)
(5.593e-05 2.517e-07 0)
(0.001209 0.0003128 0)
(0.001154 0.0003282 0)
(0.00101 0.000248 0)
(0.0008613 0.000177 0)
(0.0007345 0.0001262 0)
(0.0006328 9.14e-05 0)
(0.0005527 6.783e-05 0)
(0.0004897 5.166e-05 0)
(0.0004397 4.03e-05 0)
(0.0003995 3.207e-05 0)
(0.0003668 2.593e-05 0)
(0.00034 2.123e-05 0)
(0.0003177 1.755e-05 0)
(0.0002992 1.46e-05 0)
(0.0002837 1.219e-05 0)
(0.0002707 1.019e-05 0)
(0.0002598 8.502e-06 0)
(0.0002508 7.058e-06 0)
(0.0002433 5.804e-06 0)
(0.0002371 4.7e-06 0)
(0.0002322 3.713e-06 0)
(0.0002283 2.82e-06 0)
(0.0002255 1.999e-06 0)
(0.0002236 1.233e-06 0)
(0.0002226 5.077e-07 0)
(0.0002224 -1.881e-07 0)
(0.000223 -8.653e-07 0)
(0.0002244 -1.533e-06 0)
(0.0002266 -2.199e-06 0)
(0.0002295 -2.871e-06 0)
(0.0002333 -3.554e-06 0)
(0.0002378 -4.254e-06 0)
(0.0002432 -4.976e-06 0)
(0.0002495 -5.723e-06 0)
(0.0002566 -6.498e-06 0)
(0.0002646 -7.304e-06 0)
(0.0002736 -8.14e-06 0)
(0.0002836 -9.006e-06 0)
(0.0002946 -9.901e-06 0)
(0.0003066 -1.082e-05 0)
(0.0003197 -1.176e-05 0)
(0.0003339 -1.271e-05 0)
(0.0003492 -1.366e-05 0)
(0.0003656 -1.461e-05 0)
(0.000383 -1.552e-05 0)
(0.0004014 -1.64e-05 0)
(0.0004208 -1.721e-05 0)
(0.000441 -1.794e-05 0)
(0.000462 -1.856e-05 0)
(0.0004836 -1.904e-05 0)
(0.0005057 -1.936e-05 0)
(0.000528 -1.949e-05 0)
(0.0005502 -1.94e-05 0)
(0.0005722 -1.906e-05 0)
(0.0005937 -1.847e-05 0)
(0.0006143 -1.759e-05 0)
(0.0006337 -1.642e-05 0)
(0.0006516 -1.496e-05 0)
(0.0006676 -1.322e-05 0)
(0.0006816 -1.122e-05 0)
(0.0006931 -8.995e-06 0)
(0.000702 -6.582e-06 0)
(0.000708 -4.036e-06 0)
(0.0007112 -1.417e-06 0)
(0.0007113 1.214e-06 0)
(0.0007085 3.793e-06 0)
(0.0007028 6.265e-06 0)
(0.0006944 8.578e-06 0)
(0.0006835 1.069e-05 0)
(0.0006703 1.258e-05 0)
(0.000655 1.422e-05 0)
(0.000638 1.561e-05 0)
(0.0006196 1.673e-05 0)
(0.0005999 1.761e-05 0)
(0.0005795 1.823e-05 0)
(0.0005584 1.863e-05 0)
(0.0005369 1.88e-05 0)
(0.0005153 1.879e-05 0)
(0.0004939 1.86e-05 0)
(0.0004727 1.825e-05 0)
(0.0004519 1.778e-05 0)
(0.0004318 1.719e-05 0)
(0.0004123 1.652e-05 0)
(0.0003936 1.578e-05 0)
(0.0003758 1.5e-05 0)
(0.0003589 1.418e-05 0)
(0.000343 1.334e-05 0)
(0.000328 1.25e-05 0)
(0.0003139 1.167e-05 0)
(0.0003008 1.085e-05 0)
(0.0002886 1.005e-05 0)
(0.0002774 9.285e-06 0)
(0.0002669 8.551e-06 0)
(0.0002573 7.855e-06 0)
(0.0002485 7.196e-06 0)
(0.0002405 6.577e-06 0)
(0.0002331 5.998e-06 0)
(0.0002264 5.458e-06 0)
(0.0002203 4.957e-06 0)
(0.0002147 4.494e-06 0)
(0.0002097 4.066e-06 0)
(0.0002051 3.673e-06 0)
(0.000201 3.312e-06 0)
(0.0001972 2.982e-06 0)
(0.0001939 2.681e-06 0)
(0.0001909 2.407e-06 0)
(0.0001882 2.157e-06 0)
(0.0001858 1.931e-06 0)
(0.0001836 1.726e-06 0)
(0.0001816 1.54e-06 0)
(0.0001799 1.373e-06 0)
(0.0001784 1.223e-06 0)
(0.000177 1.088e-06 0)
(0.0001757 9.682e-07 0)
(0.0001747 8.617e-07 0)
(0.0001737 7.681e-07 0)
(0.0001728 6.867e-07 0)
(0.000172 6.173e-07 0)
(0.0001713 5.599e-07 0)
(0.0001707 5.148e-07 0)
(0.0001701 4.827e-07 0)
(0.0001695 4.651e-07 0)
(0.0001689 4.646e-07 0)
(0.0001684 4.852e-07 0)
(0.0001678 5.338e-07 0)
(0.0001672 6.196e-07 0)
(0.0001665 7.472e-07 0)
(0.0001657 8.805e-07 0)
(0.001226 0.0002775 0)
(0.001243 0.0004027 0)
(0.001194 0.0003664 0)
(0.001102 0.0002982 0)
(0.0009999 0.0002344 0)
(0.0009019 0.0001829 0)
(0.0008147 0.0001435 0)
(0.0007398 0.0001139 0)
(0.0006763 9.156e-05 0)
(0.0006228 7.448e-05 0)
(0.0005778 6.123e-05 0)
(0.0005398 5.076e-05 0)
(0.0005077 4.236e-05 0)
(0.0004805 3.55e-05 0)
(0.0004575 2.982e-05 0)
(0.000438 2.505e-05 0)
(0.0004215 2.098e-05 0)
(0.0004077 1.747e-05 0)
(0.0003962 1.441e-05 0)
(0.0003867 1.169e-05 0)
(0.0003791 9.253e-06 0)
(0.0003732 7.036e-06 0)
(0.0003688 4.993e-06 0)
(0.0003659 3.082e-06 0)
(0.0003643 1.271e-06 0)
(0.000364 -4.703e-07 0)
(0.000365 -2.165e-06 0)
(0.0003672 -3.837e-06 0)
(0.0003706 -5.504e-06 0)
(0.0003753 -7.183e-06 0)
(0.0003812 -8.889e-06 0)
(0.0003884 -1.064e-05 0)
(0.0003968 -1.243e-05 0)
(0.0004066 -1.429e-05 0)
(0.0004177 -1.621e-05 0)
(0.0004303 -1.821e-05 0)
(0.0004444 -2.027e-05 0)
(0.0004599 -2.241e-05 0)
(0.000477 -2.461e-05 0)
(0.0004958 -2.687e-05 0)
(0.0005161 -2.917e-05 0)
(0.0005381 -3.149e-05 0)
(0.0005618 -3.381e-05 0)
(0.000587 -3.61e-05 0)
(0.0006139 -3.832e-05 0)
(0.0006423 -4.043e-05 0)
(0.0006721 -4.238e-05 0)
(0.0007032 -4.412e-05 0)
(0.0007354 -4.559e-05 0)
(0.0007685 -4.672e-05 0)
(0.0008023 -4.745e-05 0)
(0.0008363 -4.771e-05 0)
(0.0008703 -4.743e-05 0)
(0.0009038 -4.657e-05 0)
(0.0009365 -4.507e-05 0)
(0.0009678 -4.289e-05 0)
(0.0009973 -4.001e-05 0)
(0.001024 -3.644e-05 0)
(0.001049 -3.22e-05 0)
(0.00107 -2.733e-05 0)
(0.001088 -2.191e-05 0)
(0.001101 -1.606e-05 0)
(0.00111 -9.88e-06 0)
(0.001115 -3.526e-06 0)
(0.001115 2.856e-06 0)
(0.001111 9.12e-06 0)
(0.001103 1.513e-05 0)
(0.00109 2.076e-05 0)
(0.001074 2.592e-05 0)
(0.001054 3.055e-05 0)
(0.001031 3.458e-05 0)
(0.001005 3.8e-05 0)
(0.0009768 4.079e-05 0)
(0.000947 4.297e-05 0)
(0.0009158 4.455e-05 0)
(0.0008837 4.557e-05 0)
(0.0008509 4.607e-05 0)
(0.0008179 4.609e-05 0)
(0.000785 4.567e-05 0)
(0.0007525 4.489e-05 0)
(0.0007206 4.378e-05 0)
(0.0006896 4.24e-05 0)
(0.0006595 4.08e-05 0)
(0.0006307 3.903e-05 0)
(0.0006031 3.713e-05 0)
(0.0005769 3.515e-05 0)
(0.0005521 3.312e-05 0)
(0.0005288 3.107e-05 0)
(0.0005069 2.903e-05 0)
(0.0004865 2.703e-05 0)
(0.0004674 2.508e-05 0)
(0.0004497 2.32e-05 0)
(0.0004334 2.14e-05 0)
(0.0004183 1.968e-05 0)
(0.0004044 1.805e-05 0)
(0.0003917 1.652e-05 0)
(0.0003801 1.508e-05 0)
(0.0003694 1.374e-05 0)
(0.0003597 1.25e-05 0)
(0.0003509 1.135e-05 0)
(0.0003428 1.028e-05 0)
(0.0003356 9.297e-06 0)
(0.000329 8.396e-06 0)
(0.000323 7.569e-06 0)
(0.0003177 6.814e-06 0)
(0.0003128 6.125e-06 0)
(0.0003085 5.498e-06 0)
(0.0003046 4.928e-06 0)
(0.000301 4.411e-06 0)
(0.0002979 3.943e-06 0)
(0.0002951 3.521e-06 0)
(0.0002926 3.141e-06 0)
(0.0002903 2.8e-06 0)
(0.0002883 2.496e-06 0)
(0.0002865 2.225e-06 0)
(0.0002849 1.987e-06 0)
(0.0002835 1.779e-06 0)
(0.0002822 1.601e-06 0)
(0.000281 1.453e-06 0)
(0.0002799 1.334e-06 0)
(0.000279 1.246e-06 0)
(0.000278 1.192e-06 0)
(0.0002772 1.174e-06 0)
(0.0002763 1.198e-06 0)
(0.0002754 1.269e-06 0)
(0.0002745 1.392e-06 0)
(0.0002737 1.558e-06 0)
(0.0002728 1.703e-06 0)
(0.001224 0.0002275 0)
(0.00126 0.0004003 0)
(0.001258 0.0004192 0)
(0.001216 0.0003788 0)
(0.00115 0.0003227 0)
(0.001074 0.0002683 0)
(0.000998 0.0002212 0)
(0.0009269 0.0001823 0)
(0.0008627 0.0001509 0)
(0.0008058 0.0001255 0)
(0.000756 0.000105 0)
(0.0007127 8.826e-05 0)
(0.0006753 7.444e-05 0)
(0.0006429 6.293e-05 0)
(0.0006151 5.323e-05 0)
(0.0005913 4.496e-05 0)
(0.000571 3.784e-05 0)
(0.0005538 3.163e-05 0)
(0.0005394 2.615e-05 0)
(0.0005275 2.127e-05 0)
(0.0005179 1.686e-05 0)
(0.0005104 1.283e-05 0)
(0.0005049 9.101e-06 0)
(0.0005012 5.601e-06 0)
(0.0004993 2.274e-06 0)
(0.000499 -9.295e-07 0)
(0.0005004 -4.054e-06 0)
(0.0005034 -7.136e-06 0)
(0.0005079 -1.021e-05 0)
(0.0005141 -1.331e-05 0)
(0.0005219 -1.645e-05 0)
(0.0005314 -1.967e-05 0)
(0.0005425 -2.297e-05 0)
(0.0005553 -2.639e-05 0)
(0.00057 -2.991e-05 0)
(0.0005865 -3.357e-05 0)
(0.0006048 -3.734e-05 0)
(0.0006252 -4.124e-05 0)
(0.0006475 -4.525e-05 0)
(0.0006719 -4.935e-05 0)
(0.0006984 -5.352e-05 0)
(0.000727 -5.773e-05 0)
(0.0007577 -6.192e-05 0)
(0.0007905 -6.605e-05 0)
(0.0008253 -7.005e-05 0)
(0.0008621 -7.383e-05 0)
(0.0009006 -7.732e-05 0)
(0.0009407 -8.042e-05 0)
(0.0009822 -8.302e-05 0)
(0.001025 -8.5e-05 0)
(0.001068 -8.625e-05 0)
(0.001112 -8.665e-05 0)
(0.001156 -8.609e-05 0)
(0.001199 -8.447e-05 0)
(0.00124 -8.17e-05 0)
(0.001281 -7.771e-05 0)
(0.001318 -7.247e-05 0)
(0.001353 -6.598e-05 0)
(0.001384 -5.829e-05 0)
(0.001411 -4.948e-05 0)
(0.001434 -3.97e-05 0)
(0.001451 -2.912e-05 0)
(0.001463 -1.797e-05 0)
(0.001469 -6.501e-06 0)
(0.00147 5.022e-06 0)
(0.001465 1.634e-05 0)
(0.001454 2.72e-05 0)
(0.001438 3.739e-05 0)
(0.001417 4.675e-05 0)
(0.001391 5.514e-05 0)
(0.001362 6.249e-05 0)
(0.001329 6.872e-05 0)
(0.001293 7.385e-05 0)
(0.001255 7.786e-05 0)
(0.001215 8.081e-05 0)
(0.001174 8.274e-05 0)
(0.001132 8.373e-05 0)
(0.001089 8.384e-05 0)
(0.001047 8.318e-05 0)
(0.001005 8.183e-05 0)
(0.000964 7.989e-05 0)
(0.0009238 7.746e-05 0)
(0.000885 7.461e-05 0)
(0.0008476 7.145e-05 0)
(0.0008118 6.805e-05 0)
(0.0007777 6.449e-05 0)
(0.0007455 6.084e-05 0)
(0.000715 5.714e-05 0)
(0.0006864 5.346e-05 0)
(0.0006597 4.983e-05 0)
(0.0006347 4.628e-05 0)
(0.0006115 4.286e-05 0)
(0.00059 3.957e-05 0)
(0.0005702 3.643e-05 0)
(0.0005519 3.346e-05 0)
(0.0005351 3.065e-05 0)
(0.0005197 2.802e-05 0)
(0.0005055 2.556e-05 0)
(0.0004927 2.327e-05 0)
(0.0004809 2.115e-05 0)
(0.0004702 1.918e-05 0)
(0.0004605 1.737e-05 0)
(0.0004517 1.57e-05 0)
(0.0004438 1.418e-05 0)
(0.0004366 1.278e-05 0)
(0.0004301 1.15e-05 0)
(0.0004242 1.033e-05 0)
(0.000419 9.274e-06 0)
(0.0004142 8.312e-06 0)
(0.00041 7.441e-06 0)
(0.0004062 6.653e-06 0)
(0.0004028 5.944e-06 0)
(0.0003997 5.306e-06 0)
(0.000397 4.736e-06 0)
(0.0003945 4.228e-06 0)
(0.0003923 3.78e-06 0)
(0.0003904 3.388e-06 0)
(0.0003886 3.05e-06 0)
(0.000387 2.765e-06 0)
(0.0003855 2.534e-06 0)
(0.0003842 2.357e-06 0)
(0.000383 2.236e-06 0)
(0.0003818 2.173e-06 0)
(0.0003807 2.174e-06 0)
(0.0003796 2.238e-06 0)
(0.0003786 2.362e-06 0)
(0.0003775 2.523e-06 0)
(0.0003765 2.651e-06 0)
(0.001219 0.0001846 0)
(0.001255 0.0003712 0)
(0.001275 0.0004299 0)
(0.001265 0.0004208 0)
(0.001229 0.0003824 0)
(0.001179 0.000335 0)
(0.001121 0.0002881 0)
(0.001061 0.0002458 0)
(0.001004 0.000209 0)
(0.0009507 0.0001777 0)
(0.000902 0.0001513 0)
(0.0008583 0.000129 0)
(0.0008194 0.00011 0)
(0.0007852 9.388e-05 0)
(0.0007553 8.001e-05 0)
(0.0007293 6.801e-05 0)
(0.0007069 5.752e-05 0)
(0.0006877 4.828e-05 0)
(0.0006716 4.005e-05 0)
(0.0006582 3.264e-05 0)
(0.0006474 2.591e-05 0)
(0.0006389 1.972e-05 0)
(0.0006327 1.396e-05 0)
(0.0006286 8.533e-06 0)
(0.0006265 3.355e-06 0)
(0.0006264 -1.644e-06 0)
(0.0006282 -6.528e-06 0)
(0.0006319 -1.135e-05 0)
(0.0006375 -1.617e-05 0)
(0.000645 -2.103e-05 0)
(0.0006545 -2.595e-05 0)
(0.0006658 -3.099e-05 0)
(0.0006792 -3.616e-05 0)
(0.0006947 -4.15e-05 0)
(0.0007122 -4.701e-05 0)
(0.000732 -5.27e-05 0)
(0.000754 -5.858e-05 0)
(0.0007783 -6.465e-05 0)
(0.000805 -7.087e-05 0)
(0.0008341 -7.724e-05 0)
(0.0008656 -8.369e-05 0)
(0.0008997 -9.019e-05 0)
(0.0009362 -9.666e-05 0)
(0.0009751 -0.000103 0)
(0.001016 -0.0001092 0)
(0.00106 -0.000115 0)
(0.001106 -0.0001203 0)
(0.001153 -0.000125 0)
(0.001202 -0.000129 0)
(0.001252 -0.000132 0)
(0.001304 -0.0001338 0)
(0.001355 -0.0001344 0)
(0.001407 -0.0001334 0)
(0.001457 -0.0001309 0)
(0.001507 -0.0001265 0)
(0.001554 -0.0001203 0)
(0.001599 -0.0001122 0)
(0.00164 -0.0001021 0)
(0.001676 -9.023e-05 0)
(0.001708 -7.662e-05 0)
(0.001735 -6.15e-05 0)
(0.001755 -4.516e-05 0)
(0.00177 -2.793e-05 0)
(0.001777 -1.022e-05 0)
(0.001778 7.586e-06 0)
(0.001772 2.507e-05 0)
(0.001759 4.186e-05 0)
(0.00174 5.763e-05 0)
(0.001715 7.211e-05 0)
(0.001686 8.512e-05 0)
(0.001651 9.652e-05 0)
(0.001612 0.0001062 0)
(0.00157 0.0001142 0)
(0.001525 0.0001205 0)
(0.001478 0.0001252 0)
(0.00143 0.0001283 0)
(0.00138 0.0001299 0)
(0.00133 0.0001302 0)
(0.00128 0.0001293 0)
(0.00123 0.0001273 0)
(0.001182 0.0001244 0)
(0.001134 0.0001207 0)
(0.001088 0.0001164 0)
(0.001044 0.0001115 0)
(0.001001 0.0001063 0)
(0.0009604 0.0001009 0)
(0.0009219 9.522e-05 0)
(0.0008856 8.952e-05 0)
(0.0008515 8.383e-05 0)
(0.0008194 7.822e-05 0)
(0.0007896 7.273e-05 0)
(0.0007617 6.742e-05 0)
(0.0007359 6.23e-05 0)
(0.0007121 5.742e-05 0)
(0.00069 5.279e-05 0)
(0.0006698 4.841e-05 0)
(0.0006511 4.43e-05 0)
(0.0006341 4.045e-05 0)
(0.0006185 3.687e-05 0)
(0.0006042 3.354e-05 0)
(0.0005913 3.045e-05 0)
(0.0005795 2.76e-05 0)
(0.0005687 2.498e-05 0)
(0.000559 2.257e-05 0)
(0.0005502 2.037e-05 0)
(0.0005423 1.835e-05 0)
(0.0005351 1.651e-05 0)
(0.0005287 1.483e-05 0)
(0.0005228 1.331e-05 0)
(0.0005176 1.193e-05 0)
(0.0005129 1.068e-05 0)
(0.0005087 9.551e-06 0)
(0.0005049 8.537e-06 0)
(0.0005015 7.628e-06 0)
(0.0004985 6.818e-06 0)
(0.0004958 6.1e-06 0)
(0.0004933 5.47e-06 0)
(0.0004911 4.924e-06 0)
(0.0004892 4.46e-06 0)
(0.0004874 4.077e-06 0)
(0.0004857 3.774e-06 0)
(0.0004842 3.552e-06 0)
(0.0004828 3.413e-06 0)
(0.0004815 3.356e-06 0)
(0.0004803 3.378e-06 0)
(0.0004791 3.47e-06 0)
(0.000478 3.599e-06 0)
(0.0004768 3.7e-06 0)
(0.001214 0.000152 0)
(0.001246 0.0003353 0)
(0.001274 0.0004179 0)
(0.001282 0.000435 0)
(0.001269 0.0004163 0)
(0.00124 0.0003809 0)
(0.001201 0.0003397 0)
(0.001156 0.0002986 0)
(0.001109 0.0002603 0)
(0.001063 0.000226 0)
(0.001019 0.0001956 0)
(0.0009782 0.0001691 0)
(0.0009411 0.0001459 0)
(0.0009076 0.0001257 0)
(0.0008778 0.000108 0)
(0.0008515 9.235e-05 0)
(0.0008286 7.852e-05 0)
(0.0008088 6.618e-05 0)
(0.0007921 5.508e-05 0)
(0.0007781 4.5e-05 0)
(0.0007667 3.576e-05 0)
(0.0007578 2.72e-05 0)
(0.0007514 1.919e-05 0)
(0.0007472 1.16e-05 0)
(0.0007452 4.338e-06 0)
(0.0007454 -2.699e-06 0)
(0.0007477 -9.592e-06 0)
(0.0007521 -1.641e-05 0)
(0.0007586 -2.323e-05 0)
(0.0007672 -3.011e-05 0)
(0.000778 -3.709e-05 0)
(0.000791 -4.423e-05 0)
(0.0008063 -5.155e-05 0)
(0.0008238 -5.91e-05 0)
(0.0008437 -6.689e-05 0)
(0.0008661 -7.493e-05 0)
(0.000891 -8.323e-05 0)
(0.0009184 -9.178e-05 0)
(0.0009485 -0.0001005 0)
(0.0009814 -0.0001095 0)
(0.001017 -0.0001186 0)
(0.001055 -0.0001277 0)
(0.001096 -0.0001367 0)
(0.00114 -0.0001456 0)
(0.001186 -0.0001542 0)
(0.001235 -0.0001623 0)
(0.001286 -0.0001698 0)
(0.00134 -0.0001763 0)
(0.001395 -0.0001818 0)
(0.001451 -0.0001859 0)
(0.001509 -0.0001885 0)
(0.001566 -0.0001892 0)
(0.001624 -0.0001878 0)
(0.001681 -0.0001841 0)
(0.001736 -0.000178 0)
(0.001789 -0.0001692 0)
(0.001839 -0.0001578 0)
(0.001885 -0.0001437 0)
(0.001927 -0.000127 0)
(0.001963 -0.0001078 0)
(0.001993 -8.659e-05 0)
(0.002016 -6.364e-05 0)
(0.002032 -3.944e-05 0)
(0.00204 -1.454e-05 0)
(0.002041 1.047e-05 0)
(0.002034 3.503e-05 0)
(0.00202 5.862e-05 0)
(0.001999 8.078e-05 0)
(0.001971 0.0001011 0)
(0.001938 0.0001194 0)
(0.001899 0.0001355 0)
(0.001856 0.0001492 0)
(0.001809 0.0001605 0)
(0.001758 0.0001694 0)
(0.001706 0.000176 0)
(0.001651 0.0001805 0)
(0.001596 0.0001829 0)
(0.00154 0.0001834 0)
(0.001483 0.0001822 0)
(0.001428 0.0001795 0)
(0.001373 0.0001756 0)
(0.00132 0.0001705 0)
(0.001268 0.0001645 0)
(0.001218 0.0001578 0)
(0.00117 0.0001505 0)
(0.001124 0.0001429 0)
(0.001081 0.000135 0)
(0.00104 0.0001271 0)
(0.001001 0.0001191 0)
(0.000965 0.0001112 0)
(0.0009312 0.0001035 0)
(0.0008997 9.6e-05 0)
(0.0008704 8.88e-05 0)
(0.0008432 8.192e-05 0)
(0.0008182 7.538e-05 0)
(0.0007951 6.919e-05 0)
(0.0007739 6.337e-05 0)
(0.0007544 5.792e-05 0)
(0.0007366 5.283e-05 0)
(0.0007203 4.81e-05 0)
(0.0007054 4.372e-05 0)
(0.0006919 3.967e-05 0)
(0.0006796 3.594e-05 0)
(0.0006684 3.25e-05 0)
(0.0006583 2.935e-05 0)
(0.0006491 2.647e-05 0)
(0.0006408 2.384e-05 0)
(0.0006333 2.144e-05 0)
(0.0006266 1.926e-05 0)
(0.0006205 1.728e-05 0)
(0.0006151 1.549e-05 0)
(0.0006102 1.386e-05 0)
(0.0006058 1.24e-05 0)
(0.0006018 1.109e-05 0)
(0.0005983 9.924e-06 0)
(0.0005951 8.885e-06 0)
(0.0005923 7.969e-06 0)
(0.0005897 7.172e-06 0)
(0.0005874 6.489e-06 0)
(0.0005853 5.916e-06 0)
(0.0005834 5.452e-06 0)
(0.0005817 5.096e-06 0)
(0.0005801 4.846e-06 0)
(0.0005787 4.699e-06 0)
(0.0005773 4.649e-06 0)
(0.000576 4.679e-06 0)
(0.0005748 4.759e-06 0)
(0.0005736 4.828e-06 0)
(0.00121 0.0001278 0)
(0.001237 0.0003005 0)
(0.001267 0.0003952 0)
(0.001285 0.0004314 0)
(0.001287 0.0004304 0)
(0.001275 0.0004082 0)
(0.001251 0.0003755 0)
(0.00122 0.0003389 0)
(0.001185 0.0003021 0)
(0.001148 0.0002672 0)
(0.001111 0.000235 0)
(0.001075 0.0002058 0)
(0.001042 0.0001796 0)
(0.001011 0.0001562 0)
(0.0009834 0.0001352 0)
(0.0009584 0.0001164 0)
(0.0009363 9.95e-05 0)
(0.000917 8.421e-05 0)
(0.0009005 7.031e-05 0)
(0.0008867 5.756e-05 0)
(0.0008755 4.577e-05 0)
(0.0008668 3.477e-05 0)
(0.0008605 2.441e-05 0)
(0.0008565 1.454e-05 0)
(0.0008548 5.051e-06 0)
(0.0008554 -4.176e-06 0)
(0.0008583 -1.324e-05 0)
(0.0008633 -2.223e-05 0)
(0.0008706 -3.123e-05 0)
(0.0008802 -4.032e-05 0)
(0.0008921 -4.955e-05 0)
(0.0009063 -5.899e-05 0)
(0.0009229 -6.867e-05 0)
(0.0009421 -7.865e-05 0)
(0.0009638 -8.894e-05 0)
(0.0009881 -9.956e-05 0)
(0.001015 -0.0001105 0)
(0.001045 -0.0001218 0)
(0.001078 -0.0001333 0)
(0.001113 -0.0001451 0)
(0.001152 -0.000157 0)
(0.001193 -0.000169 0)
(0.001238 -0.0001809 0)
(0.001285 -0.0001926 0)
(0.001335 -0.0002038 0)
(0.001388 -0.0002144 0)
(0.001443 -0.0002242 0)
(0.001501 -0.0002327 0)
(0.00156 -0.0002399 0)
(0.001621 -0.0002453 0)
(0.001683 -0.0002486 0)
(0.001746 -0.0002494 0)
(0.001808 -0.0002476 0)
(0.00187 -0.0002428 0)
(0.00193 -0.0002347 0)
(0.001987 -0.0002232 0)
(0.002042 -0.0002081 0)
(0.002092 -0.0001895 0)
(0.002137 -0.0001675 0)
(0.002176 -0.0001423 0)
(0.002208 -0.0001144 0)
(0.002234 -8.41e-05 0)
(0.002251 -5.219e-05 0)
(0.00226 -1.936e-05 0)
(0.002261 1.363e-05 0)
(0.002254 4.602e-05 0)
(0.002238 7.711e-05 0)
(0.002215 0.0001063 0)
(0.002185 0.0001331 0)
(0.002149 0.0001572 0)
(0.002107 0.0001784 0)
(0.00206 0.0001964 0)
(0.002009 0.0002113 0)
(0.001955 0.0002231 0)
(0.001898 0.000232 0)
(0.001839 0.0002379 0)
(0.001779 0.0002412 0)
(0.001718 0.0002419 0)
(0.001658 0.0002405 0)
(0.001598 0.0002371 0)
(0.001538 0.0002319 0)
(0.001481 0.0002253 0)
(0.001424 0.0002176 0)
(0.00137 0.0002088 0)
(0.001318 0.0001993 0)
(0.001269 0.0001894 0)
(0.001222 0.000179 0)
(0.001177 0.0001686 0)
(0.001135 0.0001581 0)
(0.001096 0.0001478 0)
(0.001059 0.0001376 0)
(0.001025 0.0001278 0)
(0.0009928 0.0001183 0)
(0.0009632 0.0001092 0)
(0.0009358 0.0001005 0)
(0.0009106 9.236e-05 0)
(0.0008874 8.466e-05 0)
(0.000866 7.744e-05 0)
(0.0008465 7.07e-05 0)
(0.0008286 6.442e-05 0)
(0.0008123 5.86e-05 0)
(0.0007974 5.322e-05 0)
(0.0007838 4.825e-05 0)
(0.0007715 4.368e-05 0)
(0.0007603 3.948e-05 0)
(0.0007502 3.564e-05 0)
(0.000741 3.212e-05 0)
(0.0007328 2.892e-05 0)
(0.0007253 2.6e-05 0)
(0.0007186 2.335e-05 0)
(0.0007125 2.094e-05 0)
(0.000707 1.877e-05 0)
(0.0007021 1.68e-05 0)
(0.0006977 1.504e-05 0)
(0.0006938 1.346e-05 0)
(0.0006902 1.206e-05 0)
(0.0006871 1.082e-05 0)
(0.0006842 9.732e-06 0)
(0.0006816 8.794e-06 0)
(0.0006793 7.999e-06 0)
(0.0006772 7.342e-06 0)
(0.0006754 6.82e-06 0)
(0.0006736 6.429e-06 0)
(0.000672 6.164e-06 0)
(0.0006706 6.015e-06 0)
(0.0006692 5.963e-06 0)
(0.0006679 5.979e-06 0)
(0.0006667 6.013e-06 0)
(0.001208 0.0001096 0)
(0.00123 0.0002694 0)
(0.001259 0.0003686 0)
(0.001281 0.0004174 0)
(0.001293 0.0004306 0)
(0.001292 0.0004208 0)
(0.001282 0.0003974 0)
(0.001263 0.000367 0)
(0.001239 0.0003337 0)
(0.001211 0.0003001 0)
(0.001182 0.0002678 0)
(0.001153 0.0002375 0)
(0.001125 0.0002095 0)
(0.001098 0.0001838 0)
(0.001073 0.0001603 0)
(0.001051 0.0001389 0)
(0.00103 0.0001193 0)
(0.001012 0.0001014 0)
(0.0009971 8.493e-05 0)
(0.0009842 6.965e-05 0)
(0.0009737 5.54e-05 0)
(0.0009656 4.2e-05 0)
(0.0009598 2.928e-05 0)
(0.0009563 1.711e-05 0)
(0.0009551 5.349e-06 0)
(0.0009562 -6.136e-06 0)
(0.0009595 -1.745e-05 0)
(0.0009652 -2.871e-05 0)
(0.0009731 -4e-05 0)
(0.0009834 -5.141e-05 0)
(0.0009961 -6.302e-05 0)
(0.001011 -7.488e-05 0)
(0.001029 -8.707e-05 0)
(0.001049 -9.962e-05 0)
(0.001072 -0.0001126 0)
(0.001098 -0.0001259 0)
(0.001126 -0.0001397 0)
(0.001157 -0.0001538 0)
(0.001192 -0.0001683 0)
(0.001229 -0.0001831 0)
(0.00127 -0.000198 0)
(0.001313 -0.000213 0)
(0.00136 -0.0002279 0)
(0.00141 -0.0002425 0)
(0.001462 -0.0002566 0)
(0.001518 -0.0002699 0)
(0.001576 -0.0002821 0)
(0.001636 -0.0002928 0)
(0.001699 -0.0003018 0)
(0.001763 -0.0003085 0)
(0.001828 -0.0003127 0)
(0.001894 -0.0003138 0)
(0.00196 -0.0003115 0)
(0.002025 -0.0003055 0)
(0.002088 -0.0002953 0)
(0.002149 -0.0002809 0)
(0.002206 -0.0002621 0)
(0.00226 -0.0002388 0)
(0.002307 -0.0002111 0)
(0.002349 -0.0001795 0)
(0.002383 -0.0001442 0)
(0.00241 -0.0001061 0)
(0.002429 -6.591e-05 0)
(0.002438 -2.452e-05 0)
(0.002439 1.706e-05 0)
(0.002431 5.785e-05 0)
(0.002415 9.697e-05 0)
(0.002391 0.0001337 0)
(0.002359 0.0001674 0)
(0.00232 0.0001976 0)
(0.002276 0.0002242 0)
(0.002227 0.0002468 0)
(0.002173 0.0002656 0)
(0.002116 0.0002805 0)
(0.002056 0.0002916 0)
(0.001994 0.0002991 0)
(0.001931 0.0003033 0)
(0.001867 0.0003044 0)
(0.001803 0.0003026 0)
(0.00174 0.0002984 0)
(0.001677 0.0002921 0)
(0.001616 0.0002839 0)
(0.001557 0.0002742 0)
(0.0015 0.0002633 0)
(0.001446 0.0002515 0)
(0.001394 0.000239 0)
(0.001344 0.0002261 0)
(0.001297 0.000213 0)
(0.001253 0.0001999 0)
(0.001211 0.0001869 0)
(0.001173 0.0001741 0)
(0.001136 0.0001618 0)
(0.001103 0.0001499 0)
(0.001071 0.0001384 0)
(0.001043 0.0001276 0)
(0.001016 0.0001173 0)
(0.0009912 0.0001076 0)
(0.0009686 9.847e-05 0)
(0.0009479 8.996e-05 0)
(0.0009289 8.204e-05 0)
(0.0009115 7.468e-05 0)
(0.0008957 6.787e-05 0)
(0.0008813 6.158e-05 0)
(0.0008681 5.579e-05 0)
(0.0008562 5.047e-05 0)
(0.0008454 4.559e-05 0)
(0.0008356 4.113e-05 0)
(0.0008267 3.705e-05 0)
(0.0008187 3.334e-05 0)
(0.0008115 2.996e-05 0)
(0.000805 2.69e-05 0)
(0.0007991 2.413e-05 0)
(0.0007939 2.162e-05 0)
(0.0007891 1.937e-05 0)
(0.0007849 1.734e-05 0)
(0.000781 1.554e-05 0)
(0.0007776 1.394e-05 0)
(0.0007745 1.253e-05 0)
(0.0007718 1.131e-05 0)
(0.0007693 1.027e-05 0)
(0.0007671 9.391e-06 0)
(0.0007651 8.678e-06 0)
(0.0007632 8.121e-06 0)
(0.0007616 7.714e-06 0)
(0.0007601 7.444e-06 0)
(0.0007587 7.294e-06 0)
(0.0007573 7.237e-06 0)
(0.0007561 7.231e-06 0)
(0.001206 9.557e-05 0)
(0.001225 0.0002422 0)
(0.001251 0.0003413 0)
(0.001276 0.0003978 0)
(0.001293 0.0004216 0)
(0.001301 0.0004223 0)
(0.001299 0.0004078 0)
(0.001291 0.0003841 0)
(0.001276 0.0003554 0)
(0.001258 0.0003246 0)
(0.001236 0.0002935 0)
(0.001214 0.0002633 0)
(0.001192 0.0002345 0)
(0.00117 0.0002075 0)
(0.001149 0.0001823 0)
(0.001129 0.0001589 0)
(0.001112 0.0001372 0)
(0.001096 0.0001171 0)
(0.001082 9.829e-05 0)
(0.001071 8.072e-05 0)
(0.001061 6.418e-05 0)
(0.001054 4.851e-05 0)
(0.001049 3.354e-05 0)
(0.001046 1.913e-05 0)
(0.001046 5.117e-06 0)
(0.001047 -8.615e-06 0)
(0.001051 -2.22e-05 0)
(0.001057 -3.574e-05 0)
(0.001066 -4.935e-05 0)
(0.001077 -6.313e-05 0)
(0.00109 -7.716e-05 0)
(0.001106 -9.152e-05 0)
(0.001124 -0.0001063 0)
(0.001145 -0.0001215 0)
(0.001168 -0.0001371 0)
(0.001194 -0.0001533 0)
(0.001224 -0.0001699 0)
(0.001256 -0.000187 0)
(0.001291 -0.0002046 0)
(0.001329 -0.0002224 0)
(0.00137 -0.0002405 0)
(0.001415 -0.0002587 0)
(0.001463 -0.0002767 0)
(0.001514 -0.0002944 0)
(0.001568 -0.0003114 0)
(0.001624 -0.0003275 0)
(0.001684 -0.0003422 0)
(0.001746 -0.0003552 0)
(0.00181 -0.0003661 0)
(0.001876 -0.0003743 0)
(0.001943 -0.0003793 0)
(0.002011 -0.0003808 0)
(0.002079 -0.0003781 0)
(0.002146 -0.0003709 0)
(0.002211 -0.0003587 0)
(0.002274 -0.0003414 0)
(0.002334 -0.0003186 0)
(0.002389 -0.0002904 0)
(0.002439 -0.0002569 0)
(0.002482 -0.0002185 0)
(0.002518 -0.0001757 0)
(0.002546 -0.0001293 0)
(0.002565 -8.032e-05 0)
(0.002575 -2.989e-05 0)
(0.002576 2.075e-05 0)
(0.002568 7.04e-05 0)
(0.00255 0.0001179 0)
(0.002525 0.0001625 0)
(0.002492 0.0002033 0)
(0.002452 0.0002399 0)
(0.002406 0.000272 0)
(0.002355 0.0002995 0)
(0.0023 0.0003221 0)
(0.002241 0.0003402 0)
(0.002179 0.0003536 0)
(0.002115 0.0003628 0)
(0.00205 0.0003679 0)
(0.001985 0.0003692 0)
(0.001919 0.0003672 0)
(0.001854 0.0003622 0)
(0.00179 0.0003546 0)
(0.001727 0.0003447 0)
(0.001667 0.000333 0)
(0.001608 0.0003199 0)
(0.001552 0.0003056 0)
(0.001499 0.0002905 0)
(0.001448 0.000275 0)
(0.0014 0.0002591 0)
(0.001354 0.0002433 0)
(0.001312 0.0002276 0)
(0.001272 0.0002122 0)
(0.001235 0.0001972 0)
(0.0012 0.0001828 0)
(0.001168 0.0001689 0)
(0.001138 0.0001558 0)
(0.001111 0.0001433 0)
(0.001085 0.0001315 0)
(0.001062 0.0001204 0)
(0.001041 0.0001101 0)
(0.001021 0.0001005 0)
(0.001003 9.153e-05 0)
(0.0009866 8.324e-05 0)
(0.0009717 7.558e-05 0)
(0.0009581 6.852e-05 0)
(0.0009457 6.203e-05 0)
(0.0009345 5.607e-05 0)
(0.0009243 5.062e-05 0)
(0.0009151 4.564e-05 0)
(0.0009068 4.11e-05 0)
(0.0008992 3.696e-05 0)
(0.0008925 3.321e-05 0)
(0.0008863 2.98e-05 0)
(0.0008808 2.672e-05 0)
(0.0008759 2.395e-05 0)
(0.0008714 2.146e-05 0)
(0.0008674 1.923e-05 0)
(0.0008639 1.725e-05 0)
(0.0008606 1.551e-05 0)
(0.0008578 1.398e-05 0)
(0.0008552 1.266e-05 0)
(0.0008529 1.155e-05 0)
(0.0008508 1.062e-05 0)
(0.0008489 9.88e-06 0)
(0.0008472 9.312e-06 0)
(0.0008457 8.907e-06 0)
(0.0008442 8.647e-06 0)
(0.0008429 8.508e-06 0)
(0.0008417 8.461e-06 0)
(0.001205 8.434e-05 0)
(0.001221 0.0002186 0)
(0.001245 0.0003149 0)
(0.001269 0.0003754 0)
(0.001289 0.0004067 0)
(0.001303 0.0004158 0)
(0.001309 0.0004092 0)
(0.001309 0.000392 0)
(0.001302 0.0003683 0)
(0.001292 0.000341 0)
(0.001278 0.0003121 0)
(0.001262 0.0002829 0)
(0.001245 0.0002543 0)
(0.001228 0.0002268 0)
(0.001211 0.0002006 0)
(0.001196 0.0001758 0)
(0.001181 0.0001525 0)
(0.001168 0.0001306 0)
(0.001156 0.0001099 0)
(0.001147 9.036e-05 0)
(0.001139 7.178e-05 0)
(0.001133 5.404e-05 0)
(0.001129 3.697e-05 0)
(0.001127 2.044e-05 0)
(0.001127 4.285e-06 0)
(0.001129 -1.162e-05 0)
(0.001134 -2.74e-05 0)
(0.00114 -4.318e-05 0)
(0.001149 -5.909e-05 0)
(0.00116 -7.521e-05 0)
(0.001173 -9.165e-05 0)
(0.001189 -0.0001085 0)
(0.001207 -0.0001258 0)
(0.001228 -0.0001436 0)
(0.001252 -0.000162 0)
(0.001278 -0.000181 0)
(0.001307 -0.0002006 0)
(0.00134 -0.0002207 0)
(0.001375 -0.0002413 0)
(0.001413 -0.0002623 0)
(0.001454 -0.0002835 0)
(0.001499 -0.0003048 0)
(0.001547 -0.000326 0)
(0.001598 -0.0003468 0)
(0.001652 -0.0003668 0)
(0.001709 -0.0003858 0)
(0.001768 -0.0004032 0)
(0.00183 -0.0004185 0)
(0.001895 -0.0004314 0)
(0.001961 -0.0004411 0)
(0.002029 -0.0004472 0)
(0.002097 -0.0004491 0)
(0.002166 -0.0004461 0)
(0.002233 -0.0004378 0)
(0.0023 -0.0004236 0)
(0.002364 -0.0004034 0)
(0.002424 -0.0003767 0)
(0.00248 -0.0003436 0)
(0.002531 -0.0003041 0)
(0.002575 -0.0002588 0)
(0.002612 -0.0002082 0)
(0.002641 -0.0001532 0)
(0.00266 -9.514e-05 0)
(0.00267 -3.531e-05 0)
(0.002671 2.474e-05 0)
(0.002662 8.352e-05 0)
(0.002645 0.0001397 0)
(0.002618 0.0001922 0)
(0.002585 0.0002403 0)
(0.002544 0.0002833 0)
(0.002498 0.000321 0)
(0.002446 0.0003532 0)
(0.00239 0.0003798 0)
(0.00233 0.000401 0)
(0.002268 0.0004168 0)
(0.002204 0.0004276 0)
(0.002138 0.0004336 0)
(0.002072 0.0004352 0)
(0.002006 0.0004329 0)
(0.001941 0.000427 0)
(0.001877 0.000418 0)
(0.001814 0.0004065 0)
(0.001753 0.0003927 0)
(0.001694 0.0003773 0)
(0.001638 0.0003606 0)