/*--------------------------------*- C++ -*----------------------------------*\
  =========                 |
  \\      /  F ield         | OpenFOAM: The Open Source CFD Toolbox
   \\    /   O peration     | Website:  https://openfoam.org
    \\  /    A nd           | Version:  7
     \\/     M anipulation  |
\*---------------------------------------------------------------------------*/
FoamFile
{
    version     2.0;
    format      ascii;
    class       volScalarField;
    location    "959.999473410657174";
    object      Y.K;
}
// * * * * * * * * * * * * * * * * * * * * * * * * * * * * * * * * * * * * * //

dimensions      [0 0 0 0 0 0 0];

internalField   nonuniform List<scalar> 
4096
(
4.777e-70
4.263e-68
-1.48e-68
2.069e-68
-7.018e-69
-1.641e-68
7.184e-69
5.49e-69
-3.328e-69
1.545e-69
-2.836e-68
3.566e-67
-5.13e-66
7.477e-65
-9.884e-64
1.301e-62
-1.659e-61
2.113e-60
-2.644e-59
3.29e-58
-3.949e-57
4.683e-56
-5.536e-55
6.327e-54
-6.874e-53
7.295e-52
-7.31e-51
7.375e-50
-7.247e-49
6.994e-48
-6.607e-47
6.119e-46
-5.43e-45
4.728e-44
-3.963e-43
3.249e-42
-2.535e-41
1.865e-40
-1.316e-39
8.969e-39
-5.738e-38
3.472e-37
-1.984e-36
1.073e-35
-5.499e-35
2.638e-34
-1.214e-33
5.305e-33
-2.211e-32
8.789e-32
-2.843e-31
1.126e-30
-6.543e-31
1.133e-29
5.901e-29
6.704e-28
2.814e-27
3.521e-26
5.788e-26
6.054e-25
2.225e-24
2.042e-23
6.828e-23
2.159e-22
1.523e-21
7.018e-21
9.277e-20
1.299e-18
3.887e-18
8.615e-18
1.695e-17
3.126e-17
5.521e-17
9.432e-17
1.566e-16
2.536e-16
4.012e-16
6.212e-16
9.424e-16
1.403e-15
2.05e-15
2.945e-15
4.163e-15
5.794e-15
7.95e-15
1.076e-14
1.438e-14
1.899e-14
2.48e-14
3.204e-14
4.1e-14
5.199e-14
6.536e-14
8.151e-14
1.009e-13
1.24e-13
1.515e-13
1.839e-13
2.221e-13
2.667e-13
3.186e-13
3.79e-13
4.488e-13
5.294e-13
6.221e-13
7.283e-13
8.498e-13
9.884e-13
1.146e-12
1.325e-12
1.528e-12
1.758e-12
2.017e-12
2.309e-12
2.637e-12
3.005e-12
3.418e-12
3.88e-12
4.395e-12
4.97e-12
5.61e-12
6.321e-12
7.106e-12
7.969e-12
8.905e-12
9.89e-12
1.085e-11
1.161e-11
-1.419e-67
7.493e-67
-9.676e-67
1.496e-67
6.936e-67
-6.215e-67
1.366e-68
3.738e-67
-8.536e-68
3.851e-68
-1.669e-66
1.868e-65
-2.847e-64
3.945e-63
-5.214e-62
6.749e-61
-8.628e-60
1.089e-58
-1.369e-57
1.683e-56
-2.054e-55
2.443e-54
-2.842e-53
3.217e-52
-3.534e-51
3.731e-50
-3.761e-49
3.743e-48
-3.671e-47
3.538e-46
-3.338e-45
3.074e-44
-2.753e-43
2.391e-42
-2.005e-41
1.618e-40
-1.253e-39
9.277e-39
-6.546e-38
4.391e-37
-2.792e-36
1.681e-35
-9.556e-35
5.138e-34
-2.613e-33
1.26e-32
-5.766e-32
2.509e-31
-1.027e-30
4.08e-30
-1.29e-29
5.403e-29
6.103e-31
5.01e-28
3.765e-27
2.994e-26
1.941e-25
1.672e-24
3.628e-24
2.915e-23
1.199e-22
9.204e-22
3.11e-21
9.475e-21
5.754e-20
2.092e-19
1.302e-18
3.753e-18
8.298e-18
1.64e-17
3.034e-17
5.366e-17
9.156e-17
1.516e-16
2.445e-16
3.847e-16
5.921e-16
8.925e-16
1.32e-15
1.916e-15
2.736e-15
3.844e-15
5.322e-15
7.266e-15
9.793e-15
1.304e-14
1.716e-14
2.235e-14
2.882e-14
3.682e-14
4.664e-14
5.858e-14
7.304e-14
9.041e-14
1.112e-13
1.358e-13
1.65e-13
1.994e-13
2.396e-13
2.867e-13
3.414e-13
4.048e-13
4.78e-13
5.624e-13
6.593e-13
7.704e-13
8.972e-13
1.042e-12
1.206e-12
1.393e-12
1.604e-12
1.843e-12
2.113e-12
2.416e-12
2.757e-12
3.14e-12
3.568e-12
4.048e-12
4.583e-12
5.179e-12
5.843e-12
6.58e-12
7.397e-12
8.298e-12
9.284e-12
1.035e-11
1.146e-11
1.25e-11
3.178e-66
-2.216e-65
5.598e-65
-7.612e-65
5.433e-65
-9.228e-66
-1.966e-65
1.809e-65
2.702e-66
-1.775e-67
-9.09e-65
9.318e-64
-1.42e-62
1.935e-61
-2.512e-60
3.209e-59
-4.063e-58
5.098e-57
-6.395e-56
7.839e-55
-9.564e-54
1.135e-52
-1.317e-51
1.487e-50
-1.629e-49
1.715e-48
-1.732e-47
1.726e-46
-1.693e-45
1.63e-44
-1.536e-43
1.413e-42
-1.263e-41
1.094e-40
-9.152e-40
7.368e-39
-5.689e-38
4.199e-37
-2.954e-36
1.975e-35
-1.252e-34
7.514e-34
-4.251e-33
2.274e-32
-1.15e-31
5.509e-31
-2.504e-30
1.083e-29
-4.41e-29
1.768e-28
-5.388e-28
2.445e-27
1.979e-27
2.856e-26
2.359e-25
1.775e-24
1.211e-23
7.49e-23
2.254e-22
1.438e-21
6.288e-21
3.969e-20
1.314e-19
3.757e-19
1.782e-18
4.99e-18
1.101e-17
2.197e-17
4.119e-17
7.37e-17
1.269e-16
2.11e-16
3.404e-16
5.338e-16
8.154e-16
1.216e-15
1.773e-15
2.534e-15
3.552e-15
4.895e-15
6.638e-15
8.872e-15
1.17e-14
1.525e-14
1.965e-14
2.508e-14
3.172e-14
3.979e-14
4.953e-14
6.123e-14
7.523e-14
9.188e-14
1.116e-13
1.349e-13
1.623e-13
1.944e-13
2.319e-13
2.756e-13
3.263e-13
3.85e-13
4.528e-13
5.309e-13
6.205e-13
7.232e-13
8.406e-13
9.745e-13
1.127e-12
1.3e-12
1.496e-12
1.719e-12
1.969e-12
2.252e-12
2.57e-12
2.928e-12
3.329e-12
3.778e-12
4.28e-12
4.84e-12
5.465e-12
6.16e-12
6.932e-12
7.788e-12
8.736e-12
9.783e-12
1.093e-11
1.22e-11
1.357e-11
1.51e-11
-5.205e-65
4.141e-64
-1.467e-63
3.21e-63
-4.612e-63
4.416e-63
-2.605e-63
5.645e-64
3.586e-64
-4.724e-65
-4.655e-63
4.169e-62
-6.354e-61
8.395e-60
-1.055e-58
1.316e-57
-1.64e-56
2.04e-55
-2.555e-54
3.12e-53
-3.819e-52
4.528e-51
-5.248e-50
5.915e-49
-6.467e-48
6.803e-47
-6.899e-46
6.887e-45
-6.763e-44
6.517e-43
-6.143e-42
5.647e-41
-5.044e-40
4.365e-39
-3.647e-38
2.932e-37
-2.261e-36
1.667e-35
-1.171e-34
7.818e-34
-4.946e-33
2.965e-32
-1.671e-31
8.906e-31
-4.479e-30
2.132e-29
-9.616e-29
4.133e-28
-1.672e-27
6.833e-27
-1.925e-26
1.001e-25
2.296e-25
1.6e-24
1.359e-23
9.561e-23
6.82e-22
3.686e-21
1.21e-20
6.639e-20
2.797e-19
1.352e-18
4.133e-18
9.975e-18
2.172e-17
4.421e-17
8.525e-17
1.568e-16
2.765e-16
4.686e-16
7.657e-16
1.21e-15
1.852e-15
2.753e-15
3.984e-15
5.625e-15
7.763e-15
1.049e-14
1.392e-14
1.815e-14
2.33e-14
2.951e-14
3.693e-14
4.571e-14
5.605e-14
6.817e-14
8.231e-14
9.875e-14
1.178e-13
1.399e-13
1.655e-13
1.95e-13
2.291e-13
2.683e-13
3.134e-13
3.653e-13
4.248e-13
4.929e-13
5.71e-13
6.602e-13
7.621e-13
8.781e-13
1.01e-12
1.16e-12
1.331e-12
1.524e-12
1.742e-12
1.988e-12
2.266e-12
2.579e-12
2.931e-12
3.325e-12
3.768e-12
4.263e-12
4.816e-12
5.433e-12
6.121e-12
6.886e-12
7.736e-12
8.678e-12
9.722e-12
1.088e-11
1.215e-11
1.355e-11
1.509e-11
1.679e-11
1.866e-11
2.099e-11
7.358e-64
-6.356e-63
2.787e-62
-8.155e-62
1.682e-61
-2.54e-61
2.837e-61
-2.281e-61
1.188e-61
-2.145e-62
-2.013e-61
1.607e-60
-2.453e-59
3.056e-58
-3.606e-57
4.303e-56
-5.229e-55
6.443e-54
-8.123e-53
9.928e-52
-1.234e-50
1.469e-49
-1.709e-48
1.93e-47
-2.113e-46
2.229e-45
-2.278e-44
2.285e-43
-2.251e-42
2.175e-41
-2.054e-40
1.891e-39
-1.691e-38
1.465e-37
-1.225e-36
9.856e-36
-7.607e-35
5.613e-34
-3.948e-33
2.639e-32
-1.671e-31
1.004e-30
-5.642e-30
3.002e-29
-1.503e-28
7.107e-28
-3.177e-27
1.354e-26
-5.407e-26
2.286e-25
-5.228e-25
3.409e-24
1.696e-23
9.654e-23
7.976e-22
5.233e-21
3.568e-20
1.593e-19
5.424e-19
2.473e-18
7.947e-18
2.045e-17
4.755e-17
1.032e-16
2.11e-16
4.091e-16
7.545e-16
1.328e-15
2.236e-15
3.614e-15
5.62e-15
8.433e-15
1.224e-14
1.723e-14
2.36e-14
3.149e-14
4.106e-14
5.243e-14
6.572e-14
8.101e-14
9.841e-14
1.18e-13
1.401e-13
1.646e-13
1.92e-13
2.225e-13
2.565e-13
2.943e-13
3.366e-13
3.839e-13
4.369e-13
4.965e-13
5.634e-13
6.389e-13
7.24e-13
8.2e-13
9.285e-13
1.051e-12
1.189e-12
1.346e-12
1.522e-12
1.722e-12
1.946e-12
2.2e-12
2.485e-12
2.806e-12
3.166e-12
3.57e-12
4.024e-12
4.532e-12
5.099e-12
5.734e-12
6.441e-12
7.23e-12
8.106e-12
9.081e-12
1.016e-11
1.136e-11
1.269e-11
1.415e-11
1.576e-11
1.754e-11
1.95e-11
2.164e-11
2.399e-11
2.656e-11
2.939e-11
3.319e-11
-9.537e-63
8.692e-62
-4.42e-61
1.59e-60
-4.225e-60
8.59e-60
-1.363e-59
1.689e-59
-1.595e-59
1.103e-59
-1.045e-59
4.918e-59
-7.376e-58
8.022e-57
-8.106e-56
8.688e-55
-1.011e-53
1.263e-52
-1.697e-51
2.142e-50
-2.859e-49
3.502e-48
-4.171e-47
4.787e-46
-5.301e-45
5.658e-44
-5.878e-43
5.952e-42
-5.9e-41
5.735e-40
-5.445e-39
5.038e-38
-4.524e-37
3.938e-36
-3.309e-35
2.675e-34
-2.075e-33
1.539e-32
-1.089e-31
7.323e-31
-4.668e-30
2.826e-29
-1.587e-28
8.459e-28
-4.221e-27
1.988e-26
-8.793e-26
3.707e-25
-1.434e-24
6.425e-24
-3.458e-24
1.404e-22
8.993e-22
5.755e-21
4.317e-20
2.469e-19
1.37e-18
5.106e-18
1.539e-17
4.186e-17
1.057e-16
2.498e-16
5.545e-16
1.16e-15
2.289e-15
4.274e-15
7.571e-15
1.276e-14
2.051e-14
3.157e-14
4.663e-14
6.633e-14
9.113e-14
1.213e-13
1.568e-13
1.974e-13
2.429e-13
2.925e-13
3.46e-13
4.027e-13
4.623e-13
5.247e-13
5.9e-13
6.583e-13
7.3e-13
8.059e-13
8.866e-13
9.732e-13
1.067e-12
1.169e-12
1.28e-12
1.403e-12
1.539e-12
1.69e-12
1.858e-12
2.046e-12
2.256e-12
2.491e-12
2.755e-12
3.05e-12
3.382e-12
3.753e-12
4.17e-12
4.636e-12
5.158e-12
5.742e-12
6.395e-12
7.124e-12
7.937e-12
8.844e-12
9.853e-12
1.097e-11
1.222e-11
1.36e-11
1.513e-11
1.683e-11
1.87e-11
2.077e-11
2.305e-11
2.555e-11
2.831e-11
3.133e-11
3.463e-11
3.825e-11
4.219e-11
4.648e-11
5.117e-11
5.777e-11
1.166e-61
-1.101e-60
6.237e-60
-2.624e-59
8.469e-59
-2.16e-58
4.44e-58
-7.4e-58
9.872e-58
-1.003e-57
5.457e-58
7.519e-58
-1.036e-56
3.838e-56
4.634e-55
-1.085e-53
1.295e-52
-9.979e-52
1.178e-52
8.803e-50
-2.897e-48
4.47e-47
-6.137e-46
7.637e-45
-8.906e-44
9.906e-43
-1.071e-41
1.111e-40
-1.113e-39
1.096e-38
-1.053e-37
9.865e-37
-8.956e-36
7.896e-35
-6.719e-34
5.506e-33
-4.329e-32
3.258e-31
-2.342e-30
1.6e-29
-1.038e-28
6.425e-28
-3.597e-27
1.939e-26
-9.652e-26
4.56e-25
-1.995e-24
8.36e-24
-2.985e-23
1.486e-22
4.639e-22
5.505e-21
4.043e-20
2.749e-19
1.708e-18
7.124e-18
2.428e-17
7.472e-17
2.128e-16
5.641e-16
1.395e-15
3.225e-15
6.98e-15
1.417e-14
2.702e-14
4.857e-14
8.248e-14
1.328e-13
2.034e-13
2.974e-13
4.165e-13
5.606e-13
7.276e-13
9.138e-13
1.114e-12
1.322e-12
1.532e-12
1.739e-12
1.939e-12
2.129e-12
2.31e-12
2.48e-12
2.643e-12
2.799e-12
2.952e-12
3.105e-12
3.262e-12
3.426e-12
3.601e-12
3.79e-12
3.997e-12
4.227e-12
4.483e-12
4.769e-12
5.09e-12
5.451e-12
5.856e-12
6.311e-12
6.821e-12
7.394e-12
8.036e-12
8.755e-12
9.56e-12
1.046e-11
1.146e-11
1.258e-11
1.383e-11
1.522e-11
1.677e-11
1.849e-11
2.039e-11
2.25e-11
2.483e-11
2.742e-11
3.027e-11
3.341e-11
3.687e-11
4.067e-11
4.485e-11
4.943e-11
5.444e-11
5.991e-11
6.589e-11
7.24e-11
7.947e-11
8.714e-11
9.543e-11
1.075e-10
-1.363e-60
1.317e-59
-8.088e-59
3.848e-58
-1.452e-57
4.454e-57
-1.13e-56
2.386e-56
-4.17e-56
5.854e-56
-6.427e-56
-1.81e-56
5.937e-55
-1.149e-53
1.574e-52
-1.919e-51
2.07e-50
-2.016e-49
1.742e-48
-1.508e-47
9.626e-47
-4.998e-46
7.068e-46
2.994e-44
-6.021e-43
8.368e-42
-1e-40
1.105e-39
-1.171e-38
1.206e-37
-1.203e-36
1.169e-35
-1.093e-34
1.005e-33
-8.877e-33
7.559e-32
-6.164e-31
4.81e-30
-3.592e-29
2.54e-28
-1.72e-27
1.113e-26
-6.28e-26
3.513e-25
-1.725e-24
8.363e-24
-3.628e-23
1.579e-22
-3.859e-22
2.922e-21
2.633e-20
2.27e-19
1.634e-18
7.79e-18
3.062e-17
1.089e-16
3.574e-16
1.087e-15
3.065e-15
8.022e-15
1.951e-14
4.411e-14
9.292e-14
1.826e-13
3.358e-13
5.793e-13
9.409e-13
1.444e-12
2.102e-12
2.914e-12
3.86e-12
4.907e-12
6.008e-12
7.111e-12
8.163e-12
9.114e-12
9.952e-12
1.064e-11
1.117e-11
1.158e-11
1.188e-11
1.208e-11
1.22e-11
1.228e-11
1.233e-11
1.237e-11
1.242e-11
1.249e-11
1.26e-11
1.275e-11
1.296e-11
1.324e-11
1.359e-11
1.402e-11
1.454e-11
1.515e-11
1.587e-11
1.67e-11
1.765e-11
1.874e-11
1.998e-11
2.137e-11
2.295e-11
2.471e-11
2.669e-11
2.89e-11
3.136e-11
3.41e-11
3.714e-11
4.052e-11
4.425e-11
4.838e-11
5.293e-11
5.796e-11
6.349e-11
6.956e-11
7.623e-11
8.355e-11
9.155e-11
1.003e-10
1.098e-10
1.202e-10
1.315e-10
1.438e-10
1.571e-10
1.714e-10
1.868e-10
2.097e-10
1.524e-59
-1.497e-58
9.781e-58
-5.14e-57
2.208e-56
-7.914e-56
2.401e-55
-6.211e-55
1.363e-54
-2.478e-54
3.508e-54
-9.372e-54
5.923e-53
-7.458e-52
8.926e-51
-9.72e-50
9.789e-49
-9.206e-48
8.127e-47
-6.76e-46
5.311e-45
-3.942e-44
2.758e-43
-1.805e-42
1.082e-41
-5.608e-41
2.349e-40
-2.251e-40
-1.046e-38
2.133e-37
-2.874e-36
3.43e-35
-3.591e-34
3.917e-33
-3.899e-32
3.699e-31
-3.226e-30
2.653e-29
-2.078e-28
1.505e-27
-1.069e-26
7.077e-26
-4.378e-25
2.619e-24
-1.47e-23
8.032e-23
-3.748e-22
2.466e-21
1.88e-21
1.144e-19
1.095e-18
6.171e-18
2.86e-17
1.198e-16
4.617e-16
1.642e-15
5.391e-15
1.634e-14
4.569e-14
1.18e-13
2.815e-13
6.214e-13
1.271e-12
2.412e-12
4.263e-12
7.038e-12
1.09e-11
1.59e-11
2.194e-11
2.878e-11
3.599e-11
4.317e-11
4.977e-11
5.546e-11
5.985e-11
6.279e-11
6.471e-11
6.491e-11
6.438e-11
6.314e-11
6.131e-11
5.91e-11
5.671e-11
5.428e-11
5.194e-11
4.978e-11
4.783e-11
4.615e-11
4.475e-11
4.364e-11
4.282e-11
4.23e-11
4.207e-11
4.218e-11
4.253e-11
4.316e-11
4.412e-11
4.539e-11
4.697e-11
4.889e-11
5.115e-11
5.379e-11
5.682e-11
6.027e-11
6.417e-11
6.856e-11
7.348e-11
7.897e-11
8.508e-11
9.186e-11
9.936e-11
1.076e-10
1.168e-10
1.268e-10
1.379e-10
1.5e-10
1.632e-10
1.777e-10
1.936e-10
2.108e-10
2.296e-10
2.499e-10
2.72e-10
2.959e-10
3.217e-10
3.496e-10
3.79e-10
4.238e-10
-1.627e-58
1.614e-57
-1.107e-56
6.316e-56
-3.03e-55
1.243e-54
-4.414e-54
1.367e-53
-3.681e-53
8.388e-53
-1.456e-52
-1.754e-52
2.814e-51
-3.009e-50
3.176e-49
-3.217e-48
3.073e-47
-2.765e-46
2.35e-45
-1.892e-44
1.449e-43
-1.058e-42
7.386e-42
-4.951e-41
3.226e-40
-2.024e-39
1.5e-38
-1.028e-37
8.312e-37
-6.821e-36
5.807e-35
-4.854e-34
4.172e-33
-3.306e-32
2.522e-31
-1.911e-30
1.371e-29
-9.325e-29
5.698e-28
-4.345e-27
1.911e-26
-1.015e-25
3.075e-25
-6.376e-25
-4.044e-24
1.058e-22
1.358e-22
3.751e-20
3.407e-19
3.041e-18
1.835e-17
9.286e-17
4.269e-16
1.805e-15
7.022e-15
2.511e-14
8.248e-14
2.488e-13
6.887e-13
1.751e-12
4.09e-12
8.787e-12
1.739e-11
3.179e-11
5.382e-11
8.477e-11
1.248e-10
1.726e-10
2.253e-10
2.789e-10
3.287e-10
3.717e-10
4.023e-10
4.22e-10
4.264e-10
4.212e-10
4.084e-10
3.887e-10
3.645e-10
3.379e-10
3.108e-10
2.844e-10
2.596e-10
2.369e-10
2.165e-10
1.986e-10
1.831e-10
1.699e-10
1.587e-10
1.494e-10
1.419e-10
1.358e-10
1.312e-10
1.278e-10
1.256e-10
1.243e-10
1.245e-10
1.253e-10
1.27e-10
1.298e-10
1.334e-10
1.38e-10
1.435e-10
1.5e-10
1.576e-10
1.663e-10
1.761e-10
1.872e-10
1.995e-10
2.133e-10
2.286e-10
2.455e-10
2.642e-10
2.847e-10
3.072e-10
3.318e-10
3.587e-10
3.881e-10
4.201e-10
4.549e-10
4.927e-10
5.336e-10
5.778e-10
6.255e-10
6.768e-10
7.321e-10
7.902e-10
8.796e-10
1.64e-57
-1.636e-56
1.167e-55
-7.132e-55
3.764e-54
-1.739e-53
7.111e-53
-2.595e-52
8.471e-52
-2.469e-51
6.451e-51
-1.968e-50
9.359e-50
-8.376e-49
8.821e-48
-8.831e-47
8.15e-46
-7.037e-45
5.737e-44
-4.44e-43
3.27e-42
-2.293e-41
1.526e-40
-9.588e-40
5.601e-39
-2.85e-38
1.875e-37
-5.637e-37
2.413e-36
1.103e-36
-8.763e-35
1.567e-33
-8.051e-33
4.372e-32
-1.213e-31
-1.151e-30
2.602e-29
-3.21e-28
3.191e-27
-2.77e-26
2.21e-25
-1.615e-24
1.085e-23
-6.998e-23
4.695e-22
-1.299e-21
9.029e-20
1.108e-18
7.983e-18
4.834e-17
2.666e-16
1.353e-15
6.318e-15
2.707e-14
1.062e-13
3.815e-13
1.252e-12
3.75e-12
1.025e-11
2.56e-11
5.838e-11
1.217e-10
2.325e-10
4.077e-10
6.586e-10
9.863e-10
1.376e-09
1.798e-09
2.216e-09
2.585e-09
2.866e-09
3.054e-09
3.083e-09
3.03e-09
2.902e-09
2.71e-09
2.477e-09
2.227e-09
1.976e-09
1.737e-09
1.517e-09
1.321e-09
1.15e-09
1.003e-09
8.789e-10
7.741e-10
6.867e-10
6.142e-10
5.544e-10
5.053e-10
4.652e-10
4.327e-10
4.067e-10
3.863e-10
3.707e-10
3.591e-10
3.514e-10
3.465e-10
3.456e-10
3.47e-10
3.509e-10
3.574e-10
3.665e-10
3.781e-10
3.922e-10
4.089e-10
4.282e-10
4.504e-10
4.754e-10
5.035e-10
5.349e-10
5.697e-10
6.081e-10
6.505e-10
6.969e-10
7.478e-10
8.033e-10
8.639e-10
9.297e-10
1.001e-09
1.078e-09
1.162e-09
1.252e-09
1.349e-09
1.453e-09
1.565e-09
1.682e-09
1.863e-09
-1.536e-56
1.534e-55
-1.129e-54
7.313e-54
-4.194e-53
2.154e-52
-1e-51
4.229e-51
-1.632e-50
5.669e-50
-1.681e-49
1.115e-49
2.044e-48
-2.634e-47
2.601e-46
-2.364e-45
2.007e-44
-1.625e-43
1.262e-42
-9.414e-42
6.763e-41
-4.686e-40
3.138e-39
-2.035e-38
1.27e-37
-7.933e-37
5.039e-36
-2.926e-35
2.292e-34
-9.876e-34
4.38e-33
-1.183e-32
-5.573e-32
1.393e-30
-1.664e-29
1.604e-28
-1.377e-27
1.089e-26
-8.065e-26
5.665e-25
-3.719e-24
2.367e-23
-1.415e-22
8.617e-22
-3.001e-21
1.5e-19
2.012e-18
1.591e-17
1.069e-16
6.564e-16
3.706e-15
1.922e-14
9.124e-14
3.958e-13
1.565e-12
5.631e-12
1.842e-11
5.468e-11
1.473e-10
3.602e-10
7.994e-10
1.612e-09
2.959e-09
4.955e-09
7.61e-09
1.079e-08
1.422e-08
1.752e-08
2.038e-08
2.231e-08
2.326e-08
2.297e-08
2.203e-08
2.047e-08
1.847e-08
1.628e-08
1.407e-08
1.198e-08
1.008e-08
8.428e-09
7.017e-09
5.837e-09
4.865e-09
4.071e-09
3.428e-09
2.909e-09
2.491e-09
2.155e-09
1.885e-09
1.669e-09
1.494e-09
1.354e-09
1.242e-09
1.153e-09
1.083e-09
1.028e-09
9.871e-10
9.57e-10
9.376e-10
9.243e-10
9.244e-10
9.287e-10
9.396e-10
9.573e-10
9.816e-10
1.012e-09
1.049e-09
1.093e-09
1.143e-09
1.2e-09
1.265e-09
1.337e-09
1.416e-09
1.504e-09
1.601e-09
1.707e-09
1.823e-09
1.949e-09
2.086e-09
2.234e-09
2.394e-09
2.567e-09
2.753e-09
2.953e-09
3.167e-09
3.397e-09
3.634e-09
4.007e-09
1.302e-55
-1.297e-54
9.771e-54
-6.65e-53
4.102e-52
-2.315e-51
1.206e-50
-5.865e-50
2.689e-49
-1.181e-48
5.124e-48
-2.321e-47
1.263e-46
-7.646e-46
5.48e-45
-4.438e-44
3.555e-43
-2.764e-42
2.067e-41
-1.486e-40
1.027e-39
-6.838e-39
4.4e-38
-2.755e-37
1.681e-36
-1.122e-35
7.22e-35
-4.881e-34
3.446e-33
-2.497e-32
1.84e-31
-1.364e-30
1.007e-29
-7.349e-29
5.263e-28
-3.682e-27
2.507e-26
-1.657e-25
1.061e-24
-6.528e-24
3.978e-23
-2.225e-22
1.305e-21
-5.019e-21
2.072e-19
3.052e-18
2.654e-17
1.983e-16
1.357e-15
8.547e-15
4.941e-14
2.612e-13
1.259e-12
5.518e-12
2.193e-11
7.888e-11
2.564e-10
7.524e-10
1.991e-09
4.751e-09
1.022e-08
1.985e-08
3.485e-08
5.55e-08
8.065e-08
1.079e-07
1.339e-07
1.557e-07
1.708e-07
1.732e-07
1.69e-07
1.588e-07
1.437e-07
1.26e-07
1.074e-07
8.963e-08
7.349e-08
5.948e-08
4.772e-08
3.808e-08
3.034e-08
2.421e-08
1.939e-08
1.563e-08
1.271e-08
1.043e-08
8.656e-09
7.272e-09
6.188e-09
5.336e-09
4.664e-09
4.131e-09
3.709e-09
3.374e-09
3.109e-09
2.9e-09
2.738e-09
2.614e-09
2.522e-09
2.457e-09
2.418e-09
2.398e-09
2.403e-09
2.422e-09
2.457e-09
2.509e-09
2.577e-09
2.661e-09
2.76e-09
2.875e-09
3.007e-09
3.155e-09
3.32e-09
3.504e-09
3.706e-09
3.928e-09
4.17e-09
4.434e-09
4.721e-09
5.031e-09
5.367e-09
5.728e-09
6.116e-09
6.531e-09
6.976e-09
7.452e-09
7.941e-09
8.714e-09
-9.574e-55
9.478e-54
-7.269e-53
5.151e-52
-3.378e-51
2.064e-50
-1.183e-49
6.396e-49
-3.266e-48
1.563e-47
-6.802e-47
2.491e-46
-2.216e-47
-5.601e-45
6.692e-44
-6.627e-43
5.655e-42
-4.408e-41
3.227e-40
-2.245e-39
1.491e-38
-9.433e-38
5.64e-37
-3.131e-36
1.482e-35
-1.123e-34
2.806e-34
-7.16e-35
-9.448e-33
1.268e-31
-1.24e-30
1.061e-29
-8.383e-29
6.257e-28
-4.462e-27
3.058e-26
-2.02e-25
1.289e-24
-7.935e-24
4.78e-23
-2.606e-22
1.588e-21
-6.375e-21
2.344e-19
3.793e-18
3.632e-17
3.016e-16
2.303e-15
1.62e-14
1.047e-13
6.182e-13
3.324e-12
1.622e-11
7.16e-11
2.851e-10
1.022e-09
3.29e-09
9.504e-09
2.46e-08
5.701e-08
1.183e-07
2.2e-07
3.676e-07
5.54e-07
7.585e-07
9.546e-07
1.114e-06
1.233e-06
1.23e-06
1.188e-06
1.098e-06
9.743e-07
8.337e-07
6.921e-07
5.604e-07
4.448e-07
3.478e-07
2.69e-07
2.066e-07
1.583e-07
1.213e-07
9.328e-08
7.217e-08
5.63e-08
4.438e-08
3.539e-08
2.859e-08
2.342e-08
1.946e-08
1.641e-08
1.405e-08
1.22e-08
1.076e-08
9.618e-09
8.72e-09
8.012e-09
7.455e-09
7.022e-09
6.69e-09
6.443e-09
6.266e-09
6.154e-09
6.084e-09
6.088e-09
6.124e-09
6.199e-09
6.314e-09
6.468e-09
6.66e-09
6.889e-09
7.155e-09
7.459e-09
7.802e-09
8.184e-09
8.608e-09
9.074e-09
9.583e-09
1.014e-08
1.074e-08
1.14e-08
1.21e-08
1.286e-08
1.367e-08
1.454e-08
1.547e-08
1.646e-08
1.748e-08
1.909e-08
5.817e-54
-5.68e-53
4.403e-52
-3.226e-51
2.233e-50
-1.47e-49
9.292e-49
-5.709e-48
3.464e-47
-2.112e-46
1.314e-45
-8.449e-45
5.612e-44
-3.658e-43
2.528e-42
-1.756e-41
1.216e-40
-8.347e-40
5.665e-39
-3.798e-38
2.514e-37
-1.644e-36
1.065e-35
-6.847e-35
4.379e-34
-2.804e-33
1.802e-32
-1.153e-31
7.364e-31
-4.689e-30
2.97e-29
-1.869e-28
1.165e-27
-7.184e-27
4.372e-26
-2.62e-25
1.542e-24
-8.901e-24
5.044e-23
-2.718e-22
1.683e-21
-6.221e-21
2.138e-19
3.805e-18
4.008e-17
3.696e-16
3.146e-15
2.472e-14
1.786e-13
1.18e-12
7.094e-12
3.866e-11
1.903e-10
8.422e-10
3.345e-09
1.188e-08
3.77e-08
1.066e-07
2.681e-07
5.997e-07
1.192e-06
2.11e-06
3.337e-06
4.74e-06
6.089e-06
7.206e-06
8.036e-06
8.003e-06
7.685e-06
7.037e-06
6.159e-06
5.182e-06
4.216e-06
3.336e-06
2.581e-06
1.962e-06
1.472e-06
1.095e-06
8.103e-07
5.993e-07
4.443e-07
3.312e-07
2.489e-07
1.889e-07
1.451e-07
1.13e-07
8.924e-08
7.157e-08
5.832e-08
4.828e-08
4.062e-08
3.472e-08
3.015e-08
2.658e-08
2.378e-08
2.158e-08
1.984e-08
1.848e-08
1.743e-08
1.661e-08
1.601e-08
1.558e-08
1.53e-08
1.512e-08
1.513e-08
1.52e-08
1.538e-08
1.565e-08
1.6e-08
1.645e-08
1.698e-08
1.761e-08
1.831e-08
1.911e-08
1.999e-08
2.097e-08
2.204e-08
2.322e-08
2.449e-08
2.586e-08
2.735e-08
2.895e-08
3.066e-08
3.249e-08
3.444e-08
3.652e-08
3.863e-08
4.201e-08
-2.446e-53
2.412e-52
-1.89e-51
1.408e-50
-9.945e-50
6.634e-49
-4.154e-48
2.413e-47
-1.271e-46
5.736e-46
-1.855e-45
-2.793e-45
9.374e-44
-1.107e-42
1.003e-41
-8.075e-41
6.035e-40
-4.279e-39
2.909e-38
-1.906e-37
1.207e-36
-7.367e-36
4.313e-35
-2.39e-34
1.242e-33
-5.983e-33
2.622e-32
-8.953e-32
8.689e-32
2.279e-30
-3.086e-29
2.875e-28
-2.312e-27
1.708e-26
-1.19e-25
7.92e-25
-5.069e-24
3.137e-23
-1.861e-22
1.141e-21
-3.501e-21
1.536e-19
3.035e-18
3.522e-17
3.6e-16
3.407e-15
2.985e-14
2.408e-13
1.779e-12
1.197e-11
7.294e-11
4.008e-10
1.978e-09
8.725e-09
3.431e-08
1.199e-07
3.717e-07
1.019e-06
2.47e-06
5.278e-06
9.963e-06
1.667e-05
2.486e-05
3.317e-05
3.988e-05
4.548e-05
4.544e-05
4.374e-05
4e-05
3.485e-05
2.908e-05
2.34e-05
1.826e-05
1.389e-05
1.036e-05
7.599e-06
5.514e-06
3.973e-06
2.855e-06
2.053e-06
1.482e-06
1.078e-06
7.91e-07
5.874e-07
4.421e-07
3.377e-07
2.621e-07
2.068e-07
1.659e-07
1.354e-07
1.124e-07
9.488e-08
8.142e-08
7.099e-08
6.285e-08
5.647e-08
5.146e-08
4.751e-08
4.442e-08
4.201e-08
4.018e-08
3.881e-08
3.784e-08
3.723e-08
3.686e-08
3.689e-08
3.71e-08
3.753e-08
3.818e-08
3.904e-08
4.01e-08
4.135e-08
4.281e-08
4.446e-08
4.631e-08
4.836e-08
5.062e-08
5.309e-08
5.577e-08
5.868e-08
6.181e-08
6.518e-08
6.878e-08
7.263e-08
7.673e-08
8.11e-08
8.553e-08
9.261e-08
1.179e-52
-1.025e-51
7.71e-51
-6.015e-50
4.777e-49
-3.802e-48
2.991e-47
-2.307e-46
1.737e-45
-1.275e-44
9.14e-44
-6.413e-43
4.415e-42
-2.991e-41
1.999e-40
-1.32e-39
8.635e-39
-5.6e-38
3.605e-37
-2.306e-36
1.467e-35
-9.276e-35
5.835e-34
-3.65e-33
2.27e-32
-1.403e-31
8.607e-31
-5.241e-30
3.166e-29
-1.896e-28
1.125e-27
-6.607e-27
3.838e-26
-2.204e-25
1.249e-24
-6.984e-24
3.849e-23
-2.078e-22
1.137e-21
-5.116e-21
6.072e-20
1.84e-18
2.434e-17
2.759e-16
2.894e-15
2.816e-14
2.531e-13
2.087e-12
1.569e-11
1.069e-10
6.566e-10
3.613e-09
1.773e-08
7.726e-08
2.978e-07
1.012e-06
3.027e-06
7.946e-06
1.827e-05
3.682e-05
6.535e-05
0.0001028
0.000144
0.0001801
0.0002071
0.0002156
0.0002088
0.0001922
0.0001683
0.0001408
0.0001134
8.827e-05
6.682e-05
4.941e-05
3.586e-05
2.565e-05
1.817e-05
1.28e-05
8.995e-06
6.335e-06
4.485e-06
3.201e-06
2.31e-06
1.688e-06
1.252e-06
9.43e-07
7.225e-07
5.632e-07
4.469e-07
3.61e-07
2.968e-07
2.483e-07
2.113e-07
1.828e-07
1.606e-07
1.433e-07
1.297e-07
1.19e-07
1.105e-07
1.039e-07
9.882e-08
9.493e-08
9.208e-08
9.009e-08
8.888e-08
8.827e-08
8.847e-08
8.91e-08
9.023e-08
9.184e-08
9.392e-08
9.646e-08
9.944e-08
1.029e-07
1.067e-07
1.11e-07
1.158e-07
1.209e-07
1.266e-07
1.327e-07
1.393e-07
1.464e-07
1.54e-07
1.622e-07
1.708e-07
1.8e-07
1.892e-07
2.041e-07
7.353e-52
-7.139e-51
5.649e-50
-4.337e-49
3.215e-48
-2.304e-47
1.602e-46
-1.084e-45
7.165e-45
-4.649e-44
2.974e-43
-1.882e-42
1.182e-41
-7.398e-41
4.618e-40
-2.881e-39
1.799e-38
-1.125e-37
7.051e-37
-4.432e-36
2.795e-35
-1.77e-34
1.126e-33
-7.213e-33
4.603e-32
-2.922e-31
1.845e-30
-1.158e-29
7.222e-29
-4.475e-28
2.753e-27
-1.681e-26
1.017e-25
-6.103e-25
3.625e-24
-2.13e-23
1.24e-22
-7.024e-22
4.306e-21
-1.807e-20
5.806e-19
1.272e-17
1.654e-16
1.917e-15
2.063e-14
2.057e-13
1.887e-12
1.582e-11
1.204e-10
8.26e-10
5.071e-09
2.769e-08
1.338e-07
5.687e-07
2.119e-06
6.895e-06
1.954e-05
4.821e-05
0.0001033
0.0001935
0.0003198
0.0004705
0.0006178
0.0007327
0.0008015
0.0007871
0.0007377
0.000657
0.0005589
0.0004565
0.00036
0.0002752
0.0002048
0.0001491
0.0001066
7.517e-05
5.249e-05
3.646e-05
2.529e-05
1.758e-05
1.229e-05
8.673e-06
6.189e-06
4.477e-06
3.289e-06
2.456e-06
1.867e-06
1.445e-06
1.139e-06
9.139e-07
7.47e-07
6.216e-07
5.262e-07
4.53e-07
3.962e-07
3.519e-07
3.171e-07
2.897e-07
2.681e-07
2.511e-07
2.378e-07
2.276e-07
2.199e-07
2.143e-07
2.108e-07
2.083e-07
2.082e-07
2.089e-07
2.108e-07
2.138e-07
2.179e-07
2.23e-07
2.291e-07
2.361e-07
2.442e-07
2.531e-07
2.631e-07
2.74e-07
2.86e-07
2.989e-07
3.128e-07
3.278e-07
3.438e-07
3.608e-07
3.789e-07
3.982e-07
4.175e-07
4.487e-07
-1.627e-51
1.582e-50
-1.255e-49
9.662e-49
-7.188e-48
5.17e-47
-3.6e-46
2.431e-45
-1.596e-44
1.021e-43
-6.389e-43
3.926e-42
-2.379e-41
1.429e-40
-8.546e-40
5.121e-39
-3.089e-38
1.885e-37
-1.168e-36
7.361e-36
-4.719e-35
3.074e-34
-2.03e-33
1.358e-32
-8.99e-32
5.885e-31
-3.814e-30
2.448e-29
-1.557e-28
9.822e-28
-6.143e-27
3.811e-26
-2.345e-25
1.431e-24
-8.666e-24
5.208e-23
-3.086e-22
1.906e-21
-7.065e-21
2.342e-19
5.555e-18
7.816e-17
9.903e-16
1.172e-14
1.29e-13
1.311e-12
1.222e-11
1.037e-10
7.935e-10
5.436e-09
3.308e-08
1.774e-07
8.332e-07
3.405e-06
1.206e-05
3.683e-05
9.693e-05
0.0002201
0.0004318
0.0007436
0.001135
0.001555
0.001923
0.0022
0.002244
0.002163
0.00198
0.001732
0.001456
0.001181
0.0009274
0.0007072
0.0005254
0.0003817
0.0002722
0.0001913
0.000133
9.196e-05
6.346e-05
4.388e-05
3.053e-05
2.143e-05
1.522e-05
1.096e-05
8.021e-06
5.969e-06
4.522e-06
3.489e-06
2.743e-06
2.197e-06
1.792e-06
1.488e-06
1.257e-06
1.08e-06
9.43e-07
8.36e-07
7.519e-07
6.856e-07
6.332e-07
5.918e-07
5.593e-07
5.341e-07
5.149e-07
5.007e-07
4.909e-07
4.849e-07
4.819e-07
4.829e-07
4.861e-07
4.917e-07
4.997e-07
5.1e-07
5.225e-07
5.372e-07
5.539e-07
5.727e-07
5.936e-07
6.166e-07
6.416e-07
6.688e-07
6.981e-07
7.296e-07
7.632e-07
7.99e-07
8.37e-07
8.774e-07
9.178e-07
9.83e-07
4.749e-51
-4.354e-50
3.344e-49
-2.57e-48
1.959e-47
-1.476e-46
1.097e-45
-8.018e-45
5.757e-44
-4.059e-43
2.81e-42
-1.911e-41
1.278e-40
-8.419e-40
5.469e-39
-3.508e-38
2.226e-37
-1.398e-36
8.711e-36
-5.386e-35
3.309e-34
-2.02e-33
1.227e-32
-7.418e-32
4.454e-31
-2.66e-30
1.581e-29
-9.354e-29
5.511e-28
-3.234e-27
1.892e-26
-1.103e-25
6.41e-25
-3.716e-24
2.15e-23
-1.238e-22
7.326e-22
-3.288e-21
5.673e-20
1.855e-18
2.895e-17
4.002e-16
5.177e-15
6.255e-14
7.012e-13
7.239e-12
6.823e-11
5.82e-10
4.451e-09
3.023e-08
1.806e-07
9.408e-07
4.237e-06
1.639e-05
5.409e-05
0.000152
0.0003638
0.0007465
0.001327
0.002101
0.002936
0.003743
0.004503
0.004846
0.004766
0.004496
0.004056
0.003534
0.002989
0.002452
0.001951
0.001507
0.001134
0.0008329
0.0005993
0.0004243
0.0002967
0.000206
0.0001426
9.88e-05
6.884e-05
4.839e-05
3.441e-05
2.482e-05
1.818e-05
1.355e-05
1.028e-05
7.942e-06
6.252e-06
5.014e-06
4.095e-06
3.405e-06
2.88e-06
2.477e-06
2.165e-06
1.921e-06
1.728e-06
1.576e-06
1.456e-06
1.36e-06
1.285e-06
1.226e-06
1.181e-06
1.147e-06
1.123e-06
1.109e-06
1.099e-06
1.1e-06
1.106e-06
1.116e-06
1.132e-06
1.153e-06
1.179e-06
1.21e-06
1.245e-06
1.284e-06
1.328e-06
1.376e-06
1.429e-06
1.486e-06
1.547e-06
1.613e-06
1.684e-06
1.759e-06
1.838e-06
1.923e-06
2.007e-06
2.143e-06
1.02e-50
-9.972e-50
8.007e-49
-6.287e-48
4.801e-47
-3.564e-46
2.574e-45
-1.81e-44
1.242e-43
-8.338e-43
5.485e-42
-3.547e-41
2.261e-40
-1.425e-39
8.903e-39
-5.53e-38
3.423e-37
-2.116e-36
1.309e-35
-8.113e-35
5.044e-34
-3.148e-33
1.974e-32
-1.242e-31
7.788e-31
-4.856e-30
3.013e-29
-1.862e-28
1.147e-27
-7.041e-27
4.314e-26
-2.639e-25
1.612e-24
-9.844e-24
6.014e-23
-3.657e-22
2.34e-21
-8.979e-21
3.126e-19
8.198e-18
1.273e-16
1.791e-15
2.361e-14
2.903e-13
3.302e-12
3.447e-11
3.27e-10
2.79e-09
2.119e-08
1.417e-07
8.237e-07
4.121e-06
1.757e-05
6.325e-05
0.0001913
0.0004851
0.001039
0.001905
0.003088
0.00454
0.005816
0.006917
0.008957
0.009893
0.00953
0.00812
0.006665
0.005777
0.00501
0.004218
0.003439
0.002721
0.002093
0.001569
0.00115
0.0008272
0.0005866
0.000412
0.0002881
0.0002015
0.0001415
0.0001002
7.174e-05
5.207e-05
3.838e-05
2.878e-05
2.196e-05
1.706e-05
1.35e-05
1.089e-05
8.934e-06
7.461e-06
6.338e-06
5.471e-06
4.797e-06
4.269e-06
3.851e-06
3.52e-06
3.257e-06
3.048e-06
2.883e-06
2.753e-06
2.653e-06
2.578e-06
2.524e-06
2.491e-06
2.467e-06
2.469e-06
2.479e-06
2.5e-06
2.533e-06
2.577e-06
2.63e-06
2.694e-06
2.768e-06
2.85e-06
2.942e-06
3.044e-06
3.154e-06
3.274e-06
3.403e-06
3.541e-06
3.688e-06
3.845e-06
4.01e-06
4.185e-06
4.359e-06
4.64e-06
-2.062e-50
1.913e-49
-1.482e-48
1.144e-47
-8.725e-47
6.561e-46
-4.856e-45
3.532e-44
-2.523e-43
1.77e-42
-1.219e-41
8.251e-41
-5.492e-40
3.6e-39
-2.326e-38
1.483e-37
-9.345e-37
5.827e-36
-3.601e-35
2.207e-34
-1.343e-33
8.129e-33
-4.895e-32
2.934e-31
-1.748e-30
1.037e-29
-6.136e-29
3.624e-28
-2.138e-27
1.261e-26
-7.443e-26
4.401e-25
-2.61e-24
1.554e-23
-9.267e-23
5.735e-22
-2.619e-21
5.629e-20
1.912e-18
3.231e-17
4.906e-16
7.007e-15
9.384e-14
1.17e-12
1.346e-11
1.415e-10
1.346e-09
1.144e-08
8.584e-08
5.61e-07
3.15e-06
1.499e-05
5.971e-05
0.0001974
0.0005386
0.001217
0.002311
0.003797
0.005792
0.008035
0.01032
0.0102
0.01022
0.01094
0.01046
0.01011
0.01037
0.01019
0.008197
0.006483
0.005331
0.004306
0.003393
0.002605
0.001954
0.001436
0.001038
0.0007423
0.0005274
0.0003742
0.0002664
0.000191
0.0001384
0.0001016
7.573e-05
5.737e-05
4.421e-05
3.468e-05
2.77e-05
2.252e-05
1.863e-05
1.567e-05
1.341e-05
1.165e-05
1.027e-05
9.187e-06
8.327e-06
7.643e-06
7.097e-06
6.662e-06
6.318e-06
6.047e-06
5.838e-06
5.682e-06
5.57e-06
5.5e-06
5.451e-06
5.455e-06
5.477e-06
5.523e-06
5.592e-06
5.685e-06
5.799e-06
5.934e-06
6.088e-06
6.263e-06
6.456e-06
6.669e-06
6.901e-06
7.151e-06
7.42e-06
7.707e-06
8.013e-06
8.336e-06
8.677e-06
9.037e-06
9.394e-06
9.968e-06
-2.992e-50
2.921e-49
-2.355e-48
1.866e-47
-1.445e-46
1.091e-45
-8.047e-45
5.792e-44
-4.074e-43
2.804e-42
-1.892e-41
1.254e-40
-8.182e-40
5.266e-39
-3.35e-38
2.112e-37
-1.321e-36
8.22e-36
-5.095e-35
3.151e-34
-1.946e-33
1.203e-32
-7.446e-32
4.612e-31
-2.85e-30
1.754e-29
-1.077e-28
6.602e-28
-4.048e-27
2.484e-26
-1.528e-25
9.43e-25
-5.848e-24
3.651e-23
-2.284e-22
1.518e-21
-5.882e-21
2.239e-19
6.371e-18
1.073e-16
1.653e-15
2.395e-14
3.25e-13
4.097e-12
4.752e-11
5.02e-10
4.77e-09
4.026e-08
2.973e-07
1.89e-06
1.018e-05
4.569e-05
0.0001684
0.0005056
0.001233
0.002473
0.004178
0.006303
0.01007
0.01014
0.01142
0.01011
0.01031
0.01027
0.01031
0.01005
0.01033
0.015
0.01012
0.01025
0.007814
0.006224
0.005006
0.003928
0.00301
0.00226
0.001669
0.001218
0.0008822
0.0006378
0.0004622
0.0003372
0.0002484
0.0001852
0.0001402
0.0001077
8.418e-05
6.691e-05
5.411e-05
4.45e-05
3.722e-05
3.164e-05
2.732e-05
2.394e-05
2.128e-05
1.917e-05
1.749e-05
1.615e-05
1.508e-05
1.422e-05
1.354e-05
1.3e-05
1.259e-05
1.229e-05
1.207e-05
1.194e-05
1.186e-05
1.187e-05