/*--------------------------------*- C++ -*----------------------------------*\
  =========                 |
  \\      /  F ield         | OpenFOAM: The Open Source CFD Toolbox
   \\    /   O peration     | Website:  https://openfoam.org
    \\  /    A nd           | Version:  7
     \\/     M anipulation  |
\*---------------------------------------------------------------------------*/
FoamFile
{
    version     2.0;
    format      ascii;
    class       volScalarField;
    location    "900";
    object      Ci;
}
// * * * * * * * * * * * * * * * * * * * * * * * * * * * * * * * * * * * * * //

dimensions      [0 -3 0 0 1 0 0];

internalField   nonuniform List<scalar> 
8192
(
10.0000000195
9.99999993224
9.99999980352
9.99999964148
9.99999944527
9.99999921999
9.99999896785
9.9999986902
9.99999838847
9.99999806575
9.9999977257
9.99999737333
9.99999701325
9.99999665093
9.99999629067
9.99999593746
9.99999559459
9.9999952661
9.99999495389
9.99999466069
9.99999438659
9.99999413252
9.99999389575
9.99999367539
9.99999346723
9.99999326836
9.99999307165
9.99999287062
9.99999265384
9.99999241218
9.99999213197
9.99999180211
9.99999140714
9.99999093506
9.99999037026
9.99998970192
9.99998891689
9.99998800825
9.99998696826
9.9999857967
9.99998449381
9.99998306781
9.99998152804
9.99997989096
9.99997817406
9.99997639978
9.99997459099
9.99997277268
9.99997096992
9.99996920709
9.99996750923
9.99996589828
9.99996439826
9.99996302802
9.99996181025
9.99996076034
9.99995989935
9.99995923889
9.99995879776
9.99995858299
9.99995860931
9.99995887608
9.9999593832
9.99996012687
9.99996110485
9.99996229315
9.99996366574
9.99996518655
9.99996683193
9.99996856851
9.99997037649
9.99997222849
9.99997410811
9.9999759913
9.99997786198
9.99997969789
9.99998148294
9.99998319729
9.99998482562
9.99998635114
9.99998776018
9.99998904035
9.99999018188
9.9999911793
9.99999202941
9.99999273546
9.99999330197
9.99999374063
9.99999406256
9.99999428546
9.9999944243
9.9999944994
9.99999452636
9.99999452506
9.99999450986
9.9999945007
9.99999452
9.99999459601
9.99999473498
9.99999494034
9.99999520766
9.99999553468
9.99999591371
9.99999633995
9.99999680421
9.99999730045
9.99999781916
9.99999835417
9.99999889661
9.99999944107
9.99999998002
10.0000005093
10.0000010232
10.0000015191
10.0000019929
10.0000024434
10.0000028682
10.0000032671
10.0000036384
10.0000039821
10.000004296
10.0000045792
10.0000048279
10.0000050402
10.0000052137
10.0000053503
10.0000054539
10.000005511
9.99999998987
9.99999987922
9.99999976033
9.99999962732
9.99999946775
9.99999927743
9.99999905526
9.99999880249
9.99999852166
9.99999821683
9.99999789237
9.99999755352
9.99999720505
9.99999685231
9.99999649963
9.99999615181
9.99999581224
9.9999954848
9.99999517161
9.99999487528
9.99999459629
9.99999433562
9.99999408992
9.99999385905
9.99999363976
9.99999342928
9.99999322159
9.9999930094
9.99999278137
9.99999252865
9.99999223878
9.99999190037
9.99999149911
9.99999102247
9.99999045618
9.99998978887
9.99998900891
9.99998810912
9.99998708366
9.99998593254
9.99998465832
9.99998326991
9.99998177913
9.99998020316
9.99997856149
9.99997687668
9.99997517246
9.9999734728
9.99997180212
9.99997018267
9.99996863737
9.99996718529
9.99996584717
9.99996463868
9.99996357824
9.99996267794
9.99996195357
9.99996141339
9.99996106989
9.99996092674
9.99996099134
9.99996126099
9.9999617338
9.99996239728
9.99996324156
9.99996424584
9.99996539213
9.99996665515
9.99996801842
9.99996946255
9.99997097724
9.9999725484
9.99997416733
9.99997581952
9.99997749301
9.99997917027
9.99998083548
9.99998246898
9.99998405261
9.99998556649
9.99998699254
9.99998831367
9.99998951548
9.99999058742
9.99999152227
9.99999231855
9.99999297776
9.9999935076
9.99999391732
9.99999422162
9.99999443467
9.9999945748
9.99999465775
9.99999470206
9.99999472231
9.99999473506
9.9999947741
9.99999488109
9.99999504668
9.99999526913
9.99999554442
9.99999587082
9.99999624273
9.99999665621
9.99999710392
9.99999758044
9.99999807772
9.99999858995
9.99999910938
9.99999963072
10.0000001473
10.0000006549
10.0000011483
10.0000016248
10.0000020807
10.0000025147
10.0000029244
10.0000033094
10.0000036684
10.0000040012
10.0000043058
10.0000045811
10.0000048239
10.0000050324
10.0000052061
10.0000053468
10.0000054658
10.0000055156
9.99999998992
9.99999987393
9.99999976533
9.99999965334
9.99999952525
9.9999993753
9.99999919858
9.99999899269
9.99999875679
9.99999849275
9.99999820331
9.99999789324
9.9999975669
9.99999722999
9.99999688679
9.9999965426
9.99999620067
9.99999586534
9.99999553845
9.99999522309
9.99999491941
9.99999462911
9.99999434993
9.99999408142
9.99999381968
9.99999356261
9.99999330461
9.99999304144
9.99999276479
9.99999246791
9.99999214134
9.9999917769
9.99999136518
9.99999089807
9.99999036812
9.9999897695
9.99998909879
9.999988355
9.9999875403
9.99998666029
9.99998572322
9.99998474107
9.99998372712
9.9999826972
9.999981667
9.99998065228
9.99997966784
9.99997872566
9.99997783717
9.99997700871
9.99997624775
9.99997555533
9.99997493621
9.99997438784
9.99997391403
9.99997351045
9.99997318142
9.99997292231
9.99997273878
9.99997262664
9.99997259228
9.99997263089
9.99997274723
9.99997293328
9.99997318976
9.99997350517
9.99997387757
9.99997429631
9.99997476305
9.99997527461
9.9999758392
9.99997645965
9.99997714547
9.99997789933
9.99997872654
9.99997962573
9.99998059551
9.99998162888
9.99998271658
9.99998384524
9.99998499811
9.99998615706
9.99998730119
9.99998841204
9.99998946983
9.99999046076
9.99999137086
9.99999219424
9.9999929249
9.99999356541
9.9999941172
9.99999458949
9.99999498883
9.99999532812
9.9999956164
9.99999586677
9.99999609205
9.99999631697
9.99999655329
9.99999681173
9.99999709518
9.99999740765
9.99999774722
9.99999811386
9.99999850285
9.99999891188
9.99999933492
9.99999976863
10.0000002068
10.0000006461
10.0000010808
10.0000015081
10.0000019236
10.0000023252
10.0000027095
10.0000030759
10.0000034219
10.0000037476
10.0000040515
10.0000043338
10.0000045928
10.0000048278
10.000005036
10.0000052151
10.0000053665
10.0000054877
10.0000056188
10.000005546
9.99999999024
9.9999998731
9.99999977137
9.99999967383
9.99999956569
9.99999944114
9.99999929757
9.99999913207
9.99999894281
9.99999872952
9.99999849283
9.99999823487
9.99999795825
9.99999766665
9.99999736361
9.99999705329
9.99999673909
9.99999642477
9.99999611296
9.99999580647
9.99999550676
9.99999521541
9.9999949326
9.99999465804
9.99999439073
9.99999412861
9.99999387031
9.99999361198
9.9999933526
9.99999308574
9.99999281194
9.9999925223
9.99999222065
9.99999189646
9.99999155805
9.99999119507
9.99999082001
9.99999042533
9.99999002567
9.99998961845
9.99998921773
9.99998882589
9.99998845425
9.99998810756
9.99998779327
9.99998751481
9.99998727527
9.9999870743
9.99998691075
9.9999867803
9.99998667887
9.99998659986
9.99998653832
9.99998648759
9.99998644367
9.99998640122
9.99998635801
9.99998631058
9.99998625863
9.99998620046
9.99998613673
9.99998606588
9.99998598745
9.99998589785
9.99998579366
9.99998566856
9.99998551795
9.99998533771
9.99998512941
9.99998489784
9.99998465359
9.9999844084
9.99998417681
9.9999839723
9.99998380965
9.99998370193
9.99998366265
9.99998370271
9.99998383162
9.99998405476
9.99998437428
9.99998478774
9.99998528906
9.99998586869
9.9999865143
9.99998721215
9.99998794718
9.99998870517
9.99998947193
9.99999023585
9.99999098616
9.9999917155
9.99999241742
9.99999308891
9.9999937275
9.99999433346
9.99999490695
9.9999954537
9.99999597922
9.99999649019
9.99999699064
9.9999974846
9.99999797324
9.99999845788
9.99999893748
9.99999941156
9.99999987787
10.000000335
10.0000007804
10.0000012125
10.0000016289
10.0000020283
10.0000024089
10.0000027699
10.0000031102
10.0000034298
10.0000037281
10.0000040056
10.0000042624
10.0000044991
10.0000047156
10.0000049121
10.0000050875
10.0000052394
10.0000053732
10.0000054683
10.0000056424
10.0000053666
9.9999999898
9.99999986965
9.99999977248
9.99999968533
9.99999959063
9.99999948208
9.99999935752
9.99999921759
9.99999906088
9.99999888734
9.99999869713
9.99999849134
9.99999827119
9.99999803879
9.99999779618
9.9999975461
9.99999729095
9.99999703363
9.99999677652
9.99999652212
9.99999627261
9.99999602954
9.99999579504
9.9999955689
9.99999535384
9.99999514678
9.9999949528
9.99999476417
9.99999459127
9.99999441871
9.999994266
9.99999410669
9.99999397333
9.99999382637
9.99999371271
9.99999358159
9.99999348997
9.99999338336
9.99999331838
9.99999324789
9.99999321627
9.99999319187
9.9999932006
9.99999322629
9.99999327866
9.99999335035
9.99999344164
9.99999354731
9.9999936638
9.99999378547
9.99999390813
9.99999402642
9.99999413744
9.99999423737
9.99999432532
9.99999439925
9.99999445989
9.99999450638
9.99999454033
9.99999456117
9.99999456978
9.99999456357
9.99999453999
9.99999449215
9.99999441214
9.99999428784
9.999994108
9.99999386186
9.99999354464
9.99999315554
9.99999269965
9.99999218397
9.9999916184
9.99999101339
9.99999038162
9.99998973704
9.99998909576
9.99998847501
9.99998789245
9.99998736521
9.99998690857
9.99998653593
9.99998625738
9.99998608062
9.99998600936
9.99998604498
9.99998618485
9.99998642461
9.99998675648
9.99998717204
9.9999876604
9.99998821122
9.9999888127
9.99998945449
9.99999012559
9.99999081702
9.9999915193
9.99999222573
9.99999293023
9.99999362919
9.99999431887
9.99999499704
9.99999566081
9.99999630833
9.99999693698
9.99999754514
9.99999813055
9.99999869196
9.99999922761
9.99999973681
10.0000002185
10.0000006725
10.0000010985
10.0000014969
10.0000018681
10.000002213
10.0000025324
10.0000028278
10.0000031002
10.0000033514
10.0000035821
10.0000037939
10.0000039869
10.0000041592
10.0000043224
10.0000044328
10.0000046729
10.0000044156
9.9999999892
9.99999986702
9.99999977269
9.9999996945
9.99999961113
9.99999951438
9.99999940267
9.99999927719
9.99999914012
9.99999899176
9.9999988328
9.9999986643
9.99999848733
9.99999830331
9.99999811374
9.99999792032
9.99999772493
9.99999752927
9.99999733573
9.99999714548
9.99999696181
9.9999967842
9.99999661809
9.99999645904
9.99999631745
9.99999618058
9.99999606968
9.99999595581
9.99999588138
9.99999578866
9.9999957562
9.99999568106
9.99999569473
9.99999563456
9.99999569467
9.9999956515
9.99999575165
9.99999573408
9.99999586093
9.99999588086
9.99999601905
9.99999608325
9.99999622276
9.99999632587
9.99999646402
9.99999659016
9.99999672583
9.99999685645
9.99999698407
9.99999710401
9.99999721481
9.99999731449
9.99999740292
9.99999748029
9.99999754843
9.99999760945
9.99999766626
9.99999772196
9.99999777966
9.99999784257
9.99999791225
9.99999798903
9.99999806952
9.99999814807
9.9999982135
9.99999825154
9.99999824423
9.99999817598
9.99999803458
9.99999781411
9.99999751227
9.99999712957
9.99999666737
9.99999612824
9.99999551674
9.99999483984
9.99999410815
9.99999333468
9.99999253536
9.99999172676
9.99999092675
9.99999015244
9.99998942123
9.99998874888
9.99998815038
9.99998763813
9.99998722262
9.99998691108
9.9999867081
9.99998661496
9.99998663021
9.99998674972
9.99998696716
9.99998727449
9.99998766224
9.99998812031
9.99998863785
9.99998920431
9.99998980916
9.99999044295
9.9999910966
9.99999176227
9.99999243247
9.99999310093
9.99999376171
9.99999441002
9.99999504143
9.99999565263
9.99999624061
9.99999680343
9.99999733939
9.99999784775
9.99999832794
9.99999878021
9.99999920487
9.99999960295
9.99999997535
10.0000003238
10.0000006493
10.0000009542
10.0000012391
10.0000015069
10.0000017572
10.0000019893
10.0000022169
10.0000023899
10.0000026865
10.0000026068
9.99999998987
9.99999986682
9.9999997737
9.99999970187
9.9999996277
9.99999954056
9.99999943837
9.99999932299
9.99999919714
9.9999990638
9.9999989237
9.99999877815
9.99999862841
9.99999847567
9.99999832146
9.9999981668
9.99999801375
9.99999786271
9.99999771703
9.99999757518
9.99999744365
9.999997316
9.99999720611
9.99999709592
9.99999701617
9.99999692333
9.99999688405
9.99999680307
9.99999681753
9.99999673623
9.99999682083
9.99999672135
9.99999689228
9.99999675726
9.99999702142
9.99999684609
9.99999718791
9.99999699253
9.99999736654
9.99999719597
9.99999753903
9.9999974399
9.9999977031
9.99999769139
9.99999786643
9.99999791706
9.99999802885
9.99999809951
9.99999817503
9.99999823547
9.99999828606
9.99999832565
9.99999835524
9.99999837688
9.99999839373
9.99999840962
9.99999842897
9.99999845646
9.99999849728
9.99999855664
9.99999863881
9.99999874588
9.99999887694
9.99999902769
9.9999991884
9.99999934347
9.99999947344
9.99999956028
9.9999995909
9.99999955776
9.99999945687
9.99999928514
9.99999903911
9.99999871516
9.99999831106
9.99999782695
9.99999726643
9.99999663597
9.99999594483
9.99999520415
9.99999442626
9.99999362482
9.9999928146
9.99999201136
9.99999123122
9.99999049028
9.99998980365
9.9999891851
9.9999886462
9.99998819617
9.99998784136
9.99998758545
9.99998742926
9.99998737124
9.99998740748
9.99998753238
9.99998773874
9.99998801839
9.99998836236
9.99998876147
9.9999892064
9.99998968819
9.99999019817
9.99999072833
9.99999127124
9.99999182028
9.99999236955
9.99999291404
9.99999344945
9.99999397239
9.99999448009
9.9999949706
9.99999544248
9.99999589501
9.9999963278
9.99999674114
9.99999713529
9.99999751149
9.99999787005
9.99999821347
9.99999854085
9.99999885663
9.99999915773
9.99999944679
9.99999973307
9.99999997451
10.0000003121
10.0000004055
9.99999999025
9.99999986752
9.99999977601
9.99999970931
9.9999996425
9.99999956294
9.99999946781
9.99999935936
9.99999924088
9.99999911591
9.99999898686
9.99999885479
9.99999872121
9.99999858703
9.9999984541
9.99999832256
9.99999819556
9.99999807114
9.99999795585
9.99999784232
9.99999774554
9.99999764485
9.9999975755
9.99999748562
9.99999745675
9.99999736792
9.99999740032
9.99999728968
9.99999741688
9.99999724289
9.99999751487
9.99999721614
9.99999769505
9.99999720229
9.99999794058
9.99999721019
9.9999982073
9.9999972711
9.99999842783
9.99999742431
9.99999854247
9.99999767836
9.9999985443
9.99999797933
9.99999849093
9.99999823494
9.99999845207
9.99999838522
9.99999844449
9.99999843499
9.99999843382
9.99999841738
9.99999839088
9.99999835742
9.99999832021
9.99999828447
9.99999825502
9.99999823827
9.99999824102
9.9999982714
9.99999833562
9.99999843893
9.99999858149
9.99999876226
9.99999897129
9.99999919295
9.99999940373
9.99999958473
9.999999722
9.99999981042
9.999999847
9.99999982974
9.99999975352
9.99999961028
9.99999939504
9.99999910525
9.99999874227
9.99999830942
9.99999781266
9.99999725762
9.99999665174
9.99999600191
9.99999531783
9.99999460916
9.99999388865
9.99999316866
9.99999246283
9.99999178516
9.99999114957
9.99999056762
9.99999004962
9.99998960305
9.99998923357
9.99998894413
9.99998873585
9.9999886076
9.99998855674
9.99998857902
9.99998866914
9.99998882091
9.99998902754
9.99998928199
9.99998957709
9.99998990588
9.99999026158
9.99999063801
9.99999102935
9.99999143058
9.99999183713
9.9999922453
9.99999265183
9.99999305431
9.99999345069
9.99999383972
9.99999422027
9.9999945922
9.99999495484
9.99999530928
9.99999565444
9.99999599342
9.99999632293
9.99999664951
9.99999696624
9.99999727898
9.99999759338
9.99999787007
9.99999823392
9.99999841476
9.99999999047
9.99999986824
9.99999977576
9.99999971163
9.99999965037
9.9999995772
9.99999948815
9.99999938515
9.99999927222
9.99999915273
9.9999990305
9.99999890646
9.99999878262
9.99999865916
9.999998539
9.99999842028
9.99999830903
9.99999819837
9.99999810221
9.99999800107
9.99999792842
9.99999783423
9.99999779851
9.99999770007
9.99999772526
9.99999759435
9.99999772499
9.99999750276
9.99999781941
9.99999739853
9.99999803503
9.99999724537
9.99999839444
9.99999701308
9.99999889268
9.9999967101
9.99999946023
9.99999642108
9.99999993922
9.99999630756
10.0000001255
9.99999652148
9.99999990159
9.99999705499
9.99999937254
9.99999768124
9.99999882166
9.99999811856
9.99999846324
9.99999826235
9.99999827744
9.99999820294
9.99999813425
9.99999805666
9.99999797191
9.99999788894
9.99999781043
9.99999774711
9.999997708
9.9999977024
9.99999774045
9.99999782818
9.99999796762
9.99999815769
9.99999838907
9.9999986415
9.9999988879
9.9999991065
9.99999928692
9.99999942585
9.99999952617
9.99999958424
9.99999959591
9.99999955476
9.99999945564
9.99999929614
9.99999907754
9.99999880316
9.99999847724
9.99999810321
9.99999768418
9.99999722297
9.99999672351
9.99999619094
9.99999563215
9.99999505573
9.99999447076
9.99999388806
9.99999331727
9.99999276966
9.99999225615
9.99999178528
9.9999913639
9.9999909971
9.99999068825
9.9999904391
9.99999024991
9.9999901196
9.99999004599
9.9999900259
9.99999005547
9.99999013025
9.99999024552
9.99999039637
9.99999057793
9.99999078547
9.99999101458
9.99999126117
9.9999915216
9.99999179271
9.99999207176
9.99999235658
9.99999264528
9.99999293667
9.99999322947
9.99999352354
9.99999381768
9.99999411316
9.99999440775
9.99999470536
9.99999500057
9.99999530152
9.99999559906
9.99999589864
9.99999620989
9.99999648046
9.99999685459
9.99999704301
9.99999999086
9.99999986932
9.99999977729
9.99999971397
9.9999996554
9.99999958605
9.99999950104
9.9999994018
9.99999929262
9.99999917691
9.99999905887
9.99999893967
9.99999882198
9.9999987047
9.99999859269
9.99999848076
9.99999837996
9.99999827514
9.99999819288
9.99999809363
9.99999804156
9.99999793894
9.99999793843
9.99999780768
9.999997901
9.99999768514
9.99999795688
9.99999753763
9.99999815099
9.9999973038
9.99999855191
9.99999689158
9.99999924647
9.99999619648
10.0000003027
9.99999516376
10.0000016818
9.9999939014
10.0000031175
9.99999278416
10.0000040743
9.99999238985
10.0000039595
9.99999313626
10.0000026156
9.99999480902
10.0000006403
9.9999965402
9.99999897881
9.9999975347
9.99999807616
9.99999772834
9.9999976696
9.99999753236
9.9999973891
9.99999725503
9.99999712745
9.9999970174
9.99999693308
9.99999689113
9.9999969109
9.9999970013
9.99999715712
9.99999737045
9.99999762524
9.99999790118
9.99999816927
9.99999841327
9.99999862519
9.99999880668
9.99999895461
9.99999906699
9.99999913697
9.99999915689
9.99999912225
9.99999903286
9.999998894
9.99999871182
9.99999849327
9.99999824149
9.99999795906
9.99999764571
9.99999730303
9.99999693202
9.99999653661
9.99999612087
9.99999569116
9.9999952535
9.99999481545
9.99999438308
9.99999396463
9.99999356489
9.99999319417
9.99999285701
9.99999255725
9.99999229701
9.9999920778
9.9999918998
9.99999176261
9.99999166487
9.99999160478
9.99999157989
9.99999158753
9.99999162474
9.99999168848
9.99999177579
9.99999188378
9.99999200983
9.99999215151
9.9999923068
9.99999247385
9.99999265136
9.99999283797
9.99999303319
9.99999323586
9.99999344647
9.99999366349
9.99999388894
9.99999411964
9.99999436053
9.99999460484
9.99999486117
9.99999512107
9.99999538469
9.99999567421
9.99999591055
9.99999628156
9.99999643207
9.99999999039
9.9999998685
9.99999977319
9.99999970862
9.9999996514
9.99999958497
9.9999995034
9.99999940739
9.99999930129
9.99999918847
9.99999907354
9.99999895731
9.99999884373
9.99999872976
9.99999862325
9.99999851422
9.99999842083
9.99999831686
9.99999824545
9.99999814168
9.99999810772
9.99999798831
9.99999802228
9.99999784756
9.99999801264
9.99999769314
9.99999812087
9.99999746747
9.9999984242
9.99999706063
9.99999905753
9.99999628721
10.0000002309
9.99999488264
10.0000022067
9.99999256895
10.0000051736
9.99998926016
10.0000089594
9.99998541369
10.0000126637
9.99998230427
10.0000146311
9.99998170975
10.0000132824
9.99998459471
10.0000086524
9.99998974321
10.0000030027
9.99999432712
9.9999989922
9.99999651146
9.99999723672
9.99999680048
9.99999662098
9.99999645888
9.99999627816
9.99999612912
9.99999600671
9.99999594983
9.99999601242
9.999996152
9.99999626251
9.99999626224
9.99999616478
9.99999605877
9.99999604381
9.99999618202
9.99999648048
9.99999688218
9.99999731208
9.99999770536
9.9999980175
9.99999822644
9.9999983322
9.99999834901
9.99999829777
9.99999819852
9.99999806659
9.9999979111
9.99999773595
9.99999754191
9.99999732826
9.99999709469
9.99999684176
9.9999965717
9.99999628792
9.9999959948
9.99999569725
9.99999539974
9.99999510723
9.99999482299
9.99999455182
9.9999942961
9.99999406363
9.99999385621
9.9999936747
9.99999351947
9.99999339034
9.9999932868
9.99999320792
9.99999315257
9.99999311929
9.99999310659
9.9999931128
9.99999313638
9.99999317576
9.99999322961
9.99999329668
9.99999337606
9.99999346684
9.99999356867
9.99999368086
9.99999380373
9.99999393646
9.99999408031
9.99999423368
9.9999943994
9.99999457387
9.99999476257
9.99999495882
9.99999516972
9.99999539109
9.99999561296
9.9999958768
9.99999606899
9.99999643049
9.99999652752
9.99999999114
9.99999986863
9.99999977306
9.99999970521
9.99999964561
9.99999957861
9.99999949783
9.99999940313
9.99999929872
9.99999918747
9.99999907456
9.99999895985
9.99999884884
9.99999873629
9.99999863327
9.99999852497
9.99999843639
9.99999833124
9.99999826696
9.99999815789
9.99999813572
9.99999800261
9.99999805831
9.99999785266
9.99999806166
9.99999767426
9.99999819755
9.99999739241
9.99999856892
9.99999685476
9.99999937525
9.99999577505
10.0000009767
9.99999366717
10.0000039477
9.99998982763
10.000009022
9.99998351454
10.0000167265
9.99997453232
10.0000265408
9.99996430948
10.000035844
9.99995666062
10.0000399007
9.99995652671
10.0000346523
9.99996582553
10.0000213239
9.99997991711
10.0000071357
9.99999078822
9.99999864693
9.99999505354
9.99999573171
9.99999545156
9.99999511008
9.99999491189
9.99999476422
9.99999496485
9.99999526891
9.99999481358
9.99999263035
9.999988531
9.99998344732
9.99997894837
9.99997636872
9.9999762733
9.99997837234
9.99998182796
9.99998570593
9.99998928844
9.99999217957
9.99999427306
9.99999565265
9.99999648288
9.99999693568
9.99999714834
9.99999721733
9.99999720118
9.99999713657
9.99999704451
9.99999693998
9.99999683013
9.99999671893
9.99999660469
9.9999964852
9.99999635644
9.99999621717
9.99999606662
9.99999590732
9.99999574195
9.99999557484
9.99999541014
9.99999525103
9.99999510395
9.99999497407
9.99999486197
9.99999476774
9.99999469078
9.99999463037
9.9999945855
9.99999455514
9.99999453822
9.99999453365
9.99999454049
9.99999455785
9.99999458512
9.99999462166
9.99999466735
9.99999472181
9.99999478549
9.9999948581
9.99999494074
9.99999503283
9.99999513639
9.99999524987
9.99999537671
9.99999551351
9.99999566545
9.99999582761
9.99999600333
9.99999619613
9.99999638194
9.99999662588
9.99999677682
9.99999712921
9.99999717458
9.99999999031
9.99999986575
9.99999976602
9.99999969385
9.99999963127
9.99999956296
9.99999948224
9.99999938815
9.99999928479
9.99999917432
9.99999906264
9.99999894848
9.99999883866
9.99999872638
9.99999862471
9.99999851623
9.99999842906
9.99999832309
9.99999825983
9.99999814944
9.99999812675
9.999997993
9.99999804376
9.99999784181
9.99999803503
9.99999766397
9.9999981487
9.99999738648
9.99999848648
9.9999968518
9.99999926366
9.99999573416
10.0000009204
9.99999339563
10.000004296
9.9999886922
10.0000108124
9.99997984961
10.0000224071
9.99996484435
10.0000406937
9.99994298651
10.0000646042
9.99991791688
10.0000872198
9.99989991172
10.0000957816
9.99990204228
10.0000801697
9.99992787503
10.0000459097
9.99996270691
10.0000136439
9.99998592708
9.99999759284
9.99999372184
9.99999329971
9.99999345455
9.99999430471
9.99999599824
9.99999236624
9.9999754554
9.9999405694
9.9998917172
9.99984090488
9.99980218025
9.99978502964
9.99979126735
9.99981595068
9.99985080824
9.99988765493
9.99992059464
9.9999466894
9.99996547464
9.99997798186
9.99998580225
9.99999047026
9.99999318122
9.99999474014
9.99999562596
9.99999609402
9.99999627519
9.99999624811
9.99999607985
9.99999583711
9.99999558219
9.99999536302
9.99999520787
9.99999512454
9.9999951057
9.99999513482
9.9999951933
9.99999526384
9.99999533438
9.99999539646
9.99999544768
9.9999954874
9.99999552345
9.9999955571
9.99999558985
9.99999562276
9.99999565677
9.99999569231
9.99999572972
9.99999576897
9.99999581016
9.99999585322
9.9999958984
9.99999594582
9.9999959962
9.99999604988
9.99999610814
9.99999617136
9.99999624143
9.99999631838
9.99999640482
9.9999964999
9.99999660702
9.99999672423
9.99999685489
9.99999699816
9.9999971507
9.99999732744
9.99999748627
9.99999771933
9.99999783673
9.99999818372
9.99999818529
9.99999999147
9.99999986532
9.99999976463
9.99999968664
9.99999961727
9.99999954383
9.99999946006
9.99999936427
9.99999926013
9.99999914917
9.99999903727
9.99999892262
9.99999881234
9.99999869954
9.99999859691
9.99999848811
9.99999839871
9.99999829348
9.99999822488
9.99999811868
9.99999808322
9.99999796314
9.99999798376
9.99999781939
9.9999979426
9.99999766594
9.99999799155
9.99999745187
9.99999820055
9.99999706163
9.99999872975
9.99999623576
9.99999994596
9.99999439978
10.0000026656
9.99999032822
10.0000085879
9.99998157769
10.0000209085
9.99996398676
10.0000445699
9.99993215235
10.000084485
9.99988310735
10.0001394666
9.99982464178
10.0001929848
9.99978253569
10.0002123401
9.99979037371
10.0001721962
9.99985528432
10.0000905193
9.99993468697
10.0000236915
9.99998005564
9.99999226142
9.99999636608
10.0000026816
9.99998713436
9.99989178559
9.99967422867
9.99933355554
9.99893129589
9.99856589184
9.99832779593
9.99826416705
9.99836806069
9.99859309497
9.99887803781
9.99916658007
9.99941954896
9.99961826708
9.99976090551
9.99985576221
9.99991487174
9.9999497631
9.99996954314
9.9999805975
9.99998701087
9.99999115919
9.99999423793
9.9999967096
9.99999865156
10.0000000135
10.0000007622
10.0000009428
10.0000006704
10.0000000999
9.99999938486
9.99999865371
9.99999799467
9.99999745709
9.99999705716
9.99999678897
9.99999663277
9.99999656497
9.99999655939
9.99999660207
9.99999667421
9.9999967615
9.99999685372
9.99999694422
9.99999702915
9.99999710667
9.99999717645
9.99999723901
9.99999729567
9.99999734791
9.99999739771
9.9999974468
9.9999974974
9.99999755113
9.99999761022
9.99999767598
9.99999775041
9.9999978346
9.9999979296
9.99999803739
9.9999981554
9.99999829146
9.999998429
9.9999986015
9.99999873999
9.99999897208
9.99999906115
9.99999940805
9.99999936936
9.99999999014
9.99999986146
9.99999975455
9.99999967126
9.99999959568
9.99999951713
9.99999942976
9.9999993317
9.99999922586
9.99999911384
9.99999900047
9.99999888455
9.99999877232
9.99999865829
9.99999855266
9.9999984432
9.99999834876
9.99999824471
9.99999816673
9.99999806651
9.99999801237
9.99999790995
9.99999789171
9.99999777232
9.99999781248
9.99999764348
9.99999778843
9.99999749859
9.99999784996
9.9999972802
9.9999980714
9.99999685327
9.99999864227
9.99999588877
10.0000000518
9.99999356445
10.000003522
9.99998787153
10.0000120425
9.99997426926
10.0000321214
9.99994372361
10.0000754145
9.99988238268
10.0001561236
9.9997791954
10.0002764961
9.99964764269
10.0004009319
9.99954795388
10.0004493278
9.99956593426
10.0003534295
9.99972248755
10.0001695792
9.99988094882
10.0000433784
10.0000281771
9.9999725085
9.99956440562
9.99848998358
9.99665385704
9.994233846
9.99172445847
9.98970290629
9.98860101167
9.98857641779
9.9894962956
9.99105421896
9.99290010255
9.99472542296
9.99631671386
9.99757165886
9.99848072887
9.99909242351
9.99947852859
9.99970902219
9.99983959831
9.99990935735
9.99994381221
9.99995906468
9.99996509487
9.99996782867
9.99997040254
9.99997405493
9.99997885526
9.99998429439
9.9999897134
9.99999455664
9.99999847946
10.0000013526
10.0000032158
10.0000042129
10.0000045347
10.0000043758
10.000003909
10.0000032737
10.0000025726
10.0000018766
10.000001236
10.000000673
10.0000001954
9.99999980193
9.9999994863
9.99999923953
9.99999905196
9.99999891438
9.9999988183
9.99999875694
9.99999872407
9.99999871582
9.99999872775
9.99999875881
9.99999880503
9.99999886838
9.99999894337
9.99999903615
9.99999913635
9.99999925799
9.99999937882
9.99999953065
9.99999966198
9.99999985036
9.99999996703
10.0000002132
10.0000002592
10.0000006138
10.0000005039
9.99999999151
9.99999986122
9.99999975199
9.99999966136
9.99999957656
9.99999948923
9.99999939516
9.99999929239
9.99999918315
9.9999990684
9.99999895217
9.99999883392
9.99999871839
9.9999986022
9.99999849223
9.99999838118
9.99999828048
9.99999817636
9.99999808856
9.9999979919
9.99999792103
9.99999783021
9.99999778153
9.99999769121
9.99999767314
9.99999757103
9.9999975997
9.99999745951
9.99999756906
9.99999733435
9.99999760121
9.99999714667
9.99999775044
9.99999678111
9.99999817128
9.99999591727
9.99999930889
9.99999366874
10.0000026147
9.99998744514
10.0000124368
9.99996994184
10.0000404019
9.99992337484
10.00011179
9.99981474364
10.0002643942
9.99960901213
10.0005172459
9.99932031628
10.0008064349
9.99907339211
10.0009426712
9.99911398248
10.0006858063
9.99947355245
10.0004812699
9.99981631409
9.99855149731
9.99436379489
9.98650900242
9.97534142253
9.96239471073
9.95039241594
9.94179573301
9.93809871739
9.93955510994
9.9452025244
9.95352877288
9.96299061792
9.97225211629
9.98036692012
9.98685573442
9.99164385606
9.99493038993
9.99704711875
9.99834134099
9.99910344353
9.99954123404
9.99978706824
9.99991909308
9.99998253415
10.0000047394
10.000003536
9.99999107002
9.99997540866
9.99996139696
9.99995138776
9.99994598932
9.9999447528
9.99994672933
9.99995085176
9.99995616011
9.99996190057
9.99996754574
9.99997276911
9.99997740084
9.9999813846
9.99998473156
9.9999875019
9.9999897724
9.99999161994
9.99999311802
9.99999433193
9.99999531818
9.99999612286
9.99999678491
9.99999733345
9.99999779477
9.99999818507
9.99999852378
9.99999881669
9.99999908195
9.99999931479
9.99999953816
9.99999973291
9.99999993525
10.0000001026
10.0000002982
10.0000004381
10.0000006383
10.0000007375
10.0000009556
10.000000979
10.0000012405
10.0000011176
10.0000014748
10.0000010972
9.9999999898
9.99999985683
9.99999974031
9.99999964278
9.99999955046
9.99999945559
9.9999993548
9.99999924676
9.99999913313
9.99999901487
9.99999889501
9.99999877369
9.99999865414
9.99999853487
9.99999841995
9.99999830598
9.99999819888
9.99999809252
9.99999799598
9.99999789876
9.99999781523
9.99999772746
9.99999765926
9.99999757935
9.99999752947
9.99999745254
9.99999742683
9.99999734113
9.9999973536
9.99999723197
9.9999973174
9.99999709767
9.99999733902
9.99999688379
9.99999746022
9.99999645819
9.99999776903
9.99999559054
9.99999855287
9.99999368199
10.0000008996
9.99998838738
10.0000095447
9.99997014556
10.000042433
9.9999074137
10.0001500311
9.9997278641
10.0004222551
9.99933901841
10.0009315563
9.99870713688
10.0016574579
9.9979982002
10.0019721782
9.99857694284
10.0016357302
9.99479962796
9.98351451547
9.95627528873
9.91588855505
9.86560177469
9.81309924602