/*--------------------------------*- C++ -*----------------------------------*\
  =========                 |
  \\      /  F ield         | OpenFOAM: The Open Source CFD Toolbox
   \\    /   O peration     | Website:  https://openfoam.org
    \\  /    A nd           | Version:  7
     \\/     M anipulation  |
\*---------------------------------------------------------------------------*/
FoamFile
{
    version     2.0;
    format      ascii;
    class       volScalarField;
    location    "900";
    object      p;
}
// * * * * * * * * * * * * * * * * * * * * * * * * * * * * * * * * * * * * * //

dimensions      [0 2 -2 0 0 0 0];

internalField   nonuniform List<scalar> 
8192
(
0.000664423572229
0.00049288916805
0.000407312459755
0.000363253043363
0.00033828746611
0.000323108799959
0.000313295415905
0.000306600882827
0.000301817550181
0.000298261288098
0.000295524994821
0.000293355184505
0.000291587467085
0.000290111360578
0.000288850294251
0.000287749787087
0.000286770194567
0.000285882102202
0.000285063306009
0.000284296775135
0.000283569240355
0.000282870191742
0.000282191150106
0.000281525124851
0.000280866200768
0.000280209214485
0.000279549493015
0.000278882635437
0.000278204324155
0.000277510153653
0.000276795468354
0.00027605520261
0.000275283717564
0.000274474630189
0.000273620631416
0.000272713290942
0.000271742848486
0.000270697992829
0.000269565633417
0.000268330672535
0.000266975791434
0.000265481269093
0.000263824859307
0.00026198175792
0.000259924697917
0.000257624212252
0.000255049102272
0.000252167139635
0.00024894601168
0.000245354493605
0.0002413637994
0.000236949033109
0.000232090640612
0.000226775757658
0.000220999364414
0.000214765188255
0.000208086332683
0.000200985639977
0.000193495802475
0.000185659216697
0.000177527520896
0.000169160693799
0.000160625565644
0.00015199366938
0.000143338543133
0.000134732809628
0.000126245465512
0.000117939752613
0.000109871827537
0.000102090224832
9.46359041475e-05
8.75425845378e-05
8.08371056425e-05
7.45396685548e-05
6.86639243825e-05
6.32169662902e-05
5.81993295611e-05
5.3605118224e-05
4.94223532852e-05
4.56335889477e-05
4.22167832931e-05
3.91463589454e-05
3.63943577019e-05
3.39315860168e-05
3.17286614773e-05
2.97568964358e-05
2.79889855064e-05
2.63994909911e-05
2.49651415416e-05
2.3664971741e-05
2.24803363408e-05
2.13948323727e-05
2.03941595435e-05
1.94659435261e-05
1.85995418445e-05
1.77858461208e-05
1.70170906768e-05
1.62866732101e-05
1.55889912523e-05
1.49192954941e-05
1.42735603988e-05
1.36483710265e-05
1.30408251133e-05
1.24484485904e-05
1.18691232198e-05
1.13010244871e-05
1.07425685149e-05
1.01923663809e-05
9.64918486206e-06
9.11191233939e-06
8.57952922215e-06
8.05108205777e-06
7.52566115909e-06
7.00238157312e-06
6.48036809968e-06
5.95874553778e-06
5.43663695588e-06
4.91317462034e-06
4.38753219774e-06
3.85899308904e-06
3.32708200467e-06
2.79180944434e-06
2.25412438871e-06
1.7167651108e-06
1.1859123534e-06
6.74579986265e-07
2.10953121963e-07
-6.42752071883e-08
0.000515494376926
0.000451996127658
0.000402341029613
0.000369734307009
0.000347860642553
0.000332725204216
0.000321946736007
0.000314059032342
0.000308136278232
0.000303579969994
0.000299994170076
0.000297110939237
0.000294744937712
0.000292765269661
0.000291077681581
0.000289613080475
0.000288319977144
0.000287159411938
0.000286101479907
0.000285122905395
0.000284205317682
0.000283334002764
0.000282496983651
0.000281684330292
0.000280887631902
0.000280099585064
0.000279313663656
0.000278523847842
0.000277724395525
0.00027690964162
0.000276073815364
0.000275210867874
0.000274314304043
0.000273377013992
0.000272391100891
0.000271347703067
0.000270236810221
0.000269047075246
0.000267765626012
0.000266377884302
0.000264867403367
0.000263215739811
0.000261402380901
0.000259404753072
0.000257198341629
0.000254756953148
0.000252053149896
0.000249058877537
0.000245746292654
0.000242088775179
0.000238062085191
0.000233645598648
0.000228823538666
0.000223586114706
0.000217930493399
0.000211861550221
0.000205392381024
0.000198544577539
0.000191348279411
0.000183842002463
0.000176072203066
0.000168092485132
0.000159962326022
0.000151745253234
0.000143506557642
0.000135310817572
0.000127219599207
0.000119289634062
0.000111571653521
0.000104109880024
9.69419991404e-05
9.00993674712e-05
8.36072489052e-05
7.74849680284e-05
7.17459603882e-05
6.63977643388e-05
6.14420359394e-05
5.68746792759e-05
5.26861661339e-05
4.88620794857e-05
4.53838670769e-05
4.22297506758e-05
3.93757118789e-05
3.67964703267e-05
3.4466381247e-05
3.23602003933e-05
3.04536888288e-05
2.87240519585e-05
2.71502240438e-05
2.57130195807e-05
2.43951778455e-05
2.31813269971e-05
2.20578920717e-05
2.10129670766e-05
2.00361675277e-05
1.91184753626e-05
1.82520850284e-05
1.74302562736e-05
1.66471773344e-05
1.58978401564e-05
1.51779285062e-05
1.44837186441e-05
1.38119920984e-05
1.31599594213e-05
1.25251940108e-05
1.19055747068e-05
1.12992362226e-05
1.07045262406e-05
1.01199684088e-05
9.54423033268e-06
8.97609609075e-06
8.41444275564e-06
7.85822090683e-06
7.30643924157e-06
6.75815410767e-06
6.2124652887e-06
5.66852065678e-06
5.12553376812e-06
4.58282125069e-06
4.0398707526e-06
3.49645699495e-06
2.9528341069e-06
2.41005062932e-06
1.87046488112e-06
1.33859422218e-06
8.2257405708e-07
3.36095406397e-07
-9.20842900043e-09
0.000432506601794
0.000409860941375
0.000383903220395
0.000362706995899
0.00034662916998
0.000334357618547
0.000324871130011
0.000317441132782
0.000311545171691
0.000306803916603
0.00030293912065
0.000299744883658
0.000297067548352
0.000294791448125
0.000292828729015
0.000291112041897
0.000289589266341
0.000288219676422
0.000286971133176
0.000285818010896
0.000284739650878
0.000283719196354
0.000282742704853
0.000281798463448
0.000280876453354
0.000279967925123
0.00027906505352
0.000278160652999
0.00027724793846
0.000276320316416
0.000275371197852
0.000274393825264
0.000273381108285
0.000272325463282
0.000271218653995
0.000270051631141
0.000268814370812
0.000267495712717
0.00026608320193
0.000264562939953
0.000262919454583
0.000261135601423
0.000259192514528
0.000257069627576
0.000254744790938
0.000252194511647
0.000249394342165
0.000246319437559
0.000242945288393
0.000239248617878
0.0002352084082
0.000230806997368
0.000226031169711
0.00022087315837
0.00021533148835
0.000209411614073
0.000203126335114
0.00019649600033
0.000189548521672
0.000182319212027
0.000174850424395
0.000167190906682
0.000159394729412
0.000151519679717
0.000143625177698
0.000135769991663
0.000128010126269
0.000120397169766
0.000112977272991
0.00010579075682
9.8872154153e-05
9.22504317993e-05
8.59491965051e-05
7.99867997812e-05
7.43763403871e-05
6.91256142987e-05
6.42370903705e-05
5.97079991004e-05
5.55306034987e-05
5.16926820379e-05
4.81782072552e-05
4.49681658945e-05
4.20414454826e-05
3.93757098039e-05
3.69481982012e-05
3.47364040884e-05
3.2718610787e-05
3.08742819082e-05
2.9184317911e-05
2.76311982151e-05
2.61990320043e-05
2.4873540096e-05
2.36419884503e-05
2.24930899898e-05
2.14168884143e-05
2.0404633798e-05
1.94486574791e-05
1.85422508595e-05
1.76795514958e-05
1.68554379689e-05
1.6065434585e-05
1.53056257756e-05
1.45725801223e-05
1.38632831805e-05
1.31750785888e-05
1.25056164529e-05
1.18528084089e-05
1.12147884237e-05
1.05898788395e-05
9.97656091874e-06
9.37344961223e-06
8.77927211026e-06
8.19285024436e-06
7.61308676947e-06
7.03895617802e-06
6.46950088823e-06
5.90383454109e-06
5.34115477624e-06
4.7807693389e-06
4.22214090497e-06
3.66495878189e-06
3.10924919866e-06
2.55554191243e-06
2.00511918051e-06
1.46038275194e-06
9.25299728572e-07
4.05090984913e-07
6.03143479434e-09
0.000387901557887
0.000379544096742
0.000365387686932
0.000351632422809
0.000340239213915
0.000330995626759
0.000323448059358
0.000317227850578
0.000312056694759
0.00030772198396
0.000304057965114
0.000300933588788
0.000298244407721
0.000295906785359
0.000293853521093
0.000292030442366
0.000290393714288
0.000288907706273
0.000287543298775
0.00028627653872
0.000285087570561
0.000283959784246
0.00028287913329
0.000281833585702
0.000280812678371
0.000279807152662
0.000278808648875
0.00027780944982
0.000276802262461
0.000275780024686
0.000274735731493
0.000273662274642
0.000272552291112
0.00027139801658
0.000270191141297
0.000268922666593
0.000267582761521
0.000266160620394
0.000264644323832
0.000263020707971
0.000261275249359
0.000259391976323
0.000257353421604
0.000255140635241
0.000252733280804
0.000250109840841
0.000247247957643
0.00024412493103
0.00024071838413
0.000237007090174
0.000232971929123
0.000228596917088
0.000223870230772
0.000218785142192
0.000213340790252
0.00020754274424
0.000201403349612
0.000194941876924
0.000188184510786
0.000181164213349
0.000173920460964
0.000166498765678
0.000158949787452
0.000151327849663
0.000143688878642
0.000136088094827
0.000128577904489
0.000121206299068
0.000114015950798
0.000107043995943
0.000100322250856
9.38775442119e-05
8.77319544295e-05
8.19028912758e-05
7.64030475785e-05
7.12402841525e-05
6.64175352218e-05
6.19328313943e-05
5.77795165353e-05
5.39466891348e-05
5.04198468046e-05
4.71816727497e-05
4.42128833826e-05
4.14930572738e-05
3.90013815638e-05
3.67172753504e-05
3.46208730796e-05
3.26933699372e-05
3.09172438112e-05
2.92763747224e-05
2.77560843509e-05
2.63431168038e-05
2.50255789176e-05
2.3792854746e-05
2.26355056104e-05
2.15451639356e-05
2.05144267802e-05
1.9536752874e-05
1.86063656778e-05
1.77181637425e-05
1.686763906e-05
1.60508034083e-05
1.52641225269e-05
1.45044575811e-05
1.37690134262e-05
1.30552929741e-05
1.23610571185e-05
1.16842895563e-05
1.10231660418e-05
1.03760275427e-05
9.74135698874e-06
9.11775927929e-06
8.50394446436e-06
7.89871404298e-06
7.30095062387e-06
6.70961131713e-06
6.123725638e-06
5.54239901493e-06
4.96482367454e-06
4.39029944685e-06
3.81826847867e-06
3.24836990097e-06
2.68052357119e-06
2.11505335249e-06
1.5528406187e-06
9.95348687416e-07
4.43641973826e-07
8.67620853309e-09
0.000360228757554
0.000358299847847
0.000350539344639
0.000341381845711
0.000333131777927
0.000326126030206
0.000320207354848
0.00031517032634
0.000310846593188
0.000307106512993
0.00030384886787
0.000300992452711
0.000298470666747
0.000296228127125
0.000294218429056
0.000292402534394
0.000290747521404
0.000289225565105
0.000287813083838
0.000286490017346
0.000285239214441
0.000284045913644
0.000282897302891
0.000281782145962
0.000280690464783
0.000279613268632
0.00027854231704
0.000277469915063
0.000276388735035
0.000275291654191
0.000274171606088
0.000273021441737
0.000271833797123
0.000270600964319
0.000269314764115
0.00026796641864
0.000266546423399
0.00026504441905
0.000263449064714
0.000261747916338
0.000259927316113
0.000257972301995
0.000255866550349
0.00025359236922
0.000251130764622
0.000248461606403
0.000245563922221
0.00024241634584
0.000238997736482
0.000235287967981
0.00023126885975
0.000226925191222
0.000222245715294
0.000217224076183
0.000211859549853
0.000206157560314
0.000200129969357
0.000193795174684
0.000187178072337
0.000180309945127
0.000173228308639
0.000165976628827
0.000158603634561
0.000151161899576
0.000143705661172
0.000136288312913
0.000128960159293
0.000121766780271
0.000114748226464
0.000107939036496
0.000101368715232
9.50622405728e-05
8.90403577717e-05
8.33196407467e-05
7.79123848617e-05
7.28264100233e-05
6.8064875386e-05
6.36262228596e-05
5.95043417168e-05
5.56889879852e-05
5.21664290758e-05
4.89202390048e-05
4.59321507144e-05
4.31828774032e-05
4.06528366092e-05
3.83227390716e-05
3.61740308832e-05
3.41891969618e-05
3.23519454648e-05
3.06472972397e-05
2.90616043149e-05
2.7582518459e-05
2.61989270428e-05
2.49008693281e-05
2.36794429144e-05
2.25267070487e-05
2.14355874083e-05
2.03997851643e-05
1.9413692074e-05
1.8472312378e-05
1.75711918451e-05
1.67063538058e-05
1.58742419126e-05
1.50716691083e-05
1.42957723364e-05
1.35439723952e-05
1.28139384531e-05
1.21035566723e-05
1.14109025267e-05
1.07342163581e-05
1.00718818632e-05
9.42240717932e-06
8.78440839299e-06
8.15659529502e-06
7.53775938015e-06
6.92676414278e-06
6.32253796382e-06
5.7240700779e-06
5.13041058249e-06
4.5406760369e-06
3.9540632311e-06
3.36987478588e-06
2.78756023338e-06
2.2067683474e-06
1.62736484842e-06
1.04920573613e-06
4.7102296804e-07
9.35044384222e-09
0.000341832056173
0.000342776751877
0.000338778070519
0.000332679916853
0.000326615242941
0.000321206294563
0.000316503797855
0.000312412962466
0.000308827271468
0.00030565830228
0.000302836736265
0.000300307794918
0.000298027035153
0.00029595744556
0.000294067592918
0.000292330437306
0.0002907225355
0.000289223462816
0.000287815359869
0.000286482555478
0.000285211241101
0.000283989184246
0.000282805473965
0.000281650294031
0.00028051472089
0.000279390542436
0.000278270091798
0.000277146098403
0.000276011554605
0.000274859589224
0.000273683348573
0.000272475882543
0.000271230033593
0.000269938326748
0.000268592859008
0.000267185186939
0.000265706211699
0.000264146061514
0.000262493972598
0.000260738171044
0.000258865760329
0.000256862622047
0.000254713341428
0.000252401174293
0.000249908077867
0.000247214833849
0.000244301296328
0.000241146797233
0.000237730734108
0.000234033346425
0.000230036656094
0.000225725510253
0.000221088630073
0.00021611955376
0.00021081737666
0.000205187236627
0.00019924055084
0.000192995056781
0.000186474735135
0.000179709710344
0.000172736216078
0.000165596564427
0.000158338723942
0.000151014943426
0.000143679298186
0.000136384798986
0.000129180876916
0.000122111634072
0.000115215130857
0.000108523721226
0.000102064904328
9.58620646633e-05
8.99348250059e-05
8.42990720327e-05
7.89667750486e-05
7.39456871885e-05
6.92390459161e-05
6.48454218556e-05
6.07588333955e-05
5.69691646916e-05
5.34628439629e-05
5.02236866047e-05
4.72337898663e-05
4.44743778598e-05
4.19265257666e-05
3.95717278555e-05
3.73923045675e-05
3.53716647728e-05
3.34944495741e-05
3.17465865028e-05
3.01152804173e-05
2.85889628121e-05
2.71572160951e-05
2.58106848191e-05
2.45409820858e-05
2.33405965022e-05
2.22028030168e-05
2.11215795093e-05
2.00915300673e-05
1.91078152225e-05
1.81660890568e-05
1.72624428169e-05
1.63933545882e-05
1.55556444767e-05
1.47464347773e-05
1.39631145734e-05
1.32033082895e-05
1.24648477049e-05
1.17457470289e-05
1.10441806279e-05
1.03584630889e-05
9.68703129635e-06
9.02842829118e-06
8.3812886859e-06
7.74432551529e-06
7.1163184468e-06
6.49610344432e-06
5.88256413702e-06
5.27462547483e-06
4.67125059479e-06
4.0714421555e-06
3.47424884764e-06
2.87877395933e-06
2.2841677056e-06
1.68953637165e-06
1.09357451234e-06
4.93528626217e-07
1.04992477412e-08
0.000328912956262
0.000331095453174
0.000329346431985
0.000325366243278
0.000320907605241
0.000316688698214
0.00031289971072
0.000309535617943
0.000306539484486
0.000303851201728
0.000301419982679
0.000299205183495
0.000297174259899
0.000295300602459
0.000293561893191
0.000291938984992
0.000290415162472
0.000288975649354
0.000287607265948
0.000286298175444
0.000285037682654
0.000283816064609
0.000282624421686
0.000281454543094
0.000280298784732
0.000279149953271
0.000278001196413
0.00027684590073
0.000275677597213
0.000274489867558
0.000273276252887
0.000272030163488
0.000270744788198
0.0002694130021
0.000268027271288
0.000266579553543
0.000265061194067
0.000263462815835
0.000261774204858
0.000259984191865
0.000258080533746
0.000256049800967
0.000253877281184
0.000251546914924
0.000249041286216
0.000246341699071
0.000243428377764
0.000240280832135
0.000236878423468
0.000233201147359
0.000229230614338
0.000224951161253
0.000220350979794
0.000215423124332
0.000210166278006
0.000204585216046
0.000198690984096
0.000192500867649
0.00018603825277
0.000179332511187
0.000172419088469
0.000165339815343
0.00015814288987
0.000150881551372
0.000143611154752
0.00013638566353
0.000129254728393
0.000122261740291
0.000115443203474
0.000108829519047
0.00010244637352
9.63157737574e-05
9.04564310699e-05
8.48837177862e-05
7.9609393364e-05
7.46411791145e-05
6.99823123305e-05
6.56312788734e-05
6.1581879132e-05
5.78236678029e-05
5.4342702638e-05
5.11224762379e-05
4.81448900343e-05
4.5391151004e-05
4.28425136964e-05
4.0480835805e-05
3.82889519185e-05
3.62508921033e-05
3.43519806129e-05
3.25788494934e-05
3.09193965165e-05
2.93627100221e-05
2.78989767627e-05
2.65193835197e-05
2.52160192859e-05
2.39817819944e-05
2.28102919079e-05
2.16958125624e-05
2.0633179435e-05
1.96177360569e-05
1.86452770764e-05
1.77119976569e-05
1.68144485723e-05
1.59494963657e-05
1.51142879795e-05
1.43062193025e-05
1.35229071386e-05
1.27621641389e-05
1.20219762951e-05
1.1300482623e-05
1.05959567124e-05
9.90678984327e-06
9.23147541343e-06
8.56859444783e-06
7.91680201688e-06
7.27481444015e-06
6.64139724457e-06
6.01535394009e-06
5.39551577791e-06
4.78073260624e-06
4.16986438559e-06
3.56177076036e-06
2.95528951373e-06
2.3491768796e-06
1.74193996146e-06
1.13141248647e-06
5.13870043898e-07
1.33326742201e-08
0.000319430492347
0.00032208557396
0.000321690232052
0.000319194873164
0.000315952468443
0.00031265995957
0.000309584045384
0.000306787896535
0.000304257798509
0.00030195861965
0.000299854287452
0.000297913731815
0.000296111539218
0.000294427039237
0.000292843170351
0.000291345531023
0.000289921680928
0.000288560652328
0.000287252612974
0.000285988630284
0.00028476050033
0.000283560617228
0.000282381867356
0.000281217538753
0.000280061242685
0.000278906835565
0.000277748345622
0.000276579903633
0.000275395676395
0.000274189798199
0.000272956301612
0.000271689046566
0.000270381646717
0.000269027391953
0.000267619165906
0.000266149357269
0.000264609763777
0.00026299148794
0.000261284824024
0.000259479136725
0.000257562733502
0.00025552273523
0.000253344953908
0.000251013792411
0.000248512189552
0.000245821644291
0.000242922363499
0.000239793585288
0.000236414127617
0.000232763192886
0.000228821417198
0.000224572091665
0.000220002418383
0.000215104626024
0.000209876787944
0.000204323267177
0.000198454823212
0.000192288490061
0.000185847344753
0.000179160326805
0.00017226242868
0.000165195482023
0.000158008804693
0.000150757983323
0.00014350116882
0.000136294632278
0.000129189307524
0.000122228545797
0.000115447547564
0.000108874801074
0.000102534264339
9.64467548071e-05
9.0630286339e-05
8.50999034773e-05
7.98673020057e-05
7.49402493815e-05
7.03219469144e-05
6.6010615342e-05
6.19995135474e-05
5.82774290558e-05
5.48295409284e-05
5.16384864976e-05
4.86854539028e-05
4.59511575885e-05
4.34166121934e-05
4.10636793779e-05
3.88754053138e-05
3.68361896237e-05
3.49318322196e-05
3.31495000737e-05
3.14776468081e-05
2.99059086437e-05
2.84249920738e-05
2.70265626876e-05
2.57031402955e-05
2.44480028772e-05
2.32551001678e-05
2.21189767943e-05
2.10347043479e-05
1.99978215756e-05
1.900428179e-05
1.8050406625e-05
1.71328453187e-05
1.62485387856e-05
1.53946878222e-05
1.45687248621e-05
1.37682887778e-05
1.29912022714e-05
1.22354514677e-05
1.14991673471e-05
1.07806087142e-05
1.00781464069e-05
9.39024850239e-06
8.71546628025e-06
8.05242074968e-06
7.39978955386e-06
6.75629409652e-06
6.12068669133e-06
5.49173740145e-06
4.868219739e-06
4.24889310202e-06
3.63247653855e-06
3.0176007369e-06
2.40270831657e-06
1.78584081726e-06
1.16421027994e-06
5.33465655883e-07
1.8543058578e-08
0.000312221215087
0.000314992554683
0.000315410613125
0.00031395999634
0.000311649262262
0.000309096946407
0.000306597700274
0.000304260113953
0.00030210579171
0.000300122293692
0.00029828724727
0.000296577943549
0.000294974447968
0.000293460098845
0.000292021105642
0.000290645944067
0.000289324798968
0.000288049121963
0.000286811302028
0.000285604426652
0.000284422109155
0.000283258361782
0.00028210749934
0.000280964062409
0.000279822756698
0.000278678392687
0.000277525830129
0.000276359929012
0.000275175499808
0.00027396725165
0.000272729738435
0.000271457301867
0.000270144010371
0.000268783592733
0.000267369365199
0.00026589415063
0.000264350188184
0.000262729032036
0.000261021437735
0.000259217235461
0.000257305190601
0.000255272854476
0.000253106412162
0.000250790540998
0.000248308303214
0.00024564110939
0.000242768804646
0.000239669942725
0.000236322316343
0.000232703794412
0.000228793467968
0.000224573027022
0.000220028200248
0.000215150029995
0.000209935772368
0.000204389323632
0.000198521234764
0.000192348476425
0.000185894084345
0.00017918683009
0.000172261433133
0.000165159998484
0.000157933805179
0.000150642352305
0.00014334834737
0.000136111853095
0.000128986222994
0.000122015421057
0.000115233408911
0.000108666576862
0.000102337140274
9.62649213992e-05
9.04674632211e-05
8.49596699104e-05
7.97533340704e-05
7.48563738867e-05
7.02719364954e-05
6.59977936943e-05
6.20263179044e-05
5.83450625976e-05
5.49377942647e-05
5.17857491133e-05
4.88688880916e-05
4.61669781177e-05
4.36604082846e-05
4.13307262337e-05
3.9160931226e-05
3.71355831802e-05
3.52407881049e-05
3.34641102069e-05
3.179444727e-05
3.02218933662e-05
2.87376031959e-05
2.73336656508e-05
2.60029898981e-05
2.47392048012e-05
2.35365711345e-05
2.23899054384e-05
2.12945141275e-05
2.02461364736e-05
1.92408951804e-05
1.82752534183e-05
1.73459773293e-05
1.64501031647e-05
1.55849083312e-05
1.47478857394e-05
1.39367209289e-05
1.31492715253e-05
1.2383548637e-05
1.16376998553e-05
1.09099935522e-05
1.01988042048e-05
9.50259849304e-06
8.81992193614e-06
8.14938582665e-06
7.4896542105e-06
6.83943058778e-06
6.19744385274e-06
5.56243260744e-06
4.93312615224e-06
4.30821864218e-06
3.6863291196e-06
3.06593254698e-06
2.44523307675e-06
1.82192999091e-06
1.19281107048e-06
5.53142782238e-07
2.65792666808e-08
0.000306589533534
0.000309314593637
0.000310216724171
0.00030950126444
0.000307906021157
0.00030595207016
0.00030393001994
0.00030197370075
0.000300130889015
0.000298408576421
0.000296797162726
0.00029528197016
0.00029384814618
0.000292482414558
0.000291173444149
0.000289911679715
0.000288689013069
0.000287498449818
0.000286333825393
0.000285189580598
0.000284060590349
0.00028294203459
0.000281829300544
0.000280717907228
0.000279603447984
0.000278481537249
0.000277347760345
0.000276197634948
0.000275026569786
0.000273829822328
0.000272602454188
0.000271339283057
0.000270034829889
0.000268683260025
0.000267278316714
0.000265813245336
0.000264280706313
0.000262672674516
0.000260980322807
0.000259193887601
0.000257302515082
0.000255294088756
0.00025315504285
0.000250870173203
0.0002484224684
0.000245793000483
0.000242960935139
0.000239903742473
0.000236597700692
0.000233018771526
0.000229143870353
0.000224952451341
0.000220428200745
0.000215560538348
0.000210345638178
0.00020478683252
0.000198894503479
0.000192685716742
0.00018618373
0.000179417391539
0.000172421159965
0.000165237389732
0.000157920135101
0.00015053482004
0.000143150932121
0.000135834034094
0.000128641232928
0.00012161785095
0.000114796451178
0.000108200838816
0.000101851394751
9.57672048914e-05
8.99655861906e-05
8.44614602539e-05
7.92668663723e-05
7.43899849186e-05
6.98338784523e-05
6.5595639574e-05
6.16663375116e-05
5.80317443045e-05
5.46736065193e-05
5.1571159109e-05
4.87025930489e-05
4.60462691504e-05
4.35815820203e-05
4.12894774063e-05
3.91526859582e-05
3.71557570122e-05
3.5284969586e-05
3.35281801216e-05
3.1874646855e-05
3.03148548062e-05
2.88403537785e-05
2.74436146457e-05
2.61179048824e-05
2.48571822671e-05
2.36560046613e-05
2.25094536166e-05
2.14130695871e-05
2.0362796829e-05
1.93549363072e-05
1.83861052376e-05
1.74532021085e-05
1.65533762484e-05
1.56840011589e-05
1.48426509761e-05
1.4027079526e-05
1.32352015263e-05
1.24650755527e-05
1.17148884387e-05
1.09829408176e-05
1.02676335384e-05
9.56745470412e-06
8.88096707695e-06
8.20679556939e-06
7.54361447448e-06
6.89013394875e-06
6.24508497687e-06
5.60720149578e-06
4.97519727752e-06
4.34773311871e-06
3.72336606249e-06
3.10046565999e-06
2.47707176544e-06
1.85065610275e-06
1.21774759431e-06
5.7341701139e-07
3.77312006221e-08
0.000302100861822
0.000304709229822
0.000305892520984
0.000305693428068
0.000304646944338
0.000303178278007
0.000301555804322
0.000299922986259
0.000298344879528
0.000296843873662
0.000295421660485
0.000294071178379
0.000292782547652
0.000291545753123
0.000290351685594
0.000289192409593
0.000288061099063
0.000286951854903
0.000285859501462
0.000284779401461
0.000283707301551
0.000282639208679
0.000281571292861
0.000280499812046
0.000279421052489
0.000278331277484
0.000277226678461
0.000276103339551
0.000274957200034
0.000273784016565
0.000272579323465
0.000271338389617
0.000270056170478
0.000268727253614
0.000267345795959
0.000265905450687
0.000264399281158
0.000262819658959
0.000261158142612
0.000259405333246
0.000257550703841
0.000255582400018
0.000253487013857
0.000251249339284
0.000248852130082
0.000246275901337
0.000243498842498
0.000240496941487
0.000237244442999
0.000233714759042
0.000229881888843
0.00022572227351
0.000221216832154
0.000216352779869
0.00021112482294
0.000205535532843
0.000199595067439
0.000193320665524
0.00018673606342
0.000179870469922
0.000172757906673
0.000165440458554
0.000157975715174
0.000150437894255
0.000142906273689
0.000135453905943
0.000128143367095
0.000121022388078
0.000114121655333
0.000107461441235
0.000101060168358
9.49366094455e-05
8.91080989161e-05
8.35896289103e-05
7.83935775104e-05
7.35284754643e-05
6.89972150261e-05
6.47958751433e-05
6.09136718126e-05
5.73339100971e-05
5.40355865968e-05
5.09952425957e-05
4.81887016254e-05
4.55924409486e-05
4.31845010856e-05
4.09449657118e-05
3.88561125698e-05
3.69023501291e-05
3.50700371323e-05
3.33472539543e-05
3.17235682167e-05
3.01898172104e-05
2.8737916697e-05
2.73606981372e-05
2.60517725698e-05
2.48054177706e-05
2.36164849631e-05
2.24803215745e-05
2.13927070095e-05
2.03497989183e-05
1.93480879251e-05
1.83843591822e-05
1.74556594554e-05
1.65592687035e-05
1.56926753297e-05
1.48535544339e-05
1.40397485295e-05
1.32492502711e-05
1.24801868231e-05
1.17308055422e-05
1.09994606928e-05
1.02846009288e-05
9.58475728439e-06
8.89853139741e-06
8.22458363637e-06
7.56162069575e-06
6.90838202179e-06
6.26362405839e-06
5.62610063279e-06
4.99453660317e-06
4.36758979395e-06
3.74379270378e-06
3.12145991194e-06
2.49853966369e-06
1.87238167626e-06
1.23939690994e-06
5.94613655678e-07
5.21634350981e-08
0.00029847211572
0.00030093688433
0.000302274840874
0.000302436918955
0.000301810101284
0.000300734613694
0.000299448186631
0.000298093071663
0.000296743980487
0.000295434512256
0.00029417572543
0.000292967448326
0.00029180457399
0.000290680315639
0.000289587756406
0.000288520494793
0.000287472836989
0.000286439778712
0.00028541690192
0.000284400247937
0.000283386194946
0.000282371350593
0.00028135246202
0.000280326344907
0.000279289823284
0.000278239677728
0.000277172598622
0.000276085150229
0.0002749737346
0.000273834555645
0.000272663581675
0.000271456504754
0.000270208695212
0.000268915149468
0.000267570429081
0.000266168588494
0.000264703088355
0.00026316669061
0.000261551330694
0.000259847961421
0.000258046362705
0.000256134911899
0.000254100312163
0.000251927283061
0.000249598230776
0.000247092938566
0.000244388352812
0.00024145858469
0.000238275288907
0.000234808591894
0.000231028680176
0.000226907993719
0.000222423718011
0.000217560041032
0.000212309600267
0.000206673814588
0.000200662355823
0.000194292508271
0.000187588684093
0.000180580873977
0.000173302297606
0.000165793346072
0.000158115712292
0.000150356916094
0.000142610352293
0.000134958771996
0.000127472645636
0.000120203918543
0.000113180392926
0.000106417079137
9.99303926153e-05
9.37395468849e-05
8.78620395558e-05
8.23127098679e-05
7.71042211491e-05
7.22454692259e-05
6.77389660409e-05
6.35792557843e-05
5.9752940677e-05
5.623997084e-05
5.30156911699e-05
5.00531328185e-05
4.73250844098e-05
4.48056411766e-05
4.24711451577e-05
4.03005953527e-05
3.82756805822e-05
3.63805893867e-05
3.46017163932e-05
3.29273430617e-05
3.13473358012e-05
2.98528809089e-05
2.84362614621e-05
2.70906741414e-05
2.58100807308e-05
2.4589088385e-05
2.34228530152e-05
2.23070010228e-05
2.12375654344e-05
2.02109333583e-05
1.9223802327e-05
1.82731436683e-05
1.73561714534e-05
1.64703159064e-05
1.56132004019e-05
1.47826213623e-05
1.39765305072e-05
1.3193019008e-05
1.24303031823e-05
1.16867114099e-05
1.09606719974e-05
1.02507017241e-05
9.5553948114e-06
8.8734120104e-06
8.20346944496e-06
7.54432669365e-06
6.89477335719e-06
6.2536129212e-06
5.61964200043e-06
4.99162182276e-06
4.36823682255e-06
3.74803211192e-06
3.1293172314e-06
2.51001856755e-06
1.88745994669e-06
1.25805633637e-06
6.16925870407e-07
6.99302322441e-08
0.000295511380621
0.000297825759495
0.000299238518836
0.000299651165886
0.000299344050765
0.000298586177297
0.000297582389566
0.000296466932311
0.000295318216097
0.000294177193248
0.000293062191056
0.000291978946614
0.000290926747212
0.000289901933179
0.000288899775433
0.000287915410102
0.00028694425135
0.000285982128953
0.000285025289567
0.000284070337339
0.000283114153372
0.0002821538135
0.000281186512665
0.000280209502478
0.000279220035762
0.0002782153136
0.000277192442896
0.000276148399826
0.000275079994563
0.00027398383631
0.000272856297009
0.000271693472022
0.000270491136014
0.000269244691997
0.000267949111191
0.000266598860741
0.000265187815595
0.000263709149822
0.000262155201389
0.000260517303023
0.000258785570486
0.000256948639103
0.000254993340791
0.000252904319501
0.000250663596324
0.00024825012136
0.000245639392495
0.000242803282113
0.000239710279622
0.00023632639553
0.000232616920505
0.000228549028712
0.000224094864925
0.000219234402875
0.000213957253886
0.000208262937834
0.000202159961351
0.00019566503666
0.000188803189844
0.000181605900079
0.000174105118308
0.000166336384763
0.000158365439631
0.000150300864021
0.000142256745877
0.00013432756918
0.000126595493632
0.000119120246544
0.000111924717004
0.000105015485319
9.84072311424e-05
9.21209583066e-05
8.61740743506e-05
8.05803992699e-05
7.53525313019e-05
7.04995930631e-05
6.60232725396e-05
6.19157574336e-05
5.81599760953e-05
5.47313707378e-05
5.16005223291e-05
4.87359958547e-05
4.61068128827e-05
4.3684186414e-05
4.14424569207e-05
3.93593805726e-05
3.74159941885e-05
3.55962594905e-05
3.38866299923e-05
3.22756249213e-05
3.07534508634e-05
2.93116846034e-05
2.7943016144e-05
2.66410444371e-05
2.54001165368e-05
2.42152012146e-05
2.30817893841e-05
2.19958151188e-05
2.09535924424e-05
1.99517641814e-05
1.89872601024e-05
1.80572622201e-05