/*--------------------------------*- C++ -*----------------------------------*\
  =========                 |
  \\      /  F ield         | OpenFOAM: The Open Source CFD Toolbox
   \\    /   O peration     | Website:  https://openfoam.org
    \\  /    A nd           | Version:  7
     \\/     M anipulation  |
\*---------------------------------------------------------------------------*/
FoamFile
{
    version     2.0;
    format      ascii;
    class       surfaceScalarField;
    location    "900";
    object      phi;
}
// * * * * * * * * * * * * * * * * * * * * * * * * * * * * * * * * * * * * * //

dimensions      [0 3 -1 0 0 0 0];

internalField   nonuniform List<scalar> 
16192
(
6.92892839023e-10
2.44607160977e-10
4.93502371998e-10
1.99390472785e-10
3.6475610778e-10
1.28746269871e-10
2.82189229484e-10
8.25668835991e-11
2.27602695406e-10
5.45865392795e-11
1.90048440835e-10
3.75542597266e-11
1.63179471529e-10
2.68689744625e-11
1.43279509742e-10
1.98999669706e-11
1.28111546109e-10
1.51679688595e-11
1.16281250029e-10
1.18303013352e-11
1.06887007562e-10
9.39424773985e-12
9.93246847646e-11
7.56232805755e-12
9.31760034258e-11
6.1486865671e-12
8.81428215033e-11
5.033187081e-12
8.40072147829e-11
4.13561179194e-12
8.06064630679e-11
3.40075665912e-12
7.7816900183e-11
2.78956768818e-12
7.5543191242e-11
2.27371356202e-12
7.37110287978e-11
1.83216687559e-12
7.22620411474e-11
1.44899185163e-12
7.1150168813e-11
1.11187630659e-12
7.03390380817e-11
8.11134438006e-13
6.98000268122e-11
5.39014725002e-13
6.9510820032e-11
2.89209956842e-13
6.94543188283e-11
5.65041349525e-14
6.96178076481e-11
-1.63486146548e-13
6.99923124972e-11
-3.74502374043e-13
7.05721018344e-11
-5.7978705084e-13
7.13542965752e-11
-7.82192549937e-13
7.23385606876e-11
-9.84261978108e-13
7.35268506948e-11
-1.18828779675e-12
7.49232050917e-11
-1.39635203614e-12
7.65335576815e-11
-1.61034990287e-12
7.83655583422e-11
-1.83199753557e-12
8.04283855233e-11
-2.06282340002e-12
8.27325323942e-11
-2.30414228626e-12
8.52895480417e-11
-2.55701000845e-12
8.81117118204e-11
-2.8221569117e-12
9.12116183252e-11
-3.09989814364e-12
9.46016481224e-11
-3.39001976163e-12
9.82933012632e-11
-3.69164117672e-12
1.02296373023e-10
-4.00305770803e-12
1.06617960495e-10
-4.32157112603e-12
1.11261301462e-10
-4.64332222201e-12
1.16224468742e-10
-4.9631460153e-12
1.21498969771e-10
-5.27447722225e-12
1.27068334123e-10
-5.56933800473e-12
1.3290680305e-10
-5.83844012453e-12
1.38978259955e-10
-6.07142579318e-12
1.45235548086e-10
-6.25725491828e-12
1.51620304727e-10
-6.38472163791e-12
1.58063396765e-10
-6.44305558509e-12
1.64485975827e-10
-6.42254164275e-12
1.70801099353e-10
-6.31508561031e-12
1.76915805235e-10
-6.11466811589e-12
1.82733504983e-10
-5.81766270922e-12
1.88156577144e-10
-5.42303662501e-12
1.93089099053e-10
-4.93248851343e-12
1.97439722734e-10
-4.35059327308e-12
2.01124752503e-10
-3.68500297766e-12
2.04071454562e-10
-2.94667970697e-12
2.0622148351e-10
-2.15001154193e-12
2.07534051752e-10
-1.31255642759e-12
2.07988248262e-10
-4.541905082e-13
2.0758391362e-10
4.0433453336e-13
2.06340786805e-10
1.24312079648e-12
2.04296100579e-10
2.04467443488e-12
2.01501164091e-10
2.79491950564e-12
1.9801766988e-10
3.48347247678e-12
1.93914409022e-10
4.10323513163e-12
1.89264781641e-10
4.64959821679e-12
1.84145130033e-10
5.11961981298e-12
1.78633656438e-10
5.51143979263e-12
1.72809597138e-10
5.82402431165e-12
1.6675235623e-10
6.05720538789e-12
1.60540406223e-10
6.21191472865e-12
1.54249889831e-10
6.29048195722e-12
1.47952989617e-10
6.29686725398e-12
1.41716230552e-10
6.23672805553e-12
1.35598927533e-10
6.11727439957e-12
1.29651973951e-10
5.94692766624e-12
1.23917106686e-10
5.73484428497e-12
1.18426698743e-10
5.49038804026e-12
1.13204049975e-10
5.22263197003e-12
1.08264085739e-10
4.93995052726e-12
1.03614340571e-10
4.64973439876e-12
9.92560989728e-11
4.35823362299e-12
9.51855790893e-11
4.07051443032e-12
9.13950715648e-11
3.79050436886e-12
8.78739735789e-11
3.52109678826e-12
8.46096856646e-11
3.26428842365e-12
8.15883587706e-11
3.0213287581e-12
7.87954954248e-11
2.79286632855e-12
7.62164167812e-11
2.57908242014e-12
7.38366136618e-11
2.37980749561e-12
7.16419997731e-11
2.19461859099e-12
6.96190862741e-11
2.02291838856e-12
6.77550936204e-11
1.8639975184e-12
6.60380158281e-11
1.71708255011e-12
6.44566484039e-11
1.58137192426e-12
6.30005903294e-11
1.45606228593e-12
6.16602270373e-11
1.34036711772e-12
6.04267009077e-11
1.23352957933e-12
5.92918730499e-11
1.13483087702e-12
5.82482801819e-11
1.04359549564e-12
5.72890882541e-11
9.59194139738e-13
5.64080448088e-11
8.81045297547e-13
5.55994303215e-11
8.08615975119e-13
5.48580092272e-11
7.41422281218e-13
5.41789798231e-11
6.79030295234e-13
5.35579226254e-11
6.21057856536e-13
5.29907452642e-11
5.67177795828e-13
5.24736220866e-11
5.17123446601e-13
5.20029248431e-11
4.7069735302e-13
5.15751401979e-11
4.277846458e-13
5.11867670455e-11
3.8837304542e-13
5.08341842443e-11
3.52582628372e-13
5.05134739399e-11
3.20710061611e-13
5.02201786405e-11
2.93295020802e-13
4.99489569911e-11
2.71221328062e-13
4.96930826555e-11
2.55874004379e-13
4.94436946205e-11
2.49387694404e-13
4.9188650339e-11
2.55043979204e-13
4.89107534719e-11
2.77896632723e-13
4.85850863334e-11
3.25667055973e-13
4.81756182514e-11
4.09468196481e-13
4.76341443981e-11
5.41474134502e-13
6.94807969748e-13
9.53377689759e-10
2.28729477197e-10
8.59592119499e-10
2.93176054377e-10
7.45063343052e-10
2.43275057103e-10
6.41945522017e-10
1.85684714848e-10
5.56865248973e-10
1.3966682236e-10
4.88615544644e-10
1.05803974036e-10
4.34168645196e-10
8.13158839035e-11
3.90566437959e-10
6.35021842378e-11
3.55390940619e-10
5.03434762606e-11
3.26782261793e-10
4.04389902206e-11
3.03338710988e-10
3.28378085596e-11
2.84006918614e-10
2.68941303475e-11
2.67990998327e-10
2.21646166208e-11
2.54684120165e-10
1.8340074798e-11
2.43618789223e-10
1.52009520255e-11
2.34431146377e-10
1.25884084721e-11
2.26835341299e-10
1.03853813603e-11
2.20605025938e-10
8.50403708321e-12
2.155598678e-10
6.87733269846e-12
2.11555616776e-10
5.45325003355e-12
2.08476708152e-10
4.19079153347e-12
2.06230693822e-10
3.05715477634e-12
2.047440063e-10
2.02570765956e-12
2.03958704928e-10
1.07451613027e-12
2.03829954012e-10
1.85259275866e-13
2.04324050958e-10
-6.57579419323e-13
2.05416869283e-10
-1.46731749363e-12
2.07092617323e-10
-2.25553227714e-12
2.09342837303e-10
-3.03240995881e-12
2.12165582007e-10
-3.80700421008e-12
2.155647185e-10
-4.58742169635e-12
2.19549314401e-10
-5.38094500333e-12
2.24133066785e-10
-6.19409871186e-12
2.29333734202e-10
-7.03266044217e-12
2.35172532654e-10
-7.90161603178e-12
2.41673453523e-10
-8.8050556655e-12
2.48862459755e-10
-9.74600665525e-12
2.56766513019e-10
-1.07261980932e-11
2.65412383945e-10
-1.1745754048e-11
2.74825197674e-10
-1.28028151354e-11
2.8502667328e-10
-1.38930946867e-11
2.96033027055e-10
-1.50093853136e-11
3.07852532009e-10
-1.61410455336e-11
3.20482758244e-10
-1.72735133266e-11
3.33907565065e-10
-1.8387912983e-11
3.48093971853e-10
-1.94608394112e-11
3.62989097972e-10
-2.04644148641e-11
3.78517420821e-10
-2.13667092613e-11
3.94578642653e-10
-2.21325898103e-11
4.11046464136e-10
-2.27250149599e-11
4.2776852263e-10
-2.31067157096e-11
4.44567662906e-10
-2.32421292216e-11
4.61244578217e-10
-2.30993890496e-11
4.77581720553e-10
-2.26521598211e-11
4.93348265394e-10
-2.18811458372e-11
5.08305864763e-10
-2.07751972283e-11
5.22214941821e-10
-1.93320525236e-11
5.3484136235e-10
-1.75588529531e-11
5.45963418756e-10
-1.54726001274e-11
5.55379127025e-10
-1.31006695446e-11
5.62913775765e-10
-1.04812958705e-11
5.68427411073e-10
-7.66362435764e-12
5.71821513668e-10
-4.70664737461e-12
5.73043771185e-10
-1.67644750186e-12
5.72089891601e-10
1.35820354785e-12
5.69001967827e-10
4.3310234624e-12
5.63863727511e-10
7.18288390063e-12
5.56793666875e-10
9.86494070765e-12
5.47937428489e-10
1.23396640401e-11
5.37460697392e-10
1.45799133874e-11
5.2554338401e-10
1.65668540423e-11
5.12375222143e-10
1.82877208282e-11
4.98152431272e-10
1.97341678532e-11
4.83074904583e-10
2.09014876366e-11
4.6734341709e-10
2.17886302322e-11
4.5115651212e-10
2.23987590045e-11
4.34706948597e-10
2.27399877786e-11
4.18177829214e-10
2.28259328608e-11
4.01738714397e-10
2.26757937313e-11
3.85542116224e-10
2.23138286412e-11
3.69720743382e-10
2.17682621509e-11
3.54385759124e-10
2.10697959732e-11
3.39626159243e-10
2.0249961172e-11
3.25509223016e-10
1.93395471514e-11
3.12081869422e-10
1.83672885288e-11
2.9937268042e-10
1.73589128847e-11
2.87394333368e-10
1.63365747828e-11
2.76146203862e-10
1.53186421303e-11
2.65616944728e-10
1.43197652356e-11
2.55786899857e-10
1.33511463331e-11
2.46630264667e-10
1.24209306751e-11
2.381169486e-10
1.15346537064e-11
2.30214129906e-10
1.06956952317e-11
2.22887515342e-10
9.90570803466e-12
2.16102332523e-10
9.16500182018e-12
2.09824088703e-10
8.47287399348e-12
2.04019132788e-10
7.8278856925e-12
1.98655055028e-10
7.22808621126e-12
1.93700956727e-10
6.67119116986e-12
1.89127617163e-10
6.15472103341e-12
1.84907581651e-10
5.67610650665e-12
1.81015189454e-10
5.23276711314e-12
1.77426557504e-10
4.82216842619e-12
1.74119531544e-10
4.4418628228e-12
1.71073614429e-10
4.08951774061e-12
1.6826987798e-10
3.76293489395e-12
1.6569086362e-10
3.46006321933e-12
1.6332047446e-10
3.17900800756e-12
1.61143860756e-10
2.9180382591e-12
1.59147298557e-10
2.67559422752e-12
1.57318060723e-10
2.45029697244e-12
1.55644277463e-10
2.24096194132e-12
1.54114782698e-10
2.04661877874e-12
1.52718940225e-10
1.8665401188e-12
1.51446442195e-10
1.70028275696e-12
1.50287069417e-10
1.5477457236e-12
1.49230400655e-10
1.40925116151e-12
1.48265454455e-10
1.28565592222e-12
1.4738024498e-10
1.1785040893e-12
1.46561232886e-10
1.09023297278e-12
1.45792661307e-10
1.02444514353e-12
1.45055798325e-10
9.86250292181e-13
1.44328200399e-10
9.82641655943e-13
1.43583359507e-10
1.02273746789e-12
1.42791755003e-10
1.11727174002e-12
1.41925948516e-10
1.27527508488e-12
1.40977558694e-10
1.48986445208e-12
1.68666105451e-12
9.76216368605e-10
1.90013114239e-10
9.62988687508e-10
3.06403746608e-10
9.06142670846e-10
3.00121084256e-10
8.33846643914e-10
2.5798075178e-10
7.61094927787e-10
2.1241854833e-10
6.94296264224e-10
1.72602647393e-10
6.35518180279e-10
1.40093977659e-10
5.84862047886e-10
1.14158326472e-10
5.41642267925e-10
9.35632660894e-11
5.04935580024e-10
7.71456879721e-11
4.73819605871e-10
6.39537925137e-11
4.47464532415e-10
5.32492134917e-11
4.25158426922e-10
4.44707316499e-11
4.06304553145e-10
3.71939578879e-11
3.90408429046e-10
3.10970851766e-11
3.77062481447e-10
2.59343647871e-11
3.65931517578e-10
2.15163535711e-11
3.56740120553e-10
1.76954420018e-11
3.49262158463e-10
1.43553022002e-11
3.43312232982e-10
1.14031823713e-11
3.38738779986e-10
8.76425081121e-12
3.35418526245e-10
6.37741415756e-12
3.33252038905e-10
4.19220000125e-12
3.32160146441e-10
2.16641290829e-12
3.32081051504e-10
2.64357875615e-13
3.32967990425e-10
-1.54451534805e-12
3.34787320808e-10
-3.28664547019e-12
3.37516946664e-10
-4.98515628853e-12
3.41145003123e-10
-6.66046499087e-12
3.45668733012e-10
-8.33073300645e-12
3.51093497925e-10
-1.00121856384e-11
3.57431870103e-10
-1.17193161773e-11
3.64702755e-10
-1.34649822844e-11
3.72930493425e-10
-1.52603969971e-11
3.8214389198e-10
-1.71150118081e-11
3.92375126779e-10
-1.90362864878e-11
4.0365846393e-10
-2.10293382133e-11
4.16028736771e-10
-2.30964633891e-11
4.29519521003e-10
-2.52365283456e-11
4.44160951265e-10
-2.74442327272e-11
4.59977133677e-10
-2.97092612831e-11
4.76983126424e-10
-3.20153587965e-11
4.95181491805e-10
-3.433938788e-11
5.14558466631e-10
-3.66504611428e-11
5.35079857983e-10
-3.89092731791e-11
5.56686842899e-10
-4.10677889672e-11
5.792919298e-10
-4.30694622352e-11
6.02775412377e-10
-4.48501482713e-11
6.26982696992e-10
-4.63398271012e-11
6.51722892059e-10
-4.74651592997e-11
6.76768994963e-10
-4.81527650458e-11
7.01859895491e-10
-4.83329739382e-11
7.26704245958e-10
-4.79436823164e-11
7.50986066479e-10
-4.69339225922e-11
7.74371801775e-10
-4.52668239653e-11
7.96518471964e-10
-4.29218118659e-11
8.17082573179e-10
-3.98961011441e-11
8.35729476111e-10
-3.62057073947e-11
8.52143187061e-10
-3.18862681158e-11
8.66036423499e-10
-2.69938696477e-11
8.77160905935e-10
-2.16057498851e-11
8.85317477375e-10
-1.58201760685e-11
8.90365112765e-10
-9.75427254779e-12
8.9222738791e-10
-3.538722089e-12
8.90895014009e-10
2.69056827489e-12
8.86423800232e-10
8.80221897013e-12
8.78928481824e-10
1.46781756038e-11
8.68573709025e-10
2.02196795568e-11
8.55563946439e-10
2.53493864606e-11
8.40133931049e-10
3.00098837287e-11
8.22540676075e-10
3.41600601874e-11
8.03057173711e-10
3.77711719116e-11
7.81967357442e-10
4.0823931521e-11
7.59561682355e-10
4.33071100811e-11
7.36132736927e-10
4.52175240526e-11
7.11970493603e-10
4.65609528535e-11
6.87357071656e-10
4.73533632579e-11
6.62561177013e-10
4.76217848288e-11
6.37832613552e-10
4.74043189011e-11
6.13397368868e-10
4.67490398602e-11
5.89453744826e-10
4.5711857849e-11
5.66169861985e-10
4.43536556997e-11
5.43682670607e-10
4.27371346725e-11
5.22098405355e-10
4.09237995689e-11
5.01494268464e-10
3.89714173909e-11
4.81921035337e-10
3.69321423584e-11
4.63406250059e-10
3.48513603765e-11
4.459576994e-10
3.27671965083e-11
4.29566907967e-10
3.07105633096e-11
4.14212461756e-10
2.87056015021e-11
3.99863034144e-10
2.67703690896e-11
3.86480043718e-10
2.49176562147e-11
3.74019919329e-10
2.31558325792e-11
3.62435978078e-10
2.14896626433e-11
3.51679944005e-10
1.99210493498e-11
3.41703145216e-10
1.84496859725e-11
3.32457433574e-10
1.70736100637e-11
3.23895869811e-10
1.57896619928e-11
3.1597321582e-10
1.45938563764e-11
3.08646270281e-10
1.34816768334e-11
3.0187408031e-10
1.24483057775e-11
2.95618055467e-10
1.14888002242e-11
2.89842007085e-10
1.05982240974e-11
2.84512130266e-10
9.77174594109e-12
2.79596943332e-10
9.00471007649e-12
2.75067195029e-10
8.29268772606e-12
2.7089574807e-10
7.63151394468e-12
2.67057444073e-10
7.01731505339e-12
2.63528953834e-10
6.44653094099e-12
2.60288614055e-10
5.91593589357e-12
2.57316250804e-10
5.42266166046e-12
2.5459298758e-10
4.96422619588e-12
2.52101035137e-10
4.53857193763e-12
2.49823458065e-10
4.14411762393e-12
2.47743912662e-10
3.77982838686e-12
2.45846349192e-10
3.44530923173e-12
2.44114672639e-10
3.14092762492e-12
2.42532357907e-10
2.86797044279e-12
2.41082023166e-10
2.62883854984e-12
2.39744980494e-10
2.42727530337e-12
2.38500817514e-10
2.26860778457e-12
2.37327131301e-10
2.15993620705e-12
2.36199669464e-10
2.11010334187e-12
2.35093383885e-10
2.12902311446e-12
2.33985335811e-10
2.2253201251e-12
2.32861056061e-10
2.3995552927e-12
2.31724827601e-10
2.62609337764e-12
2.80957588331e-12
9.71773415213e-10
1.55739704649e-10
9.867210293e-10
2.91456143573e-10
9.68286561886e-10
3.18555562074e-10
9.28090026055e-10
2.98177297426e-10
8.7798600926e-10
2.62522574741e-10
8.25495675109e-10
2.25092991095e-10
7.74767630294e-10
1.90822032024e-10
7.27833775809e-10
1.61092190523e-10
6.85506921979e-10
1.35890129485e-10
6.47937650192e-10
1.14714969283e-10
6.14940130382e-10
9.69513217618e-11
5.86175853329e-10
8.20134998416e-11
5.61253832696e-10
6.93927613841e-11
5.39782999664e-10
5.86647997653e-11
5.21397808578e-10
4.94822847942e-11
5.05769161144e-10
4.15630203707e-11
4.92607520243e-10
3.46780021793e-11
4.81662060444e-10
2.86409089938e-11
4.72717976326e-10
2.32993929336e-11
4.65593092741e-10
1.85280719221e-11
4.6013437345e-10
1.42229753567e-11
4.56214620158e-10
1.02971719272e-11
4.53729487832e-10
6.67733597838e-12
4.52594852925e-10
3.30105058978e-12
4.52744525343e-10
1.1468732674e-13
4.54128271259e-10
-2.92826032295e-12
4.56710102499e-10
-5.86847668653e-12
4.60466795198e-10
-8.74184986337e-12
4.65386586573e-10
-1.15802580813e-11
4.71468003721e-10
-1.44121526322e-11
4.78718778753e-10
-1.72629637869e-11
4.87154803367e-10
-2.01553443991e-11
4.9679907469e-10
-2.31092575083e-11
5.0768058127e-10
-2.61419075439e-11
5.19833075194e-10
-2.92675094894e-11
5.33293672296e-10
-3.24968868318e-11
5.48101219418e-10
-3.58368877171e-11
5.64294365269e-10
-3.9289610394e-11
5.81909272297e-10
-4.28514349055e-11
6.0097691178e-10
-4.65118697197e-11
6.21519896665e-10
-5.02522412547e-11
6.43548828274e-10
-5.40442826837e-11
6.67058167921e-10
-5.78487166418e-11
6.92021694518e-10
-6.16139733746e-11
7.18387676284e-10
-6.52752368499e-11
7.46073966476e-10
-6.8754057146e-11
7.74963323281e-10
-7.19587930162e-11
8.04899339626e-10
-7.47861345706e-11
8.35683429558e-10
-7.71238830764e-11
8.67073330409e-10
-7.88550224943e-11
8.98783521659e-10
-7.98629152991e-11
9.30487824349e-10
-8.00372327599e-11
9.61824242049e-10
-7.9280053916e-11
9.92401879374e-10
-7.75115123369e-11
1.02180958444e-09
-7.46744808893e-11
1.04962586468e-09
-7.07380444264e-11
1.07542964042e-09
-6.56998308173e-11
1.09881150937e-09
-5.95875331074e-11
1.11938534596e-09
-5.24600655629e-11
1.13680019534e-09
-4.44086852552e-11
1.15075243417e-09
-3.55579614884e-11
1.16099786875e-09
-2.60655909634e-11
1.16736271861e-09
-1.61191109854e-11
1.1697516664e-09
-5.92766708851e-12
1.1681511244e-09
4.29110448607e-12
1.16262687608e-09
1.43264533897e-11
1.15331665492e-09
2.39883756047e-11
1.1404192765e-09
3.31170306264e-11
1.12418249735e-09
4.1586133266e-11
1.10489164623e-09
4.93006986652e-11
1.08286019527e-09
5.61914722617e-11
1.05842233509e-09
6.22089916381e-11
1.03192692917e-09
6.73192965069e-11
1.00373207185e-09
7.15019270615e-11
9.74199598469e-10
7.47499586717e-11
9.43689122503e-10
7.70713925375e-11
9.12551478287e-10
7.84909744081e-11
8.81121789748e-10
7.90514441285e-11
8.49712658651e-10
7.88134250155e-11
8.18608085559e-10
7.78535925421e-11
7.88058684569e-10
7.62612431536e-11
7.58278573445e-10
7.41337559032e-11
7.29444081534e-10
7.1571620319e-11
7.01694186862e-10
6.86736924195e-11
6.75132417763e-10
6.55331887776e-11
6.49829854656e-10
6.2234711457e-11
6.25828841264e-10
5.88523829807e-11
6.03147044031e-10
5.54490056619e-11
5.81781561401e-10
5.20760600361e-11
5.61712860246e-10
4.87743184011e-11
5.42908391028e-10
4.55748551947e-11
5.25325796811e-10
4.25002679892e-11
5.08915681627e-10
3.95659655726e-11
4.93623939414e-10
3.67814225383e-11
4.79393668967e-10
3.41513370454e-11
4.66166713805e-10
3.16766576817e-11
4.53884872956e-10
2.93554665619e-11
4.42490829611e-10
2.71837199316e-11
4.3192884322e-10
2.5155856211e-11
4.22145246339e-10
2.32652859393e-11
4.13088783185e-10
2.15047799261e-11
4.04710821285e-10
1.98667718899e-11
3.96965463056e-10
1.83435909115e-11
3.89809578995e-10
1.69276374533e-11
3.83202780414e-10
1.56115150591e-11
3.77107345435e-10
1.43881281316e-11
3.71488109185e-10
1.3250754747e-11
3.66312325861e-10
1.21931021398e-11
3.61549508344e-10
1.12093515313e-11
3.57171248547e-10
1.0294198159e-11
3.5315102026e-10
9.44289190305e-12
3.49463964414e-10
8.651283556e-12
3.46086655803e-10
7.91588169944e-12
3.42996849209e-10
7.23392506318e-12
3.40173203019e-10
6.60347517792e-12
3.37594979016e-10
6.02353363056e-12
3.35241719957e-10
5.49418692043e-12
3.33092911921e-10
5.01677858337e-12
3.31127649456e-10
4.59410102037e-12
3.29324340535e-10
4.23058415573e-12
3.27660521555e-10
3.93242666183e-12
3.2611290664e-10
3.70755103269e-12
3.24657879543e-10
3.56513043826e-12
3.23272748311e-10
3.5141545158e-12
3.2193817142e-10
3.55989739236e-12
3.20641843079e-10
3.69588411696e-12
3.19381148047e-10
3.88678885919e-12
4.03846038102e-12
9.63984448218e-10
1.29255262187e-10
9.87847914031e-10
2.6759268889e-10
9.90111174897e-10
3.16292311641e-10
9.7285546609e-10
3.15433016095e-10
9.43020343321e-10
2.92357707164e-10
9.0664478615e-10
2.61468557843e-10
8.67916568175e-10
2.29550259571e-10
8.29476899671e-10
1.99531868605e-10
7.92877378435e-10
1.72489660283e-10
7.58953796743e-10
1.48638560478e-10
7.28090818847e-10
1.27814309054e-10
7.00398781057e-10
1.09705546861e-10
6.758281721e-10
9.39633793471e-11
6.54242205585e-10
8.02507749976e-11
6.35461976716e-10
6.82625220298e-11
6.19293985617e-10
5.77310194116e-11
6.05546459575e-10
4.84255356723e-11
5.94038638722e-10
4.01487367216e-11
5.8460569444e-10
3.27323434436e-11
5.77100978183e-10
2.60327936716e-11
5.71396673447e-10
1.99272847756e-11
5.67383523287e-10
1.4310325875e-11
5.64970050845e-10
9.09081124506e-12
5.64081527784e-10
4.1895754356e-12
5.64658842458e-10
-4.62626647849e-13
5.66657350171e-10
-4.92676847937e-12
5.70045749977e-10
-9.25687809151e-12
5.74805012538e-10
-1.3501115195e-11
5.80927348485e-10
-1.77025979385e-11
5.88415203989e-10
-2.19000131464e-11
5.9728026016e-10
-2.61280259717e-11
6.07542404939e-10
-3.04174960859e-11
6.19228639876e-10
-3.47955000733e-11
6.32371877747e-10
-3.92851535723e-11
6.47009581488e-10
-4.39052216575e-11
6.63182189181e-10
-4.86695029447e-11
6.80931265638e-10
-5.35859722458e-11
7.00297317946e-10
-5.86556700726e-11
7.21317212773e-10
-6.38713359959e-11
7.44021137802e-10
-6.92157995007e-11
7.68429062011e-10
-7.46601682725e-11
7.94546671451e-10
-8.01618925735e-11
8.22360793103e-10
-8.56628359777e-11
8.51834371729e-10
-9.10875465483e-11
8.82901136024e-10
-9.63419922337e-11
9.15460179846e-10
-1.01313088331e-10
9.49370786023e-10
-1.05869382645e-10
9.84447921092e-10
-1.09863249067e-10
1.02045890643e-09
-1.13134843823e-10
1.05712179591e-09
-1.15517883449e-10
1.09410593196e-09
-1.16847019131e-10
1.1310349962e-09
-1.16966261446e-10
1.1674926287e-09
-1.15737648041e-10
1.20303041273e-09
-1.13049255804e-10
1.23717778555e-09
-1.08821811796e-10
1.26945331544e-09
-1.03013531984e-10
1.29937680984e-09
-9.56232835972e-11
1.32648186239e-09
-8.66925458872e-11
1.35032864676e-09
-7.630681336e-11
1.37051698219e-09
-6.45969885487e-11
1.38669982423e-09
-5.17407771191e-11
1.39859706739e-09
-3.79628144552e-11
1.40600855202e-09
-2.35305835319e-11
1.40882390489e-09
-8.74301581899e-12
1.4070266468e-09
6.0883587989e-12
1.40069143537e-09
2.06616536733e-11
1.38997520685e-09
3.47045865172e-11
1.37510425946e-09
4.7987955131e-11
1.35636000894e-09
6.03303568146e-11
1.33406601231e-09
7.15946654331e-11
1.30857762124e-09
8.16798316502e-11
1.2802740923e-09
9.05124881282e-11
1.24955218469e-09
9.80411718985e-11
1.21682027124e-09
1.04233809477e-10
1.18249223316e-09
1.09077967768e-10
1.14698066981e-09
1.12582929709e-10
1.11068930073e-09
1.14782320716e-10
1.07400485207e-09
1.15735873875e-10
1.03728905199e-09
1.15529210351e-10
1.0008714898e-09
1.14271144337e-10
9.65044009502e-10
1.12088717496e-10
9.3005707472e-10
1.09120689111e-10
8.96118248574e-10
1.05510449127e-10
8.633926592e-10
1.01399288416e-10
8.32005123973e-10
9.69207342414e-11
8.02043501867e-10
9.21963469626e-11
7.73562826123e-10
8.73330748127e-11
7.46589812939e-10
8.24220370858e-11
7.21127419384e-10
7.75384734719e-11
6.97159210698e-10
7.27425480749e-11
6.74653379518e-10
6.80807079997e-11
6.53566327828e-10
6.35873414812e-11
6.33845775548e-10
5.9286539452e-11
6.15433396742e-10
5.51938223861e-11
5.98267009326e-10
5.13177446793e-11
5.82282358137e-10
4.76613280271e-11
5.67414538552e-10
4.42233040845e-11
5.5359910923e-10
4.09991658433e-11
5.40772941324e-10
3.79820393018e-11
5.28874847568e-10
3.51633934338e-11
5.17846030366e-10
3.2533609438e-11
5.07630382616e-10
3.0082430548e-11
4.98174670343e-10
2.77993127612e-11
4.89428621165e-10
2.56736949478e-11
4.81344938596e-10
2.36952047838e-11
4.7387925807e-10
2.18538147466e-11
4.66990057439e-10
2.01399605128e-11
4.60638531545e-10
1.85446323118e-11
4.54788438201e-10
1.70594484085e-11
4.49405920553e-10
1.56767186877e-11
4.4445930931e-10
1.43895054731e-11
4.39918906726e-10
1.31916879924e-11
4.357567535e-10
1.20780363861e-11
4.31946379158e-10
1.10443005351e-11
4.28462537028e-10
1.00873181725e-11
4.25280926136e-10
9.20514516315e-12
4.22377905625e-10
8.39720789665e-12
4.19730212546e-10
7.6644719786e-12
4.17314703194e-10
7.00961057435e-12
4.15108152128e-10
6.43713533326e-12
4.13087164159e-10
5.95341468835e-12
4.11228282635e-10
5.5664326005e-12
4.09508407954e-10
5.28500522019e-12
4.07905647259e-10
5.11691544336e-12
4.06400596463e-10
5.06494859188e-12
4.04977445197e-10
5.11903587405e-12
4.03622083619e-10
5.2421508844e-12
5.35034665129e-12
9.57617319333e-10
1.09137948723e-10
9.82791344171e-10
2.42418675117e-10
9.95548296531e-10
3.0353536964e-10
9.93136310175e-10
3.17845012205e-10
9.78696165445e-10
3.06797861437e-10
9.56325171982e-10
2.83839560785e-10
9.29471215732e-10
2.56404225303e-10
9.00664415755e-10
2.28338678074e-10
8.71640450353e-10
2.01513635159e-10
8.43533651148e-10
1.76745369087e-10
8.17049061979e-10
1.54298907501e-10
7.92595432735e-10
1.34159185197e-10
7.70382224764e-10
1.16176596162e-10
7.50488305259e-10
1.0014470303e-10
7.32909721779e-10
8.58411136542e-11
7.1759248759e-10
7.30482612829e-11
7.04454814613e-10
6.1563215794e-11
6.9340200181e-10
5.12015560448e-11
6.84336254693e-10
4.17980963702e-11
6.77163031161e-10
3.32060222069e-11
6.71795022982e-10
2.52952970634e-11
6.68154539346e-10
1.79508126276e-11
6.66174819156e-10
1.10705334715e-11
6.65800631425e-10
4.56376403496e-12
6.6698840731e-10
-1.650402906e-12
6.69706058576e-10
-7.64442142807e-12
6.73932597503e-10
-1.34834200548e-11
6.79657624422e-10
-1.92261465355e-11
6.86880711534e-10
-2.49256908566e-11
6.95610699778e-10
-3.06300085556e-11
7.05864908182e-10
-3.63822428377e-11
7.17668241942e-10
-4.22208395046e-11
7.31052174818e-10
-4.81794436644e-11
7.46053572109e-10
-5.42865624445e-11
7.62713312223e-10
-6.0564973988e-11
7.81074657544e-10
-6.70308608326e-11
8.01181319121e-10
-7.36926464142e-11
8.23075155406e-10
-8.05495185984e-11
8.46793443838e-10
-8.75896359133e-11
8.72365667286e-10
-9.47880332334e-11
8.99809767474e-10
-1.02104277093e-10
9.29127837848e-10
-1.09479969456e-10
9.60301262438e-10
-1.16836264507e-10
9.93285359721e-10
-1.24071644757e-10
1.02800366426e-09
-1.31060294309e-10
1.0643420759e-09
-1.37651493756e-10
1.10214322127e-09
-1.43670517804e-10
1.14120149362e-09
-1.48921506993e-10
1.18125933765e-09
-1.53192669125e-10
1.22200539158e-09
-1.56263914354e-10
1.26307504685e-09
-1.57916647192e-10
1.30405381058e-09
-1.57944994053e-10
1.34448356549e-09
-1.56167368331e-10
1.38387147569e-09
-1.52437128466e-10
1.42170098789e-09
-1.46651284308e-10
1.45744422932e-09
-1.38756732519e-10
1.49057515013e-09
-1.28754163425e-10
1.52058295368e-09
-1.16700309617e-10
1.54698562109e-09
-1.0270944353e-10
1.56934365561e-09
-8.69549898683e-11
1.58727450372e-09
-6.96715974945e-11
1.6004679779e-09
-5.11562676616e-11
1.60870162927e-09
-3.17642216475e-11
1.61185286992e-09
-1.18942514749e-11
1.60990411819e-09
8.03710730918e-12
1.60293944256e-09
2.76263184711e-11
1.59113384574e-09
4.65101660298e-11
1.57473779572e-09
6.43839827598e-11
1.55406048311e-09
8.10076434471e-11
1.52945522911e-09
9.61998911548e-11
1.50130865421e-09
1.0982637715e-10
1.47003295948e-09
1.21788153426e-10
1.4360597779e-09
1.32014325031e-10
1.39983436364e-09
1.40459197204e-10
1.36180931312e-09
1.47102994516e-10
1.32243728051e-09
1.51954941972e-10
1.28216254154e-09
1.55057043237e-10
1.24141178906e-09
1.56486614128e-10
1.20058496515e-09
1.56356026427e-10
1.16004707605e-09
1.54809030073e-10
1.12012180169e-09
1.52013992916e-10
1.08108740227e-09
1.48155093922e-10
1.04317505735e-09
1.43422803517e-10
1.00656944889e-09
1.3800491012e-10
9.71411177567e-10
1.32079022166e-10
9.37800500359e-10
1.25807043663e-10
9.0580187676e-10
1.19331720251e-10
8.75448877464e-10
1.12775060031e-10
8.4674910654e-10
1.06238269294e-10
8.19688890292e-10
9.98027899509e-11
7.94237576417e-10
9.35320477347e-11
7.70351359796e-10
8.7473583761e-11
7.47976604696e-10
8.16613196202e-11
7.27052669998e-10
7.6117781244e-11
7.07514267217e-10
7.08561704503e-11
6.89293394237e-10
6.58822226254e-11
6.72320893633e-10
6.11958247946e-11
6.56527685495e-10
5.67923924821e-11
6.41845722838e-10
5.26640188118e-11
6.28208713824e-10
4.88004176464e-11
6.15552650499e-10
4.51896863427e-11
6.03816178658e-10
4.18189144055e-11
5.92940838678e-10
3.86746632788e-11
5.82871202385e-10
3.57433403963e-11
5.73554926899e-10
3.30114881545e-11
5.64942742528e-10
3.0466005846e-11
5.56988388521e-10
2.80943202128e-11
5.49648507551e-10
2.58845180548e-11
5.42882507408e-10
2.38254525206e-11
5.36652396261e-10
2.1906833106e-11
5.3092259625e-10
2.01193081601e-11
5.25659738834e-10
1.8454547578e-11
5.20832444548e-10
1.69053324196e-11
5.16411089415e-10
1.54656570627e-11
5.1236756064e-10
1.41308480537e-11
5.08675005266e-10
1.28977014032e-11
5.05307577813e-10
1.17646360206e-11
5.02240196556e-10
1.07318537426e-11
4.99448323775e-10
9.80148372974e-12
4.96907792861e-10
8.97766651312e-12
4.94594714348e-10
8.26649338828e-12
4.92485500165e-10
7.67564693012e-12
4.90557039685e-10
7.21346586802e-12
4.88787007165e-10
6.88694822754e-12
4.8715407588e-10
6.69788028284e-12
4.85637191127e-10
6.63592111042e-12
4.84211632949e-10
6.66770950033e-12
6.72380048877e-12
9.53018773089e-10
9.3619181411e-11
9.76794499755e-10
2.18642959388e-10
9.94445119221e-10
2.85884760419e-10
1.0012427182e-09
3.11047422865e-10
9.97806456539e-10
3.10234132527e-10
9.86538516748e-10
2.95107509944e-10
9.69974896664e-10
2.72967854768e-10
9.50242908494e-10
2.48070675638e-10
9.2896938464e-10
2.22787168389e-10
9.07337695088e-10
1.98377067943e-10
8.86178594701e-10
1.75458017058e-10
8.66056290433e-10
1.54281498441e-10
8.47339358713e-10
1.34893536598e-10
8.30255872714e-10
1.17228197416e-10
8.14935008204e-10
1.01161986151e-10
8.01437903082e-10
8.65453739131e-11
7.89780275731e-10
7.32208500943e-11
7.79948846659e-10
6.10329914172e-11
7.71913157341e-10
4.98337912463e-11
7.65633998659e-10
3.94851856085e-11
7.61069357533e-10
2.98599419701e-11
7.58178555684e-10
2.08416172149e-11
7.5692507645e-10
1.2324014305e-11
7.57278441808e-10
4.21039903931e-12
7.59215402651e-10
-3.58736471006e-12
7.62720619767e-10
-1.11496409069e-11
7.67786989105e-10
-1.85497932173e-11
7.74415690731e-10
-2.58548534906e-11
7.82616018475e-10
-3.31260254509e-11
7.92405026774e-10
-4.04190252157e-11
8.03807011096e-10
-4.77842369843e-11
8.16852822443e-10
-5.52666620566e-11
8.31579003344e-10
-6.29056370204e-11
8.48026721337e-10
-7.07342939712e-11
8.6624046592e-10
-7.87787329573e-11
8.86266465855e-10
-8.70568757352e-11
9.08150775908e-10
-9.55769716905e-11
9.31936975801e-10
-1.04335733601e-10
9.57663420456e-10
-1.1331609515e-10
9.85359980941e-10
-1.22484607326e-10
1.01504422223e-09
-1.31788530536e-10
1.04671698033e-09
-1.41152737787e-10
1.08035733201e-09
-1.50476624004e-10
1.11591700035e-09
-1.59631318045e-10
1.1533143148e-09
-1.68457610407e-10
1.19242794843e-09
-1.76765125362e-10
1.23309078662e-09