/*--------------------------------*- C++ -*----------------------------------*\
  =========                 |
  \\      /  F ield         | OpenFOAM: The Open Source CFD Toolbox
   \\    /   O peration     | Website:  https://openfoam.org
    \\  /    A nd           | Version:  7
     \\/     M anipulation  |
\*---------------------------------------------------------------------------*/
FoamFile
{
    version     2.0;
    format      ascii;
    class       volVectorField;
    location    "900";
    object      U;
}
// * * * * * * * * * * * * * * * * * * * * * * * * * * * * * * * * * * * * * //

dimensions      [0 1 -1 0 0 0 0];

internalField   nonuniform List<vector> 
8192
(
(0.00104345141697 0.000156548583025 0)
(0.000759292935054 0.000127609902583 0)
(0.000549285427058 8.23976127173e-05 0)
(0.000414045015849 5.28428055034e-05 0)
(0.000326266831929 3.49353851389e-05 0)
(0.000267296727194 2.4034726225e-05 0)
(0.000226065863913 1.7196143656e-05 0)
(0.000196133748014 1.27359788612e-05 0)
(0.000173690275745 9.70750007007e-06 0)
(0.000156411389528 7.57139285452e-06 0)
(0.000142827684858 6.0123185535e-06 0)
(0.000131975483089 4.83988995683e-06 0)
(0.000123200440442 3.93515940294e-06 0)
(0.000116044047955 3.22123973184e-06 0)
(0.000110176023223 2.64679154684e-06 0)
(0.000105352753825 2.17648426183e-06 0)
(0.000101390952481 1.78532332043e-06 0)
(9.8150458512e-05 1.45517667969e-06 0)
(9.55227008255e-05 1.17258680037e-06 0)
(9.3422764765e-05 9.27354785043e-07 0)
(9.17838143747e-05 7.11600836216e-07 0)
(9.05530924126e-05 5.19126040324e-07 0)
(8.96890015321e-05 3.44969424001e-07 0)
(8.91589419802e-05 1.85094372379e-07 0)
(8.89376888705e-05 3.61626463696e-08 0)
(8.90061609449e-05 -1.04631133791e-07 0)
(8.9350476893e-05 -2.39681519387e-07 0)
(8.99612251722e-05 -3.71063712538e-07 0)
(9.08328949821e-05 -5.0060323196e-07 0)
(9.19634286482e-05 -6.29927665989e-07 0)
(9.33538632847e-05 -7.60504189919e-07 0)
(9.50080357034e-05 -8.93665303131e-07 0)
(9.69323281749e-05 -1.03062393783e-06 0)
(9.91354342552e-05 -1.17247842277e-06 0)
(0.000101628124074 -1.32020697601e-06 0)
(0.000104422987467 -1.47465106321e-06 0)
(0.000107534131479 -1.63648640541e-06 0)
(0.000110976806312 -1.80618042349e-06 0)
(0.000114766931293 -1.98393481193e-06 0)
(0.000118920490527 -2.16961264744e-06 0)
(0.000123452767607 -2.3626503531e-06 0)
(0.000128377391543 -2.56195693314e-06 0)
(0.000133705173451 -2.76580552066e-06 0)
(0.000139442727652 -2.97172622209e-06 0)
(0.000145590892931 -3.17641344979e-06 0)
(0.000152143000648 -3.37566542224e-06 0)
(0.000159083074492 -3.56437632303e-06 0)
(0.00016638408779 -3.7366016797e-06 0)
(0.000174006440323 -3.88571250764e-06 0)
(0.000181896837146 -4.0046431477e-06 0)
(0.0001899877458 -4.08622184827e-06 0)
(0.000198197568955 -4.12355557446e-06 0)
(0.000206431598459 -4.11042665136e-06 0)
(0.000214583728115 -4.0416547906e-06 0)
(0.000222538818936 -3.91338759417e-06 0)
(0.000230175558539 -3.7233041339e-06 0)
(0.000237369652561 -3.47074344e-06 0)
(0.000243997232766 -3.1567926486e-06 0)
(0.000249938445944 -2.78437969477e-06 0)
(0.000255081264152 -2.3584019057e-06 0)
(0.000259325572521 -1.88587501246e-06 0)
(0.000262587480366 -1.37600738683e-06 0)
(0.000264803542568 -8.40036113657e-07 0)
(0.000265934272009 -2.90681925248e-07 0)
(0.000265966183605 2.58774101351e-07 0)
(0.000264911808273 7.95597309747e-07 0)
(0.000262807607926 1.30859163832e-06 0)
(0.000259710249389 1.78874848361e-06 0)
(0.000255692053742 2.22942238514e-06 0)
(0.000250836530497 2.62607048425e-06 0)
(0.000245234682024 2.97574285875e-06 0)
(0.000238982343471 3.27655668031e-06 0)
(0.000232178423342 3.52732146728e-06 0)
(0.000224923682288 3.72737555946e-06 0)
(0.000217319650155 3.87661144825e-06 0)
(0.00020946736797 3.97562542634e-06 0)
(0.000201465789474 4.02590845262e-06 0)
(0.000193409842847 4.02999504255e-06 0)
(0.000185388300909 3.99150595554e-06 0)
(0.000177481701175 3.91505561572e-06 0)
(0.00016976057695 3.80603370639e-06 0)
(0.000162284211608 3.67030034238e-06 0)
(0.000155100035474 3.51384834577e-06 0)
(0.000148243679179 3.34248446082e-06 0)
(0.000141739606857 3.16156833745e-06 0)
(0.000135602192838 2.97583001521e-06 0)
(0.000129837081308 2.78926951872e-06 0)
(0.00012444267396 2.60512923541e-06 0)
(0.000119411616419 2.42592279607e-06 0)
(0.000114732188892 2.25350194448e-06 0)
(0.000110389541916 2.08914459113e-06 0)
(0.000106366748439 1.93365040519e-06 0)
(0.000102645666685 1.78743445027e-06 0)
(9.92076238119e-05 1.65061274889e-06 0)
(9.60339394835e-05 1.52307679719e-06 0)
(9.31063125983e-05 1.40455589824e-06 0)
(9.04070950702e-05 1.29466776868e-06 0)
(8.79194751324e-05 1.19295841177e-06 0)
(8.5627590047e-05 1.09893283207e-06 0)
(8.35165851085e-05 1.01207803153e-06 0)
(8.15726327893e-05 9.31879862996e-07 0)
(7.97829231147e-05 8.57834955339e-07 0)
(7.81356338848e-05 7.89458930773e-07 0)
(7.66198873328e-05 7.26291761296e-07 0)
(7.52256980683e-05 6.67901117213e-07 0)
(7.3943915799e-05 6.13884249432e-07 0)
(7.27661651603e-05 5.6386899043e-07 0)
(7.16847840834e-05 5.17514224076e-07 0)
(7.06927613112e-05 4.74510259979e-07 0)
(6.97836729922e-05 4.3457938895e-07 0)
(6.8951617567e-05 3.97477028183e-07 0)
(6.81911474493e-05 3.6299378933e-07 0)
(6.74971951045e-05 3.30959005825e-07 0)
(6.6864990035e-05 3.01246305933e-07 0)
(6.62899616262e-05 2.73782173312e-07 0)
(6.57676206358e-05 2.48558749069e-07 0)
(6.52934088255e-05 2.25652882158e-07 0)
(6.48625012379e-05 2.05254439431e-07 0)
(6.44695376514e-05 1.87708813313e-07 0)
(6.41082468042e-05 1.73581649959e-07 0)
(6.37709053738e-05 1.63759362803e-07 0)
(6.34475374567e-05 1.59608124418e-07 0)
(6.31247007741e-05 1.6322814669e-07 0)
(6.2783618439e-05 1.77853844943e-07 0)
(6.23973374754e-05 2.08426915823e-07 0)
(6.19268509343e-05 2.62059645748e-07 0)
(6.13182480957e-05 3.46543446081e-07 0)
(6.05270279317e-05 4.44677100639e-07 0)
(0.00121016172145 0.000302935448431 0)
(0.00116030067793 0.000315242577384 0)
(0.00102697949603 0.000238093649263 0)
(0.000887685673645 0.000171681023006 0)
(0.000767238893434 0.000124322151449 0)
(0.000669107707915 9.17492696082e-05 0)
(0.000590581881498 6.92383093542e-05 0)
(0.000527830453219 5.33773767734e-05 0)
(0.00047741272229 4.19273248769e-05 0)
(0.000436590849544 3.34523465957e-05 0)
(0.00040327742258 2.70285160316e-05 0)
(0.000375901202946 2.20521333792e-05 0)
(0.000353278666842 1.81205140403e-05 0)
(0.000334512075835 1.49588876025e-05 0)
(0.000318913862008 1.23754008432e-05 0)
(0.000305951958784 1.0233065684e-05 0)
(0.000295210552113 8.43196739099e-06 0)
(0.000286361835031 6.89776041294e-06 0)
(0.000279145531992 5.57407972739e-06 0)
(0.000273353910129 4.41743480652e-06 0)
(0.000268820687954 3.39370741764e-06 0)
(0.000265412737263 2.47570509718e-06 0)
(0.000263023808078 1.64142232612e-06 0)
(0.000261569735186 8.72784695749e-07 0)
(0.000260984741722 1.54728582924e-07 0)
(0.000261218563181 -5.25481962158e-07 0)
(0.000262234188954 -1.17876471531e-06 0)
(0.000264006071428 -1.81460436991e-06 0)
(0.000266518690961 -2.4413456056e-06 0)
(0.000269765388358 -3.06641036044e-06 0)
(0.000273747392324 -3.69645407558e-06 0)
(0.000278472981056 -4.33747010526e-06 0)
(0.000283956723959 -4.99484711342e-06 0)
(0.000290218752632 -5.67338110576e-06 0)
(0.000297284010788 -6.37724123635e-06 0)
(0.000305181431153 -7.10988668913e-06 0)
(0.000313942984498 -7.87393066477e-06 0)
(0.000323602542576 -8.67094720315e-06 0)
(0.000334194494057 -9.50121740268e-06 0)
(0.000345752052236 -1.03634143341e-05 0)
(0.000358305197411 -1.12542309526e-05 0)
(0.000371878208214 -1.21679635338e-05 0)
(0.000386486757801 -1.30960746622e-05 0)
(0.000402134585762 -1.40267747511e-05 0)
(0.000418809806918 -1.49446777589e-05 0)
(0.000436480983628 -1.58306026454e-05 0)
(0.000455093164688 -1.66616018361e-05 0)
(0.000474564172027 -1.74112956069e-05 0)
(0.000494781480623 -1.80505699862e-05 0)
(0.000515600068345 -1.8548652722e-05 0)
(0.00053684159153 -1.88745199024e-05 0)
(0.000558295158743 -1.89985182763e-05 0)
(0.000579719834318 -1.88940356431e-05 0)
(0.000600848831212 -1.85390370761e-05 0)
(0.000621395191006 -1.791732093e-05 0)
(0.000641058643301 -1.701943036e-05 0)
(0.000659533316214 -1.58432570551e-05 0)
(0.000676516034669 -1.43944585386e-05 0)
(0.000691715059907 -1.26868437763e-05 0)
(0.000704859229299 -1.07428304142e-05 0)
(0.000715707457785 -8.59390436957e-06 0)
(0.000724058359576 -6.28072697572e-06 0)
(0.000729759311834 -3.85229043341e-06 0)
(0.000732713782306 -1.36360832644e-06 0)
(0.000732885544183 1.12802437198e-06 0)
(0.000730298790034 3.56745232569e-06 0)
(0.000725034045017 5.90563733473e-06 0)
(0.000717220732407 8.1023105365e-06 0)
(0.000707027901032 1.01268073708e-05 0)
(0.000694654800564 1.19572150522e-05 0)
(0.000680322612097 1.35785294458e-05 0)
(0.000664267907938 1.49806980103e-05 0)
(0.000646737698185 1.61571888933e-05 0)
(0.000627985494947 1.71043276469e-05 0)
(0.000608267725871 1.78213347968e-05 0)
(0.000587839954695 1.83108311892e-05 0)
(0.000566952614859 1.85795006309e-05 0)
(0.000545846257799 1.86385920735e-05 0)
(0.000524746587911 1.85040139435e-05 0)
(0.000503859731598 1.81959059461e-05 0)
(0.000483368230148 1.77377214829e-05 0)
(0.000463428161604 1.71549697652e-05 0)
(0.000444167627755 1.64738234959e-05 0)
(0.000425686644646 1.57197946377e-05 0)
(0.000408058299161 1.49166329959e-05 0)
(0.000391330911899 1.40855342614e-05 0)
(0.000375530888824 1.32446773797e-05 0)
(0.000360665943827 1.24090601988e-05 0)
(0.000346728415098 1.15905725469e-05 0)
(0.000333698460534 1.07982355977e-05 0)
(0.000321546985295 1.00385402232e-05 0)
(0.000310238216491 9.31582877726e-06 0)
(0.000299731890243 8.63267939858e-06 0)
(0.000289985052958 7.99026589107e-06 0)
(0.000280953502633 7.3886779621e-06 0)
(0.000272592909584 6.82719525406e-06 0)
(0.000264859661754 6.30451461188e-06 0)
(0.000257711480202 5.81893358698e-06 0)
(0.000251107847523 5.36849518078e-06 0)
(0.000245010287289 4.95109949291e-06 0)
(0.000239382527241 4.56458802725e-06 0)
(0.000234190573507 4.20680590775e-06 0)
(0.000229402718053 3.87564672354e-06 0)
(0.000224989496991 3.56908396789e-06 0)
(0.000220923613423 3.2851924712e-06 0)
(0.000217179835141 3.02216258156e-06 0)
(0.000213734874624 2.7783094508e-06 0)
(0.000210567256371 2.55207934891e-06 0)
(0.000207657174538 2.3420547458e-06 0)
(0.00020498634196 2.14695969456e-06 0)
(0.000202537829939 1.96566709054e-06 0)
(0.000200295896439 1.79720943177e-06 0)
(0.000198245798503 1.64079502422e-06 0)
(0.000196373582671 1.49583198196e-06 0)
(0.000194665844749 1.36196313777e-06 0)
(0.000193109447432 1.23911601217e-06 0)
(0.000191691180846 1.12757362553e-06 0)
(0.00019039734727 1.02807422965e-06 0)
(0.000189213247638 9.41951430467e-07 0)
(0.000188122545834 8.71330752536e-07 0)
(0.000187106492284 8.19404254664e-07 0)
(0.000186143014165 7.90808311414e-07 0)
(0.000185205759183 7.92118806494e-07 0)
(0.00018426339834 8.32405824391e-07 0)
(0.000183280073287 9.23480829436e-07 0)
(0.000182219330253 1.07823570007e-06 0)
(0.000181058244615 1.30005669541e-06 0)
(0.000179816489376 1.52414017552e-06 0)
(0.00122477847591 0.000267995258519 0)
(0.00124109123591 0.00038373107263 0)
(0.00119624406935 0.00034777353047 0)
(0.00111359316145 0.000283945898642 0)
(0.00102076260589 0.000225334637241 0)
(0.000931450362887 0.000178180237715 0)
(0.000851081244482 0.0001417023114 0)
(0.000781043346026 0.000113702726854 0)
(0.000720962762119 9.2100315104e-05 0)
(0.000669809822687 7.52541940434e-05 0)
(0.000626403318973 6.19466246869e-05 0)
(0.000589621848503 5.1291740057e-05 0)
(0.000558478693976 4.26466228933e-05 0)
(0.000532136307243 3.55417809189e-05 0)
(0.000509896308603 2.96307438093e-05 0)
(0.000491181382715 2.46545748858e-05 0)
(0.000475516159376 2.04171103561e-05 0)
(0.000462509848404 1.67676666144e-05 0)
(0.00045184145857 1.35888863351e-05 0)
(0.000443247610525 1.07881167391e-05 0)
(0.000436512648299 8.29122710059e-06 0)
(0.000431460675988 6.03812411769e-06 0)
(0.000427949161696 3.97946090292e-06 0)
(0.000425863798621 2.07419458467e-06 0)
(0.000425114366684 2.87754976948e-07 0)
(0.000425631386834 -1.40934065112e-06 0)
(0.000427363399189 -3.04253629684e-06 0)
(0.000430274731182 -4.63404068203e-06 0)
(0.000434343647863 -6.20343996779e-06 0)
(0.000439560791126 -7.76815181858e-06 0)
(0.0004459278278 -9.34374869424e-06 0)
(0.000453456235538 -1.09441671556e-05 0)
(0.000462166160066 -1.25818118376e-05 0)
(0.000472085278992 -1.42675567612e-05 0)
(0.000483247606659 -1.60106418175e-05 0)
(0.000495692172006 -1.78184589781e-05 0)
(0.000509461498054 -1.96962207159e-05 0)
(0.000524599808449 -2.16465033487e-05 0)
(0.000541150884975 -2.36686607319e-05 0)
(0.000559155502252 -2.57581106321e-05 0)
(0.000578648374363 -2.79055078207e-05 0)
(0.000599654566465 -3.00958362305e-05 0)
(0.000622185355667 -3.23074773847e-05 0)
(0.000646233573399 -3.45113436604e-05 0)
(0.000671768527753 -3.66701991438e-05 0)
(0.000698730688565 -3.87383221621e-05 0)
(0.000727026414527 -4.06616813436e-05 0)
(0.000756523098994 -4.23787888209e-05 0)
(0.000787045189997 -4.38223468233e-05 0)
(0.000818371576993 -4.49217115261e-05 0)
(0.000850234807694 -4.56060676835e-05 0)
(0.000882322489891 -4.58080660223e-05 0)
(0.000914281050527 -4.54675656742e-05 0)
(0.000945721799959 -4.45350927445e-05 0)
(0.000976229035683 -4.29747006736e-05 0)
(0.00100536977519 -4.07660858203e-05 0)
(0.00103270466889 -3.79060183474e-05 0)
(0.00105779971155 -3.44093186226e-05 0)
(0.00108023850443 -3.03096756756e-05 0)
(0.00109963495076 -2.5660505083e-05 0)
(0.00111564629084 -2.05357092836e-05 0)
(0.00112798616532 -1.50296322727e-05 0)
(0.00113643685769 -9.25498875034e-06 0)
(0.00114085920043 -3.33770853815e-06 0)
(0.00114119833723 2.59121396655e-06 0)
(0.00113748404111 8.40527515682e-06 0)
(0.00112982546052 1.39910780829e-05 0)
(0.00111840140214 1.92541569692e-05 0)
(0.0011034480995 2.41209923205e-05 0)
(0.00108524664159 2.85374701543e-05 0)
(0.00106411174856 3.2465225107e-05 0)
(0.00104038262386 3.58776913535e-05 0)
(0.00101441569994 3.87571835995e-05 0)
(0.00098657858547 4.10935025394e-05 0)
(0.000957244428341 4.28839387423e-05 0)
(0.00092678606754 4.41342155891e-05 0)
(0.000895569641766 4.48597446634e-05 0)
(0.000863947679148 4.50865393213e-05 0)
(0.000832252025961 4.48512720847e-05 0)
(0.000800787188749 4.42002358409e-05 0)
(0.000769824712764 4.31872767999e-05 0)
(0.000739599108359 4.18710090706e-05 0)
(0.000710305620859 4.03117413405e-05 0)
(0.000682099888616 3.85685419011e-05 0)
(0.000655099311244 3.66967717886e-05 0)
(0.000629385794432 3.47462753556e-05 0)
(0.000605009462653 3.27602785019e-05 0)
(0.000581992927654 3.07749367287e-05 0)
(0.000560335748715 2.88194102689e-05 0)
(0.000540018796623 2.69163186145e-05 0)
(0.000521008317376 2.50824318494e-05 0)
(0.000503259569832 2.33294783495e-05 0)
(0.00048671997635 2.1664977799e-05 0)
(0.000471331774341 2.00930372339e-05 0)
(0.000457034190134 1.86150727488e-05 0)
(0.000443765177102 1.72304383782e-05 0)
(0.000431462770426 1.59369572839e-05 0)
(0.000420066114167 1.47313588506e-05 0)
(0.000409516214804 1.36096304296e-05 0)
(0.000399756471104 1.25672946348e-05 0)
(0.000390733024378 1.15996238619e-05 0)
(0.000382394966897 1.07018030959e-05 0)
(0.000374694440033 9.86905121512e-06 0)
(0.000367586647905 9.09670960889e-06 0)
(0.000361029807103 8.38030580294e-06 0)
(0.000354985048551 7.71559847681e-06 0)
(0.000349416283583 7.09860938497e-06 0)
(0.000344290042971 6.52564675901e-06 0)
(0.00033957529466 5.99332428806e-06 0)
(0.000335243243449 5.4985792775e-06 0)
(0.00033126711351 5.03869352506e-06 0)
(0.000327621912566 4.6113204078e-06 0)
(0.000324284174539 4.21452205847e-06 0)
(0.00032123167565 3.84682095535e-06 0)
(0.000318443117266 3.50727113205e-06 0)
(0.000315897767587 3.19555517141e-06 0)
(0.000313575053972 2.91211442332e-06 0)
(0.000311454099549 2.65832087361e-06 0)
(0.000309513203887 2.43669928905e-06 0)
(0.000307729282343 2.25120529674e-06 0)
(0.000306077310725 2.10755387399e-06 0)
(0.000304529887242 2.01355935951e-06 0)
(0.000303057152489 1.9793567986e-06 0)
(0.000301627554143 2.0171267727e-06 0)
(0.000300210380606 2.13925879367e-06 0)
(0.000298781690798 2.35189144165e-06 0)
(0.000297334965543 2.63421301102e-06 0)
(0.000295889114049 2.8775916402e-06 0)
(0.00122193498574 0.000221281804088 0)
(0.00125343644449 0.000382630329716 0)
(0.00125120485836 0.000395953053651 0)
(0.00121368101628 0.000355941151492 0)
(0.0011558886626 0.000303962318766 0)
(0.001090228278 0.000254525208632 0)
(0.00102416851546 0.000211786246197 0)
(0.000961664899906 0.000176160330877 0)
(0.000904538046584 0.000146850173167 0)
(0.000853404526189 0.000122790820644 0)
(0.000808241779567 0.000102979273136 0)
(0.000768714229575 8.65681365333e-05 0)
(0.000734354999056 7.28726355418e-05 0)
(0.000704663572711 6.1349604898e-05 0)
(0.000679155717275 5.15707967813e-05 0)
(0.000657386860622 4.3198326501e-05 0)
(0.000638961076088 3.59643876803e-05 0)
(0.00062353253164 2.96552646372e-05 0)
(0.000610803223533 2.40990048856e-05 0)
(0.000600519084203 1.91560027477e-05 0)
(0.000592465578362 1.47118247475e-05 0)
(0.000586463355909 1.06717350942e-05 0)
(0.000582364229114 6.95650302696e-06 0)
(0.000580047578085 3.49917663876e-06 0)
(0.000579417202091 2.42588929507e-07 0)
(0.000580398589826 -2.86257642944e-06 0)
(0.000582936559206 -5.8592781803e-06 0)
(0.000586993214526 -8.78528393722e-06 0)
(0.000592546164334 -1.16740627662e-05 0)
(0.000599586937788 -1.45554468088e-05 0)
(0.000608119540783 -1.74560956322e-05 0)
(0.000618159092556 -2.03997827689e-05 0)
(0.000629730481956 -2.34075134674e-05 0)
(0.000642866979814 -2.64974749063e-05 0)
(0.000657608740137 -2.96848136304e-05 0)
(0.000674001118393 -3.29812309245e-05 0)
(0.000692092730697 -3.63943845954e-05 0)
(0.000711933174199 -3.99270872212e-05 0)
(0.000733570328042 -4.35762964807e-05 0)
(0.00075704715781 -4.7331905566e-05 0)
(0.000782397957405 -5.11753616242e-05 0)
(0.000809643983961 -5.50781705473e-05 0)
(0.000838788477565 -5.90003868939e-05 0)
(0.000869811111961 -6.28892380911e-05 0)
(0.000902661997313 -6.66780864186e-05 0)
(0.000937255451366 -7.02859815124e-05 0)
(0.000973463865445 -7.36180833609e-05 0)
(0.00101111210426 -7.65672210189e-05 0)
(0.00104997297228 -7.90167745137e-05 0)
(0.00108976432638 -8.08449163481e-05 0)
(0.00113014838532 -8.19300354207e-05 0)
(0.00117073366145 -8.21569322868e-05 0)
(0.0012110797225 -8.14231911887e-05 0)
(0.00125070471771 -7.96450783547e-05 0)
(0.00128909533684 -7.6762435107e-05 0)
(0.00132571868743 -7.27423080271e-05 0)
(0.00136003552326 -6.75813964553e-05 0)
(0.00139151433587 -6.13076739213e-05 0)
(0.00141964598741 -5.39816535544e-05 0)
(0.00144395874643 -4.56976351378e-05 0)
(0.00146403368288 -3.6584775279e-05 0)
(0.00147952019387 -2.68068909004e-05 0)
(0.00149015077591 -1.65589654613e-05 0)
(0.00149575320641 -6.0584890736e-06 0)
(0.00149625778611 4.46827056702e-06 0)
(0.00149169792031 1.48023503103e-05 0)
(0.00148220385984 2.47465927735e-05 0)
(0.00146799099611 3.41354945172e-05 0)
(0.00144934513526 4.2838732625e-05 0)
(0.00142660745189 5.07587727321e-05 0)
(0.00140016117856 5.78249807674e-05 0)
(0.00137042081944 6.39873046718e-05 0)
(0.00133782352913 6.92116659378e-05 0)
(0.00130282176066 7.34777837713e-05 0)
(0.00126587626901 7.67791889435e-05 0)
(0.00122744878142 7.91247010503e-05 0)
(0.00118799398451 8.05403761062e-05 0)
(0.00114795089154 8.10708665326e-05 0)
(0.00110773404697 8.07793561066e-05 0)
(0.00106772527629 7.97456847375e-05 0)
(0.00102826673288 7.80627846417e-05 0)
(0.000989655845129 7.58319434258e-05 0)
(0.000952142499187 7.31576031946e-05 0)
(0.000915928491773 7.01423948726e-05 0)
(0.00088116902696 6.68829479478e-05 0)
(0.000847975854348 6.34667864418e-05 0)
(0.000816421565388 5.99703957486e-05 0)
(0.000786544566589 5.64583693889e-05 0)
(0.000758354307477 5.29834389412e-05 0)
(0.000731836429854 4.9587148738e-05 0)
(0.000706957600815 4.6300943542e-05 0)
(0.000683669880217 4.31474714905e-05 0)
(0.0006619145462 4.01419508171e-05 0)
(0.000641625357466 3.72934945162e-05 0)
(0.000622731269364 3.46063272929e-05 0)
(0.000605158644974 3.20808599387e-05 0)
(0.000588833015527 2.97146090403e-05 0)
(0.000573680449643 2.75029644316e-05 0)
(0.000559628590612 2.5439816056e-05 0)
(0.000546607417318 2.35180561745e-05 0)
(0.000534549778895 2.17299748503e-05 0)
(0.000523391746861 2.00675661531e-05 0)
(0.000513072821978 1.85227616057e-05 0)
(0.000503536026912 1.70876053724e-05 0)
(0.000494727910021 1.57543840868e-05 0)
(0.000486598480543 1.45157221489e-05 0)
(0.000479101090957 1.33646519627e-05 0)
(0.000472192278429 1.22946670036e-05 0)
(0.000465831573891 1.12997647823e-05 0)
(0.000459981284411 1.03744857936e-05 0)
(0.000454606252036 9.51395428065e-06 0)
(0.000449673590191 8.7139262412e-06 0)
(0.000445152396939 7.97085032772e-06 0)
(0.000441013443208 7.28194731975e-06 0)
(0.000437228833426 6.64531428146e-06 0)
(0.000433771636502 6.06005943187e-06 0)
(0.000430615487343 5.52647330902e-06 0)
(0.000427734164402 5.04623937674e-06 0)
(0.000425101159281 4.62268132494e-06 0)
(0.000422689273594 4.26103005383e-06 0)
(0.000420470311738 3.9686620457e-06 0)
(0.000418414994045 3.75519183343e-06 0)
(0.000416493303157 3.63214961928e-06 0)
(0.000414675601826 3.61163368337e-06 0)
(0.000412934988628 3.70253921117e-06 0)
(0.000411251209279 3.90108122218e-06 0)
(0.000409614714321 4.16824463157e-06 0)
(0.000408021383629 4.38274320917e-06 0)
(0.00121695004686 0.000182396778775 0)
(0.00124917271184 0.000357791252777 0)
(0.00126589381691 0.000406302639178 0)
(0.00125629865023 0.000392710600654 0)
(0.00122616051802 0.000355123380419 0)
(0.00118378568286 0.00031139939132 0)
(0.00113571926677 0.000269038266621 0)
(0.00108633181942 0.000230799397842 0)
(0.00103830673799 0.000197363065451 0)
(0.000993171952114 0.000168546259048 0)
(0.000951708553978 0.000143850003722 0)
(0.000914233343939 0.000122700189889 0)
(0.00088078525002 0.000104547930068 0)
(0.000851245041718 8.89059678483e-05 0)
(0.000825410676672 7.53566763674e-05 0)
(0.000803043815893 6.35481854607e-05 0)
(0.000783897884923 5.31862642251e-05 0)
(0.00076773446291 4.40253732579e-05 0)
(0.000754332373224 3.58603112814e-05 0)
(0.000743492270478 2.851895398e-05 0)
(0.000735038497043 2.18561664847e-05 0)
(0.00072881932591 1.57487985934e-05 0)
(0.000724706287444 1.0091614223e-05 0)
(0.000722593010323 4.79400065624e-06 0)
(0.000722393836955 -2.2268116551e-07 0)
(0.000724042363282 -5.02721843349e-06 0)
(0.000727489984095 -9.68022705795e-06 0)
(0.00073270448801 -1.42354976374e-05 0)
(0.000739668711055 -1.87410278526e-05 0)
(0.000748379233584 -2.32397860983e-05 0)
(0.000758845097055 -2.77702334455e-05 0)
(0.000771086505663 -3.23666179104e-05 0)
(0.000785133468681 -3.70590448522e-05 0)
(0.000801024331278 -4.18733191144e-05 0)
(0.00081880413391 -4.6830547934e-05 0)
(0.000838522733228 -5.1946489457e-05 0)
(0.000860232611084 -5.72306303762e-05 0)
(0.000883986293494 -6.26849794986e-05 0)
(0.00090983329966 -6.83025733769e-05 0)
(0.000937816544367 -7.40657083011e-05 0)
(0.00096796812788 -7.99439420974e-05 0)
(0.00100030446942 -8.58919521646e-05 0)
(0.00103482077731 -9.18473936765e-05 0)
(0.00107148490549 -9.77289727507e-05 0)
(0.00111023072496 -0.000103435026613 0)
(0.00115095124216 -0.000108842973105 0)
(0.00119349181816 -0.000113810032423 0)
(0.00123764397255 -0.000118175605528 0)
(0.00128314036962 -0.000121765585216 0)
(0.0013296516495 -0.000124398659804 0)
(0.00137678574583 -0.000125894358035 0)
(0.00142409019402 -0.000126082236292 0)
(0.00147105767994 -0.000124811329252 0)
(0.00151713474652 -0.00012195889161 0)
(0.0015617332469 -0.000117437627319 0)
(0.00160424390463 -0.000111201008903 0)
(0.00164405128018 -0.000103246793225 0)
(0.00168054955023 -9.36192505566e-05 0)
(0.00171315872585 -8.24108025107e-05 0)
(0.00174134120253 -6.97636312344e-05 0)
(0.00176461875611 -5.58711927088e-05 0)
(0.00178259001064 -4.09781794679e-05 0)
(0.00179494759642 -2.53758044911e-05 0)
(0.00180149277242 -9.3892370608e-06 0)
(0.00180214435308 6.64285650238e-06 0)
(0.00179693957259 2.23923885203e-05 0)
(0.00178602665102 3.7563495758e-05 0)
(0.00176965085843 5.19071908847e-05 0)
(0.00174813713177 6.52265536516e-05 0)
(0.0017218726536 7.73730330229e-05 0)
(0.00169129192547 8.82376345036e-05 0)
(0.00165686509666 9.77417470504e-05 0)
(0.00161908881727 0.000105830699779 0)
(0.00157847837179 0.000112470871385 0)
(0.00153556000282 0.000117649872922 0)
(0.0014908626579 0.000121378766238 0)
(0.00144490878115 0.00012369490888 0)
(0.00139820425779 0.000124663883522 0)
(0.0013512280986 0.000124379286635 0)
(0.00130442274674 0.000122959831603 0)
(0.00125818591955 0.000120543974816 0)
(0.0012128646939 0.000117282844809 0)
(0.00116875220691 0.000113332524445 0)
(0.00112608698098 0.000108846707735 0)
(0.00108505458123 0.000103970510732 0)
(0.00104579112054 9.88358773885e-05 0)
(0.00100838804991 9.35586929878e-05 0)
(0.000972897689 8.82374673585e-05 0)
(0.000939339028687 8.29533014451e-05 0)
(0.000907703443252 7.77707945446e-05 0)
(0.000877960057739 7.27395604444e-05 0)
(0.000850060612702 6.7896070061e-05 0)
(0.000823943746161 6.32656032157e-05 0)
(0.000799538670266 5.88641567516e-05 0)
(0.000776768259884 5.47002123038e-05 0)
(0.000755551595176 5.07763108537e-05 0)
(0.000735806013881 4.70904132137e-05 0)
(0.000717448734581 4.3637046896e-05 0)
(0.000700398112355 4.04082531282e-05 0)
(0.000684574584891 3.73943547988e-05 0)
(0.000669901361877 3.4584569193e-05 0)
(0.000656304904308 3.19674895603e-05 0)
(0.000643715233894 2.95314583505e-05 0)
(0.000632066106565 2.72648527367e-05 0)
(0.000621295078247 2.51563006995e-05 0)
(0.000611343485867 2.31948434421e-05 0)
(0.000602156361926 2.13700577663e-05 0)
(0.00059368229695 1.9672150049e-05 0)
(0.000585873260638 1.80920319615e-05 0)
(0.000578684389602 1.66213867819e-05 0)
(0.000572073747112 1.52527343207e-05 0)
(0.000566002058262 1.3979501791e-05 0)
(0.000560432422544 1.27961075747e-05 0)
(0.000555330004901 1.16980643829e-05 0)
(0.000550661706359 1.06821077443e-05 0)
(0.000546395816425 9.74635442798e-06 0)
(0.000542501652327 8.89049268293e-06 0)
(0.000538949195629 8.11600035966e-06 0)
(0.000535708746074 7.42637542062e-06 0)
(0.000532750627406 6.82734047296e-06 0)
(0.000530045002423 6.32693846412e-06 0)
(0.000527561885948 5.93534952524e-06 0)
(0.000525271481977 5.66408682141e-06 0)
(0.000523144995337 5.52388477386e-06 0)
(0.000521155995982 5.51990142992e-06 0)
(0.000519281946662 5.64154879424e-06 0)
(0.000517503698442 5.8425214359e-06 0)
(0.000515796660021 6.00883650067e-06 0)
(0.00121287508437 0.000152571654982 0)
(0.00124186154464 0.000326407272965 0)
(0.00126613737005 0.00039668971602 0)
(0.00127275814829 0.000405297938112 0)
(0.0012619727844 0.000383459563904 0)
(0.00123841365595 0.000348997195922 0)
(0.00120690968814 0.00031101087032 0)
(0.00117128680415 0.000273837149875 0)
(0.00113427511431 0.000239362109083 0)
(0.00109771142496 0.000208245714922 0)
(0.0010627729364 0.000180552458595 0)
(0.00103017247662 0.000156073428517 0)
(0.0010003057008 0.000134489584326 0)
(0.000973357139215 0.000115453105938 0)
(0.000949374737304 9.86263268378e-05 0)
(0.000928321413996 8.36987396445e-05 0)
(0.00091011027341 7.03928009385e-05 0)
(0.000894628362511 5.84641873705e-05 0)
(0.000881752484162 4.76994814808e-05 0)
(0.000871359542947 3.79128421623e-05 0)
(0.000863333154652 2.8942452377e-05 0)
(0.00085756771989 2.06471286417e-05 0)
(0.000853970789441 1.29032606186e-05 0)
(0.000852464288372 5.60213726116e-06 0)
(0.00085298498479 -1.35233891446e-06 0)
(0.000855484458167 -8.04556154076e-06 0)
(0.00085992873989 -1.45537908137e-05 0)
(0.000866297742031 -2.09454475075e-05 0)
(0.000874584535011 -2.72821048288e-05 0)
(0.000884794503239 -3.36192138893e-05 0)
(0.000896944389094 -4.0006572038e-05 0)
(0.000911061216079 -4.64885347779e-05 0)
(0.000927181066726 -5.31039639922e-05 0)
(0.000945347678033 -5.98858982508e-05 0)
(0.000965610805972 -6.68609252131e-05 0)
(0.000988024300651 -7.40482328175e-05 0)
(0.00101264382507 -8.14583159424e-05 0)
(0.0010395241437 -8.90913207494e-05 0)
(0.00106871590352 -9.69350220219e-05 0)
(0.00110026183112 -0.00010496245295 0)
(0.00113419227825 -0.000113129245034 0)
(0.00117052006741 -0.000121370791699 0)
(0.00120923462418 -0.00012959942431 0)
(0.00125029543818 -0.000137701882436 0)
(0.00129362497535 -0.000145537463387 0)
(0.0013391012737 -0.000152937332536 0)
(0.00138655059019 -0.000159705536287 0)
(0.00143574061753 -0.000165622243879 0)
(0.00148637493201 -0.000170449608287 0)
(0.00153808942671 -0.000173940350594 0)
(0.0015904514806 -0.000175848746447 0)
(0.00164296246876 -0.000175943203519 0)
(0.00169506392069 -0.000174019210478 0)
(0.00174614722636 -0.000169911285933 0)
(0.00179556637669 -0.000163502781506 0)
(0.00184265293901 -0.000154732969282 0)
(0.00188673240285 -0.000143601566095 0)
(0.00192714118644 -0.000130171427523 0)
(0.00196324388785 -0.00011457040441 0)
(0.00199445073709 -9.69932661869e-05 0)
(0.00202023562198 -7.77039197527e-05 0)
(0.00204015518824 -5.70362125548e-05 0)
(0.00205386854859 -3.53886753149e-05 0)
(0.00206115487948 -1.32078510681e-05 0)
(0.00206192447239 9.04029830917e-06 0)
(0.00205621987888 3.09043021724e-05 0)
(0.00204420690451 5.19774416301e-05 0)
(0.00202615785054 7.19180402501e-05 0)
(0.00200243089845 9.04563201675e-05 0)
(0.00197345005582 0.000107388516216 0)
(0.00193968888533 0.000122563973632 0)
(0.00190165863276 0.000135872410595 0)
(0.00185989935192 0.000147235518035 0)
(0.00181497225058 0.000156603524276 0)
(0.00176745195313 0.000163955815862 0)
(0.00171791781992 0.000169304237876 0)
(0.00166694388611 0.00017269719293 0)
(0.00161508757158 0.000174222392322 0)
(0.0015628779227 0.000174006551538 0)
(0.00151080450637 0.000172211311622 0)
(0.00145930808176 0.000169025734664 0)
(0.00140877389053 0.000164656501141 0)
(0.00135952797415 0.000159317281692 0)
(0.00131183648399 0.000153218687063 0)
(0.00126590760093 0.000146559844101 0)
(0.00122189547387 0.00013952217 0)
(0.00117990552136 0.000132265468841 0)
(0.0011400004827 0.000124926142155 0)
(0.00110220670976 0.00011761711537 0)
(0.00106652031797 0.000110429016337 0)
(0.00103291293869 0.00010343216367 0)
(0.00100133691918 9.6678992155e-05 0)
(0.000971729897275 9.02066298062e-05 0)
(0.000944018735805 8.40394263233e-05 0)
(0.000918122839818 7.81913056829e-05 0)