/*--------------------------------*- C++ -*----------------------------------*\
  =========                 |
  \\      /  F ield         | OpenFOAM: The Open Source CFD Toolbox
   \\    /   O peration     | Website:  https://openfoam.org
    \\  /    A nd           | Version:  7
     \\/     M anipulation  |
\*---------------------------------------------------------------------------*/
FoamFile
{
    version     2.0;
    format      ascii;
    class       volScalarField;
    location    "179.999473411366523";
    object      p;
}
// * * * * * * * * * * * * * * * * * * * * * * * * * * * * * * * * * * * * * //

dimensions      [0 2 -2 0 0 0 0];

internalField   nonuniform List<scalar> 
4096
(
0.000686
0.0005151
0.0004309
0.0003887
0.0003654
0.0003515
0.0003426
0.0003365
0.0003322
0.0003289
0.0003264
0.0003244
0.0003228
0.0003214
0.0003202
0.0003192
0.0003184
0.0003176
0.0003169
0.0003162
0.0003156
0.000315
0.0003145
0.000314
0.0003134
0.0003129
0.0003124
0.0003119
0.0003114
0.0003108
0.0003103
0.0003097
0.0003091
0.0003084
0.0003076
0.0003068
0.0003059
0.0003049
0.0003038
0.0003025
0.0003011
0.0002995
0.0002976
0.0002955
0.0002932
0.0002905
0.0002874
0.000284
0.0002802
0.0002759
0.0002712
0.000266
0.0002603
0.000254
0.0002472
0.00024
0.0002322
0.0002239
0.0002151
0.000206
0.0001965
0.0001868
0.0001768
0.0001668
0.0001567
0.0001466
0.0001368
0.0001271
0.0001177
0.0001087
0.0001002
9.203e-05
8.438e-05
7.723e-05
7.058e-05
6.445e-05
5.882e-05
5.368e-05
4.901e-05
4.48e-05
4.101e-05
3.762e-05
3.46e-05
3.191e-05
2.953e-05
2.742e-05
2.556e-05
2.391e-05
2.246e-05
2.117e-05
2.002e-05
1.9e-05
1.808e-05
1.725e-05
1.649e-05
1.58e-05
1.516e-05
1.456e-05
1.399e-05
1.345e-05
1.293e-05
1.243e-05
1.194e-05
1.146e-05
1.099e-05
1.052e-05
1.005e-05
9.585e-06
9.12e-06
8.653e-06
8.185e-06
7.714e-06
7.24e-06
6.763e-06
6.283e-06
5.799e-06
5.31e-06
4.818e-06
4.322e-06
3.821e-06
3.317e-06
2.811e-06
2.302e-06
1.795e-06
1.293e-06
8.048e-07
3.49e-07
2.992e-08
0.0005415
0.0004778
0.000428
0.000396
0.000375
0.0003608
0.0003508
0.0003435
0.000338
0.0003338
0.0003305
0.0003278
0.0003256
0.0003238
0.0003223
0.0003209
0.0003198
0.0003187
0.0003178
0.0003169
0.0003162
0.0003154
0.0003147
0.000314
0.0003134
0.0003127
0.0003121
0.0003114
0.0003108
0.0003101
0.0003094
0.0003086
0.0003079
0.000307
0.0003061
0.0003051
0.0003041
0.0003029
0.0003016
0.0003001
0.0002985
0.0002967
0.0002947
0.0002924
0.0002899
0.000287
0.0002839
0.0002803
0.0002764
0.0002721
0.0002674
0.0002621
0.0002565
0.0002503
0.0002437
0.0002366
0.000229
0.0002211
0.0002127
0.0002039
0.0001949
0.0001856
0.0001761
0.0001665
0.000157
0.0001474
0.000138
0.0001288
0.0001198
0.0001112
0.000103
9.512e-05
8.771e-05
8.074e-05
7.424e-05
6.82e-05
6.262e-05
5.749e-05
5.281e-05
4.854e-05
4.467e-05
4.117e-05
3.803e-05
3.52e-05
3.267e-05
3.041e-05
2.838e-05
2.657e-05
2.495e-05
2.349e-05
2.219e-05
2.101e-05
1.994e-05
1.896e-05
1.807e-05
1.724e-05
1.648e-05
1.576e-05
1.509e-05
1.445e-05
1.384e-05
1.325e-05
1.268e-05
1.213e-05
1.159e-05
1.106e-05
1.054e-05
1.002e-05
9.512e-06
9.004e-06
8.498e-06
7.994e-06
7.49e-06
6.987e-06
6.482e-06
5.977e-06
5.47e-06
4.962e-06
4.452e-06
3.941e-06
3.428e-06
2.915e-06
2.403e-06
1.893e-06
1.388e-06
8.958e-07
4.245e-07
6.117e-08
0.000458
0.0004364
0.0004109
0.0003902
0.0003747
0.000363
0.000354
0.000347
0.0003414
0.000337
0.0003333
0.0003304
0.0003279
0.0003257
0.0003239
0.0003224
0.000321
0.0003197
0.0003186
0.0003176
0.0003167
0.0003158
0.0003149
0.0003141
0.0003133
0.0003125
0.0003117
0.000311
0.0003102
0.0003093
0.0003085
0.0003076
0.0003067
0.0003057
0.0003047
0.0003035
0.0003023
0.000301
0.0002995
0.0002979
0.0002961
0.0002941
0.000292
0.0002895
0.0002869
0.0002839
0.0002806
0.000277
0.000273
0.0002687
0.0002639
0.0002587
0.0002531
0.0002471
0.0002406
0.0002337
0.0002263
0.0002186
0.0002105
0.0002021
0.0001934
0.0001845
0.0001755
0.0001663
0.0001572
0.000148
0.000139
0.0001302
0.0001216
0.0001134
0.0001054
9.781e-05
9.061e-05
8.383e-05
7.746e-05
7.152e-05
6.6e-05
6.09e-05
5.621e-05
5.191e-05
4.798e-05
4.441e-05
4.116e-05
3.823e-05
3.557e-05
3.318e-05
3.101e-05
2.906e-05
2.729e-05
2.569e-05
2.424e-05
2.292e-05
2.171e-05
2.061e-05
1.959e-05
1.864e-05
1.777e-05
1.694e-05
1.617e-05
1.543e-05
1.473e-05
1.406e-05
1.342e-05
1.28e-05
1.219e-05
1.161e-05
1.103e-05
1.047e-05
9.909e-06
9.361e-06
8.818e-06
8.28e-06
7.747e-06
7.216e-06
6.688e-06
6.161e-06
5.636e-06
5.111e-06
4.587e-06
4.064e-06
3.541e-06
3.019e-06
2.498e-06
1.98e-06
1.467e-06
9.601e-07
4.643e-07
6.614e-08
0.0004133
0.0004062
0.0003929
0.0003797
0.0003689
0.0003601
0.000353
0.0003471
0.0003422
0.0003381
0.0003346
0.0003317
0.0003291
0.0003269
0.000325
0.0003233
0.0003218
0.0003205
0.0003192
0.0003181
0.000317
0.000316
0.000315
0.0003141
0.0003132
0.0003123
0.0003114
0.0003105
0.0003096
0.0003087
0.0003077
0.0003067
0.0003057
0.0003046
0.0003034
0.0003021
0.0003008
0.0002993
0.0002977
0.000296
0.0002941
0.000292
0.0002897
0.0002872
0.0002844
0.0002814
0.000278
0.0002743
0.0002703
0.0002659
0.0002612
0.000256
0.0002505
0.0002445
0.0002381
0.0002314
0.0002242
0.0002167
0.0002089
0.0002007
0.0001923
0.0001837
0.000175
0.0001661
0.0001573
0.0001485
0.0001398
0.0001313
0.000123
0.000115
0.0001073
9.988e-05
9.287e-05
8.623e-05
7.998e-05
7.413e-05
6.868e-05
6.361e-05
5.893e-05
5.462e-05
5.066e-05
4.704e-05
4.374e-05
4.072e-05
3.798e-05
3.549e-05
3.322e-05
3.116e-05
2.929e-05
2.758e-05
2.601e-05
2.458e-05
2.326e-05
2.205e-05
2.093e-05
1.988e-05
1.891e-05
1.799e-05
1.713e-05
1.632e-05
1.554e-05
1.48e-05
1.409e-05
1.341e-05
1.275e-05
1.211e-05
1.148e-05
1.087e-05
1.028e-05
9.692e-06
9.116e-06
8.548e-06
7.987e-06
7.432e-06
6.881e-06
6.335e-06
5.792e-06
5.252e-06
4.714e-06
4.178e-06
3.644e-06
3.111e-06
2.58e-06
2.051e-06
1.525e-06
1.002e-06
4.824e-07
6.208e-08
0.0003863
0.0003854
0.0003784
0.0003698
0.0003621
0.0003555
0.00035
0.0003453
0.0003413
0.0003377
0.0003347
0.0003319
0.0003296
0.0003274
0.0003255
0.0003238
0.0003223
0.0003209
0.0003196
0.0003183
0.0003172
0.0003161
0.0003151
0.000314
0.0003131
0.0003121
0.0003111
0.0003101
0.0003091
0.0003081
0.000307
0.0003059
0.0003048
0.0003036
0.0003023
0.000301
0.0002995
0.0002979
0.0002962
0.0002944
0.0002924
0.0002902
0.0002879
0.0002853
0.0002824
0.0002793
0.0002759
0.0002722
0.0002682
0.0002638
0.0002591
0.0002539
0.0002484
0.0002425
0.0002363
0.0002296
0.0002226
0.0002153
0.0002076
0.0001997
0.0001915
0.0001831
0.0001746
0.000166
0.0001574
0.0001488
0.0001403
0.0001321
0.000124
0.0001162
0.0001086
0.0001014
9.456e-05
8.804e-05
8.19e-05
7.613e-05
7.073e-05
6.57e-05
6.104e-05
5.674e-05
5.277e-05
4.912e-05
4.578e-05
4.272e-05
3.993e-05
3.737e-05
3.503e-05
3.289e-05
3.094e-05
2.914e-05
2.749e-05
2.598e-05
2.457e-05
2.328e-05
2.207e-05
2.095e-05
1.989e-05
1.891e-05
1.797e-05
1.709e-05
1.625e-05
1.545e-05
1.469e-05
1.395e-05
1.324e-05
1.255e-05
1.189e-05
1.124e-05
1.061e-05
9.99e-06
9.385e-06
8.79e-06
8.204e-06
7.627e-06
7.057e-06
6.493e-06
5.934e-06
5.379e-06
4.828e-06
4.28e-06
3.735e-06
3.192e-06
2.65e-06
2.11e-06
1.57e-06
1.032e-06
4.936e-07
5.745e-08
0.000369
0.0003705
0.0003672
0.0003615
0.0003558
0.0003508
0.0003465
0.0003427
0.0003394
0.0003365
0.0003338
0.0003315
0.0003293
0.0003273
0.0003255
0.0003239
0.0003224
0.000321
0.0003197
0.0003184
0.0003172
0.0003161
0.000315
0.0003139
0.0003129
0.0003118
0.0003108
0.0003098
0.0003087
0.0003076
0.0003065
0.0003053
0.0003041
0.0003028
0.0003014
0.0003
0.0002985
0.0002968
0.0002951
0.0002932
0.0002911
0.0002889
0.0002865
0.0002838
0.0002809
0.0002778
0.0002744
0.0002707
0.0002666
0.0002622
0.0002575
0.0002524
0.000247
0.0002411
0.0002349
0.0002283
0.0002214
0.0002142
0.0002067
0.0001989
0.0001908
0.0001826
0.0001742
0.0001658
0.0001574
0.000149
0.0001407
0.0001326
0.0001246
0.000117
0.0001096
0.0001025
9.574e-05
8.933e-05
8.326e-05
7.755e-05
7.221e-05
6.722e-05
6.259e-05
5.83e-05
5.434e-05
5.068e-05
4.733e-05
4.425e-05
4.142e-05
3.882e-05
3.644e-05
3.425e-05
3.224e-05
3.039e-05
2.868e-05
2.711e-05
2.564e-05
2.428e-05
2.301e-05
2.183e-05
2.071e-05
1.967e-05
1.868e-05
1.774e-05
1.685e-05
1.6e-05
1.519e-05
1.441e-05
1.366e-05
1.293e-05
1.223e-05
1.155e-05
1.089e-05
1.025e-05
9.616e-06
8.999e-06
8.393e-06
7.797e-06
7.209e-06
6.63e-06
6.057e-06
5.49e-06
4.927e-06
4.369e-06
3.813e-06
3.26e-06
2.709e-06
2.158e-06
1.608e-06
1.057e-06
5.025e-07
5.411e-08
0.000357
0.0003595
0.0003583
0.0003546
0.0003504
0.0003465
0.000343
0.0003399
0.0003372
0.0003348
0.0003325
0.0003305
0.0003286
0.0003268
0.0003252
0.0003237
0.0003222
0.0003209
0.0003196
0.0003183
0.0003172
0.000316
0.0003149
0.0003138
0.0003127
0.0003116
0.0003105
0.0003094
0.0003083
0.0003072
0.000306
0.0003048
0.0003035
0.0003022
0.0003008
0.0002993
0.0002977
0.000296
0.0002942
0.0002923
0.0002902
0.0002879
0.0002854
0.0002828
0.0002799
0.0002767
0.0002733
0.0002696
0.0002656
0.0002612
0.0002565
0.0002514
0.000246
0.0002402
0.000234
0.0002275
0.0002207
0.0002135
0.000206
0.0001983
0.0001904
0.0001823
0.000174
0.0001657
0.0001573
0.000149
0.0001408
0.0001328
0.000125
0.0001174
0.0001101
0.0001031
9.647e-05
9.012e-05
8.411e-05
7.846e-05
7.316e-05
6.821e-05
6.36e-05
5.933e-05
5.539e-05
5.175e-05
4.84e-05
4.531e-05
4.248e-05
3.987e-05
3.747e-05
3.526e-05
3.322e-05
3.133e-05
2.959e-05
2.797e-05
2.646e-05
2.506e-05
2.374e-05
2.251e-05
2.136e-05
2.027e-05
1.923e-05
1.826e-05
1.733e-05
1.644e-05
1.559e-05
1.478e-05
1.4e-05
1.324e-05
1.252e-05
1.181e-05
1.112e-05
1.046e-05
9.806e-06
9.17e-06
8.547e-06
7.936e-06
7.335e-06
6.743e-06
6.158e-06
5.581e-06
5.009e-06
4.441e-06
3.878e-06
3.317e-06
2.757e-06
2.198e-06
1.639e-06
1.077e-06
5.11e-07
5.278e-08
0.0003484
0.0003512
0.0003511
0.0003489
0.0003458
0.0003427
0.0003398
0.0003373
0.000335
0.0003329
0.000331
0.0003293
0.0003276
0.0003261
0.0003246
0.0003232
0.0003218
0.0003206
0.0003193
0.0003181
0.000317
0.0003158
0.0003147
0.0003136
0.0003125
0.0003114
0.0003103
0.0003092
0.000308
0.0003069
0.0003057
0.0003044
0.0003031
0.0003017
0.0003003
0.0002988
0.0002972
0.0002955
0.0002936
0.0002917
0.0002896
0.0002873
0.0002848
0.0002822
0.0002793
0.0002761
0.0002727
0.000269
0.000265
0.0002607
0.000256
0.0002509
0.0002455
0.0002397
0.0002336
0.0002271
0.0002203
0.0002131
0.0002057
0.000198
0.0001901
0.000182
0.0001738
0.0001655
0.0001572
0.0001489
0.0001408
0.0001328
0.0001251
0.0001176
0.0001103
0.0001034
9.675e-05
9.045e-05
8.448e-05
7.886e-05
7.359e-05
6.867e-05
6.41e-05
5.986e-05
5.594e-05
5.233e-05
4.9e-05
4.594e-05
4.312e-05
4.052e-05
3.812e-05
3.59e-05
3.386e-05
3.196e-05
3.02e-05
2.856e-05
2.703e-05
2.561e-05
2.427e-05
2.301e-05
2.182e-05
2.07e-05
1.965e-05
1.864e-05
1.768e-05
1.677e-05
1.589e-05
1.506e-05
1.425e-05
1.348e-05
1.273e-05
1.2e-05
1.13e-05
1.062e-05
9.95e-06
9.3e-06
8.664e-06
8.041e-06
7.43e-06
6.828e-06
6.235e-06
5.65e-06
5.071e-06
4.497e-06
3.927e-06
3.36e-06
2.795e-06
2.23e-06
1.664e-06
1.095e-06
5.201e-07
5.378e-08
0.0003419
0.0003447
0.0003453
0.000344
0.0003419
0.0003394
0.0003371
0.0003349
0.0003329
0.0003311
0.0003295
0.000328
0.0003265
0.0003251
0.0003238
0.0003226
0.0003213
0.0003201
0.000319
0.0003178
0.0003167
0.0003156
0.0003145
0.0003134
0.0003123
0.0003112
0.0003101
0.000309
0.0003078
0.0003067
0.0003054
0.0003042
0.0003029
0.0003015
0.0003
0.0002985
0.0002969
0.0002952
0.0002933
0.0002914
0.0002893
0.000287
0.0002846
0.0002819
0.0002791
0.000276
0.0002726
0.0002689
0.0002649
0.0002606
0.0002559
0.0002509
0.0002455
0.0002397
0.0002336
0.0002271
0.0002202
0.0002131
0.0002057
0.000198
0.00019
0.0001819
0.0001737
0.0001654
0.000157
0.0001487
0.0001406
0.0001326
0.0001249
0.0001174
0.0001102
0.0001032
9.66e-05
9.031e-05
8.436e-05
7.876e-05
7.351e-05
6.863e-05
6.409e-05
5.989e-05
5.602e-05
5.245e-05
4.916e-05
4.613e-05
4.335e-05
4.078e-05
3.84e-05
3.621e-05
3.418e-05
3.229e-05
3.053e-05
2.89e-05
2.737e-05
2.593e-05
2.458e-05
2.331e-05
2.211e-05
2.098e-05
1.991e-05
1.888e-05
1.791e-05
1.698e-05
1.609e-05
1.524e-05
1.442e-05
1.363e-05
1.287e-05
1.213e-05
1.141e-05
1.072e-05
1.004e-05
9.385e-06
8.741e-06
8.111e-06
7.493e-06
6.885e-06
6.287e-06
5.696e-06
5.113e-06
4.535e-06
3.962e-06
3.391e-06
2.823e-06
2.254e-06
1.684e-06
1.111e-06
5.302e-07
5.734e-08
0.0003369
0.0003394
0.0003404
0.0003399
0.0003384
0.0003365
0.0003346
0.0003328
0.000331
0.0003295
0.000328
0.0003267
0.0003254
0.0003242
0.000323
0.0003219
0.0003207
0.0003196
0.0003185
0.0003175
0.0003164
0.0003154
0.0003143
0.0003132
0.0003122
0.0003111
0.00031
0.0003089
0.0003077
0.0003065
0.0003053
0.0003041
0.0003028
0.0003014
0.0002999
0.0002984
0.0002968
0.0002951
0.0002933
0.0002914
0.0002893
0.0002871
0.0002847
0.0002821
0.0002793
0.0002762
0.0002729
0.0002693
0.0002653
0.0002611
0.0002564
0.0002514
0.000246
0.0002402
0.000234
0.0002275
0.0002206
0.0002134
0.0002059
0.0001981
0.0001902
0.000182
0.0001736
0.0001652
0.0001568
0.0001484
0.0001402
0.0001322
0.0001244
0.0001169
0.0001096
0.0001026
9.6e-05
8.97e-05
8.374e-05
7.815e-05
7.293e-05
6.807e-05
6.358e-05
5.943e-05
5.561e-05
5.21e-05
4.888e-05
4.591e-05
4.318e-05
4.066e-05
3.834e-05
3.618e-05
3.419e-05
3.233e-05
3.06e-05
2.898e-05
2.746e-05
2.603e-05
2.469e-05
2.343e-05
2.223e-05
2.109e-05
2.002e-05
1.899e-05
1.801e-05
1.708e-05
1.618e-05
1.532e-05
1.45e-05
1.37e-05
1.293e-05
1.219e-05
1.147e-05
1.077e-05
1.009e-05
9.425e-06
8.777e-06
8.143e-06
7.522e-06
6.912e-06
6.311e-06
5.719e-06
5.134e-06
4.555e-06
3.98e-06
3.409e-06
2.84e-06
2.271e-06
1.7e-06
1.124e-06
5.416e-07
6.362e-08
0.0003328
0.0003352
0.0003364
0.0003363
0.0003354
0.000334
0.0003324
0.0003309
0.0003294
0.000328
0.0003267
0.0003255
0.0003244
0.0003233
0.0003222
0.0003212
0.0003201
0.0003191
0.0003181
0.0003171
0.0003161
0.0003151
0.0003141
0.0003131
0.000312
0.000311
0.0003099
0.0003088
0.0003077
0.0003065
0.0003053
0.0003041
0.0003028
0.0003015
0.0003
0.0002986
0.000297
0.0002953
0.0002936
0.0002917
0.0002897
0.0002875
0.0002852
0.0002826
0.0002799
0.0002769
0.0002737
0.0002701
0.0002662
0.000262
0.0002574
0.0002524
0.000247
0.0002412
0.000235
0.0002283
0.0002214
0.0002141
0.0002065
0.0001986
0.0001905
0.0001822
0.0001737
0.0001651
0.0001565
0.000148
0.0001396
0.0001315
0.0001236
0.000116
0.0001086
0.0001016
9.492e-05
8.857e-05
8.26e-05
7.701e-05
7.18e-05
6.699e-05
6.255e-05
5.847e-05
5.473e-05
5.13e-05
4.816e-05
4.527e-05
4.262e-05
4.018e-05
3.792e-05
3.583e-05
3.389e-05
3.208e-05
3.039e-05
2.881e-05
2.732e-05
2.593e-05
2.461e-05
2.336e-05
2.217e-05
2.105e-05
1.998e-05
1.896e-05
1.799e-05
1.706e-05
1.617e-05
1.531e-05
1.449e-05
1.369e-05
1.292e-05
1.218e-05
1.146e-05
1.076e-05
1.008e-05
9.418e-06
8.771e-06
8.137e-06
7.517e-06
6.908e-06
6.308e-06
5.717e-06
5.134e-06
4.556e-06
3.984e-06
3.414e-06
2.847e-06
2.279e-06
1.71e-06
1.136e-06
5.545e-07
7.272e-08
0.0003296
0.0003318
0.000333
0.0003333
0.0003327
0.0003317
0.0003305
0.0003292
0.0003279
0.0003267
0.0003255
0.0003244
0.0003234
0.0003224
0.0003214
0.0003205
0.0003196
0.0003186
0.0003177
0.0003168
0.0003158
0.0003149
0.0003139
0.0003129
0.0003119
0.0003109
0.0003099
0.0003088
0.0003077
0.0003066
0.0003055
0.0003043
0.000303
0.0003017
0.0003003
0.0002989
0.0002974
0.0002958
0.0002941
0.0002923
0.0002903
0.0002882
0.000286
0.0002835
0.0002809
0.000278
0.0002749
0.0002714
0.0002676
0.0002635
0.0002589
0.000254
0.0002486
0.0002427
0.0002364
0.0002298
0.0002227
0.0002152
0.0002075
0.0001994
0.0001911
0.0001826
0.0001738
0.000165
0.0001561
0.0001474
0.0001388
0.0001305
0.0001224
0.0001147
0.0001072
0.0001001
9.328e-05
8.689e-05
8.089e-05
7.529e-05
7.011e-05
6.535e-05
6.098e-05
5.699e-05
5.335e-05
5.004e-05
4.701e-05
4.423e-05
4.169e-05
3.934e-05
3.718e-05
3.517e-05
3.331e-05
3.157e-05
2.994e-05
2.841e-05
2.697e-05
2.561e-05
2.433e-05
2.311e-05
2.196e-05
2.086e-05
1.981e-05
1.881e-05
1.785e-05
1.693e-05
1.605e-05
1.52e-05
1.439e-05
1.36e-05
1.284e-05
1.211e-05
1.139e-05
1.07e-05
1.002e-05
9.366e-06
8.723e-06
8.095e-06
7.479e-06
6.874e-06
6.279e-06
5.692e-06
5.113e-06
4.54e-06
3.972e-06
3.407e-06
2.844e-06
2.281e-06
1.716e-06
1.146e-06
5.69e-07
8.469e-08
0.0003268
0.0003289
0.0003302
0.0003306
0.0003304
0.0003297
0.0003288
0.0003277
0.0003266
0.0003255
0.0003245
0.0003235
0.0003225
0.0003216
0.0003207
0.0003199
0.000319
0.0003182
0.0003173
0.0003164
0.0003155
0.0003147
0.0003138
0.0003128
0.0003119
0.0003109
0.0003099
0.0003089
0.0003079
0.0003068
0.0003057
0.0003045
0.0003033
0.0003021
0.0003008
0.0002994
0.000298
0.0002964
0.0002948
0.0002931
0.0002912
0.0002893
0.0002871
0.0002848
0.0002823
0.0002796
0.0002765
0.0002732
0.0002696
0.0002655
0.0002611
0.0002562
0.0002508
0.0002449
0.0002386
0.0002318
0.0002246
0.000217
0.000209
0.0002007
0.0001922
0.0001833
0.0001742
0.0001649
0.0001557
0.0001466
0.0001376
0.000129
0.0001208
0.0001128
0.0001051
9.787e-05
9.101e-05
8.455e-05
7.853e-05
7.294e-05
6.781e-05
6.312e-05
5.886e-05
5.499e-05
5.149e-05
4.832e-05
4.543e-05
4.28e-05
4.039e-05
3.817e-05
3.612e-05
3.422e-05
3.245e-05
3.08e-05
2.925e-05
2.779e-05
2.641e-05
2.511e-05
2.388e-05
2.27e-05
2.159e-05
2.052e-05
1.95e-05
1.853e-05
1.759e-05
1.67e-05
1.584e-05
1.501e-05
1.421e-05
1.344e-05
1.269e-05
1.197e-05
1.127e-05
1.058e-05
9.918e-06
9.27e-06
8.636e-06
8.016e-06
7.408e-06
6.811e-06
6.223e-06
5.644e-06
5.072e-06
4.506e-06
3.945e-06
3.387e-06
2.831e-06
2.275e-06
1.717e-06
1.155e-06
5.851e-07
9.948e-08
0.0003246
0.0003265
0.0003278
0.0003284
0.0003284
0.0003279
0.0003272
0.0003263
0.0003254
0.0003245
0.0003235
0.0003226
0.0003218
0.000321
0.0003201
0.0003193
0.0003185
0.0003178
0.000317
0.0003162
0.0003153
0.0003145
0.0003137
0.0003128
0.0003119
0.000311
0.0003101
0.0003091
0.0003081
0.0003071
0.000306
0.0003049
0.0003038
0.0003026
0.0003014
0.0003001
0.0002987
0.0002973
0.0002958
0.0002942
0.0002924
0.0002906
0.0002886
0.0002864
0.0002841
0.0002815
0.0002787
0.0002755
0.000272
0.0002681
0.0002638
0.000259
0.0002537
0.0002478
0.0002415
0.0002346
0.0002273
0.0002195
0.0002112
0.0002026
0.0001937
0.0001844
0.0001747
0.0001649
0.0001552
0.0001455
0.000136
0.000127
0.0001185
0.0001102
0.0001024
9.493e-05
8.797e-05
8.148e-05
7.545e-05
6.99e-05
6.484e-05
6.027e-05
5.616e-05
5.246e-05
4.914e-05
4.615e-05
4.344e-05
4.098e-05
3.873e-05
3.667e-05
3.476e-05
3.299e-05
3.134e-05
2.98e-05
2.834e-05
2.697e-05
2.567e-05
2.443e-05
2.326e-05
2.214e-05
2.107e-05
2.005e-05
1.907e-05
1.814e-05
1.724e-05
1.637e-05
1.554e-05
1.473e-05
1.395e-05
1.32e-05
1.248e-05
1.177e-05
1.108e-05
1.042e-05
9.767e-06
9.132e-06
8.511e-06
7.903e-06
7.306e-06
6.72e-06
6.143e-06
5.574e-06
5.012e-06
4.456e-06
3.904e-06
3.355e-06
2.809e-06
2.262e-06
1.714e-06
1.162e-06
6.028e-07
1.17e-07
0.0003227
0.0003244
0.0003257
0.0003264
0.0003266
0.0003263
0.0003258
0.0003251
0.0003244
0.0003235
0.0003227
0.0003219
0.0003211
0.0003204
0.0003196
0.0003189
0.0003182
0.0003174
0.0003167
0.0003159
0.0003152
0.0003144
0.0003136
0.0003128
0.000312
0.0003111
0.0003103
0.0003094
0.0003084
0.0003075
0.0003065
0.0003055
0.0003044
0.0003033
0.0003021
0.0003009
0.0002997
0.0002983
0.0002969
0.0002954
0.0002939
0.0002922
0.0002903
0.0002884
0.0002862
0.0002838
0.0002812
0.0002783
0.000275
0.0002713
0.0002672
0.0002626
0.0002574
0.0002516
0.0002453
0.0002384
0.000231
0.000223
0.0002144
0.0002055
0.0001962
0.0001863
0.0001757
0.000165
0.0001545
0.000144
0.0001337
0.0001242
0.0001153
0.0001067
9.858e-05
9.101e-05
8.402e-05
7.754e-05
7.155e-05
6.609e-05
6.117e-05
5.678e-05
5.287e-05
4.94e-05
4.631e-05
4.354e-05
4.106e-05
3.881e-05
3.676e-05
3.487e-05
3.314e-05
3.152e-05
3e-05
2.858e-05
2.723e-05
2.596e-05
2.475e-05
2.359e-05
2.249e-05
2.144e-05
2.043e-05
1.946e-05
1.853e-05
1.764e-05
1.678e-05
1.595e-05
1.515e-05
1.438e-05
1.363e-05
1.29e-05
1.22e-05
1.152e-05
1.085e-05
1.021e-05
9.574e-06
8.956e-06
8.352e-06
7.759e-06
7.177e-06
6.604e-06
6.04e-06
5.484e-06
4.934e-06
4.39e-06
3.85e-06
3.313e-06
2.778e-06
2.243e-06
1.707e-06
1.168e-06
6.22e-07
1.37e-07
0.0003211
0.0003227
0.000324
0.0003247
0.000325
0.0003249
0.0003246
0.0003241
0.0003234
0.0003227
0.000322
0.0003213
0.0003206
0.0003199
0.0003192
0.0003185
0.0003178
0.0003172
0.0003165
0.0003158
0.0003151
0.0003144
0.0003136
0.0003129
0.0003121
0.0003113
0.0003105
0.0003097
0.0003088
0.0003079
0.000307
0.0003061
0.0003051
0.0003041
0.000303
0.0003019
0.0003008
0.0002996
0.0002983
0.0002969
0.0002955
0.000294
0.0002924
0.0002906
0.0002886
0.0002865
0.0002842
0.0002815
0.0002785
0.0002751
0.0002713
0.0002669
0.0002619
0.0002563
0.0002501
0.0002433
0.000236
0.0002279
0.000219
0.0002097
0.0002002
0.0001894
0.0001774
0.0001654
0.0001536
0.0001418
0.0001302
0.0001199
0.0001108
0.0001019
9.348e-05
8.588e-05
7.898e-05
7.261e-05
6.675e-05
6.145e-05
5.675e-05
5.262e-05
4.9e-05
4.581e-05
4.301e-05
4.052e-05
3.831e-05
3.631e-05
3.449e-05
3.281e-05
3.126e-05
2.982e-05
2.846e-05
2.717e-05
2.595e-05
2.479e-05
2.368e-05
2.262e-05
2.16e-05
2.062e-05
1.968e-05
1.877e-05
1.79e-05
1.705e-05
1.624e-05
1.545e-05
1.469e-05
1.396e-05
1.324e-05
1.255e-05
1.187e-05
1.122e-05
1.058e-05
9.954e-06
9.344e-06
8.747e-06
8.161e-06
7.586e-06
7.021e-06
6.465e-06
5.917e-06
5.376e-06
4.84e-06
4.31e-06
3.784e-06
3.261e-06
2.74e-06
2.219e-06
1.697e-06
1.173e-06
6.426e-07
1.593e-07
0.0003197
0.0003212
0.0003225
0.0003233
0.0003236
0.0003237
0.0003235
0.0003231
0.0003226
0.000322
0.0003214
0.0003208
0.0003201
0.0003195
0.0003188
0.0003182
0.0003176
0.000317
0.0003163
0.0003157
0.000315
0.0003144
0.0003137
0.000313
0.0003123
0.0003116
0.0003109
0.0003101
0.0003093
0.0003085
0.0003077
0.0003068
0.0003059
0.000305
0.000304
0.000303
0.000302
0.0003009
0.0002998
0.0002986
0.0002973
0.000296
0.0002946
0.0002931
0.0002914
0.0002895
0.0002875
0.0002852
0.0002825
0.0002795
0.000276
0.000272
0.0002674
0.000262
0.0002561
0.0002496
0.0002426
0.0002348
0.0002257
0.0002162
0.0002066
0.0001947
0.0001804
0.000166
0.0001522
0.0001382
0.0001245
0.0001133
0.0001042
9.519e-05
8.666e-05
7.926e-05
7.271e-05
6.661e-05
6.098e-05
5.597e-05
5.16e-05
4.782e-05
4.456e-05
4.174e-05
3.929e-05
3.714e-05
3.523e-05
3.352e-05
3.196e-05
3.053e-05
2.919e-05
2.793e-05
2.674e-05
2.561e-05
2.453e-05
2.349e-05
2.249e-05
2.152e-05
2.059e-05
1.969e-05
1.883e-05
1.799e-05
1.718e-05
1.639e-05
1.563e-05
1.489e-05
1.417e-05
1.348e-05
1.28e-05
1.214e-05
1.15e-05
1.088e-05
1.026e-05
9.667e-06
9.082e-06
8.507e-06
7.944e-06
7.39e-06
6.844e-06
6.307e-06
5.776e-06
5.252e-06
4.733e-06
4.218e-06
3.708e-06
3.2e-06
2.695e-06
2.19e-06
1.684e-06
1.176e-06
6.643e-07
1.836e-07
0.0003186
0.00032
0.0003212
0.000322
0.0003225
0.0003226
0.0003225
0.0003223
0.0003219
0.0003214
0.0003209
0.0003203
0.0003197
0.0003191
0.0003186
0.000318
0.0003174
0.0003168
0.0003162
0.0003157
0.0003151
0.0003145
0.0003138
0.0003132
0.0003126
0.0003119
0.0003112
0.0003105
0.0003098
0.0003091
0.0003084
0.0003076
0.0003068
0.000306
0.0003051
0.0003042
0.0003033
0.0003024
0.0003014
0.0003004
0.0002993
0.0002982
0.000297
0.0002957
0.0002944
0.0002928
0.0002911
0.0002892
0.000287
0.0002844
0.0002814
0.0002779
0.0002737
0.0002688
0.0002632
0.0002573
0.0002511
0.0002439
0.0002349
0.0002257
0.000218
0.0002048
0.0001853
0.0001669
0.0001502
0.0001325
0.0001142
0.0001021
9.475e-05
8.607e-05
7.763e-05
7.09e-05
6.511e-05
5.951e-05
5.428e-05
4.968e-05
4.576e-05
4.245e-05
3.964e-05
3.726e-05
3.522e-05
3.345e-05
3.19e-05
3.051e-05
2.924e-05
2.806e-05
2.696e-05
2.591e-05
2.49e-05
2.393e-05
2.299e-05
2.208e-05
2.12e-05
2.034e-05
1.95e-05
1.869e-05
1.79e-05
1.713e-05
1.639e-05
1.566e-05
1.496e-05
1.427e-05
1.36e-05
1.295e-05
1.232e-05
1.17e-05
1.109e-05
1.05e-05
9.92e-06
9.351e-06
8.792e-06
8.244e-06
7.704e-06
7.173e-06
6.649e-06
6.132e-06
5.62e-06
5.115e-06
4.614e-06
4.117e-06
3.623e-06
3.133e-06
2.644e-06
2.156e-06
1.668e-06
1.179e-06
6.87e-07
2.095e-07
0.0003176
0.000319
0.0003201
0.0003209
0.0003214
0.0003217
0.0003217
0.0003215
0.0003212
0.0003208
0.0003204
0.0003199
0.0003194
0.0003189
0.0003183
0.0003178
0.0003173
0.0003168
0.0003162
0.0003157
0.0003151
0.0003146
0.000314
0.0003135
0.0003129
0.0003123
0.0003117
0.0003111
0.0003104
0.0003098
0.0003091
0.0003084
0.0003077
0.000307
0.0003063
0.0003055
0.0003047
0.0003039
0.0003031
0.0003023
0.0003014
0.0003005
0.0002996
0.0002986
0.0002975
0.0002963
0.000295
0.0002935
0.0002918
0.0002897
0.0002872
0.0002843
0.0002807
0.0002764
0.0002714
0.0002664
0.0002618
0.0002564
0.0002462
0.0002352
0.0002346
0.0002261
0.0001937
0.000167
0.0001479
0.0001229
9.404e-05
8.658e-05
8.518e-05
7.484e-05
6.561e-05
6.05e-05
5.622e-05
5.148e-05
4.678e-05
4.272e-05
3.937e-05
3.662e-05
3.434e-05
3.246e-05
3.088e-05
2.954e-05
2.838e-05
2.734e-05
2.638e-05
2.548e-05
2.461e-05
2.378e-05
2.296e-05
2.216e-05
2.137e-05
2.06e-05
1.983e-05
1.908e-05
1.835e-05
1.763e-05
1.692e-05
1.623e-05
1.555e-05
1.489e-05
1.424e-05
1.361e-05
1.3e-05
1.239e-05
1.18e-05
1.122e-05
1.065e-05
1.01e-05
9.55e-06
9.012e-06
8.483e-06
7.962e-06
7.448e-06
6.94e-06
6.439e-06
5.944e-06
5.453e-06
4.967e-06
4.485e-06
4.007e-06
3.532e-06
3.06e-06
2.589e-06
2.12e-06
1.651e-06
1.181e-06
7.103e-07
2.366e-07
0.0003168
0.0003181
0.0003192
0.00032
0.0003206
0.0003209
0.000321
0.0003209
0.0003207
0.0003204
0.00032
0.0003196
0.0003191
0.0003187
0.0003182
0.0003177
0.0003172
0.0003167
0.0003162
0.0003158
0.0003153
0.0003148
0.0003142
0.0003137
0.0003132
0.0003127
0.0003121
0.0003116
0.000311
0.0003105
0.0003099
0.0003093
0.0003087
0.0003081
0.0003074
0.0003068
0.0003062
0.0003055
0.0003049
0.0003042
0.0003035
0.0003029
0.0003022
0.0003015
0.0003007
0.0002999
0.000299
0.000298
0.0002968
0.0002953
0.0002934
0.0002911
0.0002882
0.0002845
0.0002801
0.0002761
0.0002742
0.000273
0.0002617
0.0002393
0.0002363
0.0002373
0.0001663
0.0001595
0.0001574
0.0001505
8.29e-05
8.332e-05
8.024e-05
6.037e-05
5.025e-05
4.842e-05
4.673e-05
4.305e-05
3.886e-05
3.537e-05
3.265e-05
3.051e-05
2.881e-05
2.746e-05
2.639e-05
2.552e-05
2.476e-05
2.409e-05
2.346e-05
2.284e-05
2.223e-05
2.161e-05
2.098e-05
2.035e-05
1.971e-05
1.907e-05
1.843e-05
1.779e-05
1.715e-05
1.652e-05
1.59e-05
1.529e-05
1.468e-05
1.409e-05
1.35e-05
1.293e-05
1.236e-05
1.181e-05
1.126e-05
1.072e-05
1.02e-05
9.676e-06
9.163e-06
8.658e-06
8.159e-06
7.666e-06
7.179e-06
6.697e-06
6.22e-06
5.747e-06
5.278e-06
4.813e-06
4.351e-06
3.892e-06
3.436e-06
2.982e-06
2.531e-06
2.081e-06
1.631e-06
1.183e-06
7.339e-07
2.645e-07
0.0003161
0.0003173
0.0003184
0.0003192
0.0003198
0.0003201
0.0003203
0.0003203
0.0003202
0.00032
0.0003197
0.0003193
0.0003189
0.0003185
0.0003181
0.0003176
0.0003172
0.0003168
0.0003163
0.0003159
0.0003154
0.000315
0.0003145
0.000314
0.0003136
0.0003131
0.0003126
0.0003122
0.0003117
0.0003112
0.0003107
0.0003102
0.0003097
0.0003092
0.0003087
0.0003081
0.0003076
0.0003071
0.0003066
0.0003061
0.0003057
0.0003052
0.0003048
0.0003043
0.0003039
0.0003035
0.000303
0.0003025
0.0003018
0.0003009
0.0002996
0.000298
0.0002957
0.0002925
0.000288
0.0002827
0.000283
0.0002883
0.0002781
0.0001859
0.0001957
0.0002011
0.000137
0.0001548
0.0001637
0.0001796
0.0001178
0.0001238
0.0001328
4.702e-05
3.462e-05
3.951e-05
4.006e-05
3.516e-05
3.097e-05
2.788e-05
2.579e-05
2.429e-05
2.32e-05
2.242e-05
2.188e-05
2.149e-05
2.116e-05
2.086e-05
2.055e-05
2.022e-05
1.985e-05
1.944e-05
1.9e-05
1.854e-05
1.805e-05
1.754e-05
1.702e-05
1.648e-05
1.595e-05
1.541e-05
1.487e-05
1.433e-05
1.38e-05
1.327e-05
1.274e-05
1.223e-05
1.171e-05
1.121e-05
1.071e-05
1.022e-05
9.728e-06
9.245e-06
8.768e-06
8.295e-06
7.827e-06
7.364e-06
6.904e-06
6.448e-06
5.995e-06
5.545e-06
5.098e-06
4.654e-06
4.213e-06
3.774e-06
3.337e-06
2.903e-06
2.47e-06
2.04e-06
1.611e-06
1.184e-06
7.576e-07
2.927e-07
0.0003155
0.0003167
0.0003177
0.0003185
0.0003191
0.0003195
0.0003198
0.0003198
0.0003198
0.0003196
0.0003194
0.0003191
0.0003187
0.0003184
0.000318
0.0003176
0.0003172
0.0003168
0.0003164
0.000316
0.0003156
0.0003152
0.0003148
0.0003144
0.000314
0.0003136
0.0003132
0.0003127
0.0003123
0.0003119
0.0003115
0.0003111
0.0003107
0.0003103
0.0003099
0.0003095
0.0003091
0.0003087
0.0003083
0.000308
0.0003077
0.0003075
0.0003073
0.0003071
0.000307
0.000307
0.0003069
0.0003069
0.0003067
0.0003064
0.0003058
0.0003048
0.0003034
0.0003007
0.0002955
0.0002865
0.0002769
0.000273
0.0002377
0.0001293
0.0001675
-0.0003506
-2.053e-05
0.000114
0.0001974
0.0003255
0.0006158
0.0001523
0.0001865
8.925e-05
5.143e-05
4.588e-05
3.615e-05
2.823e-05
2.281e-05
2.022e-05
1.892e-05
1.812e-05
1.768e-05
1.751e-05
1.751e-05
1.76e-05
1.769e-05
1.775e-05
1.775e-05
1.768e-05
1.754e-05
1.734e-05
1.708e-05
1.676e-05
1.641e-05
1.603e-05
1.562e-05
1.519e-05
1.475e-05
1.43e-05
1.384e-05
1.338e-05
1.291e-05
1.245e-05
1.199e-05
1.153e-05
1.107e-05
1.061e-05
1.016e-05
9.706e-06
9.258e-06
8.814e-06
8.372e-06
7.932e-06
7.495e-06
7.06e-06
6.628e-06
6.197e-06
5.769e-06
5.342e-06
4.918e-06
4.495e-06
4.074e-06
3.655e-06
3.238e-06
2.823e-06
2.41e-06
1.999e-06
1.59e-06
1.184e-06
7.81e-07
3.208e-07
0.0003151
0.0003162
0.0003172
0.000318
0.0003186
0.000319
0.0003193
0.0003194
0.0003194
0.0003193
0.0003191
0.0003189
0.0003186
0.0003183
0.000318
0.0003176
0.0003173
0.0003169
0.0003165
0.0003162
0.0003158
0.0003154
0.0003151
0.0003147
0.0003144
0.000314
0.0003137
0.0003133
0.000313
0.0003126
0.0003123
0.000312
0.0003116
0.0003113
0.000311
0.0003107
0.0003105
0.0003102
0.00031
0.0003098
0.0003097
0.0003096
0.0003097
0.0003097
0.0003099
0.0003102
0.0003105
0.0003109
0.0003113
0.0003116
0.0003116
0.0003113
0.0003109
0.0003103
0.0003052
0.0002936
0.0002278
0.0002331
-0.0006038
-0.0001706
-3.147e-05
-9.377e-05
1.35e-05
0.0001122
0.0001978
0.0002921
0.0003901
0.0003379
0.0004711
0.0008783
9.386e-05
9.558e-05
3.347e-05
1.838e-05
1.327e-05
1.262e-05
1.238e-05
1.233e-05
1.251e-05
1.292e-05
1.345e-05
1.399e-05
1.447e-05
1.485e-05
1.513e-05
1.53e-05
1.537e-05
1.534e-05
1.524e-05
1.507e-05
1.484e-05
1.458e-05
1.427e-05
1.394e-05
1.359e-05
1.322e-05
1.284e-05
1.245e-05
1.205e-05
1.165e-05
1.125e-05
1.084e-05
1.043e-05
1.002e-05
9.615e-06
9.206e-06
8.798e-06
8.39e-06
7.982e-06
7.575e-06
7.168e-06
6.762e-06
6.356e-06
5.951e-06
5.547e-06
5.143e-06
4.74e-06
4.338e-06
3.937e-06
3.538e-06
3.14e-06
2.743e-06
2.349e-06
1.958e-06
1.569e-06
1.184e-06
8.036e-07
3.483e-07
0.0003147
0.0003157
0.0003167
0.0003175
0.0003181
0.0003186
0.0003189
0.0003191
0.0003191
0.0003191
0.0003189
0.0003187
0.0003185
0.0003182
0.000318
0.0003176
0.0003173
0.000317
0.0003167
0.0003163
0.000316
0.0003157