/*--------------------------------*- C++ -*----------------------------------*\
  =========                 |
  \\      /  F ield         | OpenFOAM: The Open Source CFD Toolbox
   \\    /   O peration     | Website:  https://openfoam.org
    \\  /    A nd           | Version:  7
     \\/     M anipulation  |
\*---------------------------------------------------------------------------*/
FoamFile
{
    version     2.0;
    format      ascii;
    class       surfaceScalarField;
    location    "179.999473411366523";
    object      phi;
}
// * * * * * * * * * * * * * * * * * * * * * * * * * * * * * * * * * * * * * //

dimensions      [0 3 -1 0 0 0 0];

internalField   nonuniform List<scalar> 
8032
(
6.857e-10
2.518e-10
4.804e-10
2.053e-10
3.48e-10
1.324e-10
2.643e-10
8.371e-11
2.101e-10
5.414e-11
1.738e-10
3.634e-11
1.483e-10
2.546e-11
1.297e-10
1.86e-11
1.157e-10
1.408e-11
1.047e-10
1.096e-11
9.598e-11
8.716e-12
8.894e-11
7.043e-12
8.318e-11
5.756e-12
7.845e-11
4.739e-12
7.453e-11
3.916e-12
7.129e-11
3.237e-12
6.863e-11
2.666e-12
6.645e-11
2.178e-12
6.47e-11
1.753e-12
6.332e-11
1.377e-12
6.228e-11
1.04e-12
6.155e-11
7.32e-13
6.11e-11
4.461e-13
6.092e-11
1.764e-13
6.101e-11
-8.191e-14
6.134e-11
-3.332e-13
6.192e-11
-5.81e-13
6.275e-11
-8.286e-13
6.383e-11
-1.079e-12
6.516e-11
-1.334e-12
6.676e-11
-1.596e-12
6.863e-11
-1.868e-12
7.078e-11
-2.15e-12
7.322e-11
-2.444e-12
7.597e-11
-2.752e-12
7.904e-11
-3.072e-12
8.245e-11
-3.406e-12
8.62e-11
-3.752e-12
9.031e-11
-4.111e-12
9.479e-11
-4.479e-12
9.965e-11
-4.855e-12
1.049e-10
-5.235e-12
1.105e-10
-5.614e-12
1.165e-10
-5.988e-12
1.228e-10
-6.349e-12
1.295e-10
-6.691e-12
1.365e-10
-7.006e-12
1.438e-10
-7.283e-12
1.513e-10
-7.514e-12
1.59e-10
-7.687e-12
1.668e-10
-7.793e-12
1.746e-10
-7.821e-12
1.824e-10
-7.762e-12
1.9e-10
-7.607e-12
1.973e-10
-7.348e-12
2.043e-10
-6.98e-12
2.108e-10
-6.5e-12
2.167e-10
-5.908e-12
2.219e-10
-5.206e-12
2.263e-10
-4.402e-12
2.298e-10
-3.506e-12
2.324e-10
-2.534e-12
2.339e-10
-1.505e-12
2.343e-10
-4.434e-13
2.337e-10
6.264e-13
2.32e-10
1.678e-12
2.293e-10
2.686e-12
2.257e-10
3.63e-12
2.212e-10
4.492e-12
2.16e-10
5.258e-12
2.1e-10
5.921e-12
2.036e-10
6.477e-12
1.966e-10
6.924e-12
1.894e-10
7.264e-12
1.819e-10
7.503e-12
1.742e-10
7.645e-12
1.665e-10
7.698e-12
1.589e-10
7.671e-12
1.513e-10
7.572e-12
1.439e-10
7.411e-12
1.367e-10
7.197e-12
1.297e-10
6.94e-12
1.231e-10
6.649e-12
1.168e-10
6.332e-12
1.108e-10
5.997e-12
1.051e-10
5.652e-12
9.981e-11
5.302e-12
9.485e-11
4.952e-12
9.025e-11
4.607e-12
8.598e-11
4.27e-12
8.203e-11
3.945e-12
7.84e-11
3.633e-12
7.506e-11
3.336e-12
7.201e-11
3.056e-12
6.922e-11
2.791e-12
6.667e-11
2.544e-12
6.436e-11
2.314e-12
6.226e-11
2.1e-12
6.036e-11
1.902e-12
5.864e-11
1.72e-12
5.708e-11
1.552e-12
5.568e-11
1.399e-12
5.443e-11
1.258e-12
5.33e-11
1.13e-12
5.228e-11
1.013e-12
5.138e-11
9.075e-13
5.056e-11
8.114e-13
4.984e-11
7.244e-13
4.919e-11
6.459e-13
4.862e-11
5.75e-13
4.811e-11
5.113e-13
4.765e-11
4.542e-13
4.725e-11
4.031e-13
4.689e-11
3.576e-13
4.657e-11
3.173e-13
4.629e-11
2.82e-13
4.604e-11
2.514e-13
4.582e-11
2.254e-13
4.561e-11
2.04e-13
4.542e-11
1.874e-13
4.525e-11
1.759e-13
4.508e-11
1.705e-13
4.491e-11
1.725e-13
4.472e-11
1.849e-13
4.451e-11
2.13e-13
4.424e-11
2.656e-13
4.389e-11
3.528e-13
4.585e-13
9.523e-10
2.37e-10
8.501e-10
3.075e-10
7.275e-10
2.55e-10
6.183e-10
1.929e-10
5.295e-10
1.43e-10
4.595e-10
1.064e-10
4.046e-10
8.038e-11
3.612e-10
6.195e-11
3.266e-10
4.868e-11
2.987e-10
3.89e-11
2.758e-10
3.153e-11
2.571e-10
2.582e-11
2.415e-10
2.132e-11
2.286e-10
1.769e-11
2.178e-10
1.471e-11
2.088e-10
1.221e-11
2.014e-10
1.01e-11
1.953e-10
8.276e-12
1.903e-10
6.679e-12
1.864e-10
5.261e-12
1.835e-10
3.981e-12
1.814e-10
2.808e-12
1.802e-10
1.717e-12
1.796e-10
6.863e-13
1.799e-10
-3.019e-13
1.808e-10
-1.263e-12
1.824e-10
-2.211e-12
1.848e-10
-3.156e-12
1.878e-10
-4.11e-12
1.915e-10
-5.081e-12
1.96e-10
-6.078e-12
2.013e-10
-7.106e-12
2.073e-10
-8.171e-12
2.141e-10
-9.278e-12
2.218e-10
-1.043e-11
2.303e-10
-1.163e-11
2.398e-10
-1.287e-11
2.502e-10
-1.416e-11
2.616e-10
-1.548e-11
2.739e-10
-1.684e-11
2.873e-10
-1.822e-11
3.017e-10
-1.961e-11
3.171e-10
-2.099e-11
3.334e-10
-2.234e-11
3.507e-10
-2.364e-11
3.689e-10
-2.486e-11
3.878e-10
-2.598e-11
4.075e-10
-2.695e-11
4.277e-10
-2.775e-11
4.484e-10
-2.833e-11
4.692e-10
-2.866e-11
4.901e-10
-2.871e-11
5.108e-10
-2.845e-11
5.31e-10
-2.783e-11
5.505e-10
-2.684e-11
5.69e-10
-2.546e-11
5.862e-10
-2.367e-11
6.018e-10
-2.149e-11
6.155e-10
-1.892e-11
6.271e-10
-1.599e-11
6.363e-10
-1.274e-11
6.43e-10
-9.214e-12
6.47e-10
-5.495e-12
6.482e-10
-1.659e-12
6.466e-10
2.205e-12
6.423e-10
6.007e-12
6.353e-10
9.661e-12
6.258e-10
1.309e-11
6.141e-10
1.624e-11
6.003e-10
1.905e-11
5.847e-10
2.149e-11
5.677e-10
2.356e-11
5.493e-10
2.524e-11
5.301e-10
2.654e-11
5.101e-10
2.746e-11
4.897e-10
2.804e-11
4.691e-10
2.83e-11
4.485e-10
2.826e-11
4.281e-10
2.796e-11
4.081e-10
2.742e-11
3.886e-10
2.669e-11
3.698e-10
2.58e-11
3.517e-10
2.477e-11
3.343e-10
2.364e-11
3.179e-10
2.244e-11
3.024e-10
2.119e-11
2.877e-10
1.992e-11
2.74e-10
1.865e-11
2.613e-10
1.739e-11
2.494e-10
1.615e-11
2.384e-10
1.495e-11
2.282e-10
1.38e-11
2.188e-10
1.27e-11
2.102e-10
1.165e-11
2.024e-10
1.067e-11
1.952e-10
9.742e-12
1.886e-10
8.877e-12
1.826e-10
8.072e-12
1.772e-10
7.326e-12
1.723e-10
6.637e-12
1.678e-10
6.002e-12
1.638e-10
5.418e-12
1.602e-10
4.884e-12
1.569e-10
4.395e-12
1.54e-10
3.949e-12
1.514e-10
3.544e-12
1.49e-10
3.175e-12
1.469e-10
2.841e-12
1.45e-10
2.538e-12
1.433e-10
2.265e-12
1.418e-10
2.019e-12
1.404e-10
1.798e-12
1.392e-10
1.6e-12
1.382e-10
1.423e-12
1.372e-10
1.267e-12
1.364e-10
1.129e-12
1.356e-10
1.009e-12
1.349e-10
9.07e-13
1.343e-10
8.223e-13
1.338e-10
7.553e-13
1.332e-10
7.071e-13
1.327e-10
6.796e-13
1.322e-10
6.757e-13
1.317e-10
7.001e-13
1.312e-10
7.599e-13
1.306e-10
8.63e-13
1.299e-10
1.008e-12
1.145e-12
9.779e-10
1.966e-10
9.637e-10
3.217e-10
9.014e-10
3.174e-10
8.214e-10
2.729e-10
7.412e-10
2.231e-10
6.685e-10
1.791e-10
6.053e-10
1.435e-10
5.517e-10
1.156e-10
5.065e-10
9.384e-11
4.686e-10
7.686e-11
4.366e-10
6.344e-11
4.098e-10
5.271e-11
3.871e-10
4.399e-11
3.68e-10
3.681e-11
3.519e-10
3.081e-11
3.384e-10
2.573e-11
3.271e-10
2.136e-11
3.178e-10
1.756e-11
3.103e-10
1.421e-11
3.043e-10
1.122e-11
2.998e-10
8.497e-12
2.966e-10
5.995e-12
2.947e-10
3.659e-12
2.939e-10
1.447e-12
2.943e-10
-6.789e-13
2.958e-10
-2.749e-12
2.984e-10
-4.79e-12
3.02e-10
-6.827e-12
3.068e-10
-8.881e-12
3.127e-10
-1.097e-11
3.197e-10
-1.311e-11
3.279e-10
-1.531e-11
3.373e-10
-1.76e-11
3.48e-10
-1.996e-11
3.6e-10
-2.242e-11
3.734e-10
-2.497e-11
3.881e-10
-2.761e-11
4.043e-10
-3.033e-11
4.219e-10
-3.314e-11
4.411e-10
-3.6e-11
4.618e-10
-3.89e-11
4.84e-10
-4.18e-11
5.077e-10
-4.469e-11
5.328e-10
-4.751e-11
5.594e-10
-5.021e-11
5.873e-10
-5.273e-11
6.163e-10
-5.503e-11
6.464e-10
-5.702e-11
6.773e-10
-5.863e-11
7.087e-10
-5.979e-11
7.405e-10
-6.043e-11
7.722e-10
-6.046e-11
8.036e-10
-5.983e-11
8.343e-10
-5.848e-11
8.638e-10
-5.634e-11
8.917e-10
-5.34e-11
9.177e-10
-4.963e-11
9.412e-10
-4.503e-11
9.619e-10
-3.963e-11
9.794e-10
-3.349e-11
9.934e-10
-2.668e-11
1.003e-09
-1.932e-11
1.01e-09
-1.156e-11
1.011e-09
-3.557e-12
1.009e-09
4.506e-12
1.003e-09
1.244e-11
9.923e-10
2.008e-11
9.781e-10
2.726e-11
9.605e-10
3.386e-11
9.398e-10
3.978e-11
9.163e-10
4.494e-11
8.905e-10
4.933e-11
8.629e-10
5.291e-11
8.337e-10
5.57e-11
8.034e-10
5.773e-11
7.725e-10
5.902e-11
7.411e-10
5.964e-11
7.097e-10
5.964e-11
6.786e-10
5.909e-11
6.48e-10
5.804e-11
6.181e-10
5.657e-11
5.892e-10
5.475e-11
5.613e-10
5.265e-11
5.346e-10
5.032e-11
5.092e-10
4.784e-11
4.852e-10
4.525e-11
4.625e-10
4.26e-11
4.412e-10
3.993e-11
4.213e-10
3.728e-11
4.028e-10
3.468e-11
3.856e-10
3.215e-11
3.697e-10
2.971e-11
3.55e-10
2.738e-11
3.415e-10
2.516e-11
3.291e-10
2.306e-11
3.177e-10
2.109e-11
3.074e-10
1.924e-11
2.979e-10
1.752e-11
2.893e-10
1.593e-11
2.815e-10
1.445e-11
2.744e-10
1.308e-11
2.68e-10
1.183e-11
2.622e-10
1.068e-11
2.57e-10
9.621e-12
2.523e-10
8.657e-12
2.481e-10
7.779e-12
2.443e-10
6.98e-12
2.408e-10
6.255e-12
2.378e-10
5.598e-12
2.35e-10
5.004e-12
2.326e-10
4.467e-12
2.304e-10
3.985e-12
2.285e-10
3.552e-12
2.267e-10
3.166e-12
2.252e-10
2.822e-12
2.238e-10
2.52e-12
2.225e-10
2.256e-12
2.214e-10
2.029e-12
2.204e-10
1.839e-12
2.195e-10
1.687e-12
2.186e-10
1.572e-12
2.178e-10
1.498e-12
2.17e-10
1.468e-12
2.162e-10
1.485e-12
2.154e-10
1.553e-12
2.146e-10
1.673e-12
2.138e-10
1.829e-12
1.956e-12
9.752e-10
1.589e-10
9.931e-10
3.038e-10
9.729e-10
3.375e-10
9.272e-10
3.187e-10
8.695e-10
2.807e-10
8.092e-10
2.395e-10
7.514e-10
2.013e-10
6.986e-10
1.684e-10
6.515e-10
1.409e-10
6.103e-10
1.181e-10
5.744e-10
9.931e-11
5.434e-10
8.371e-11
5.167e-10
7.068e-11
4.938e-10
5.969e-11
4.743e-10
5.034e-11
4.577e-10
4.229e-11
4.438e-10
3.528e-11
4.323e-10
2.912e-11
4.228e-10
2.363e-11
4.154e-10
1.867e-11
4.097e-10
1.415e-11
4.058e-10
9.968e-12
4.034e-10
6.044e-12
4.025e-10
2.313e-12
4.031e-10
-1.281e-12
4.052e-10
-4.787e-12
4.086e-10
-8.25e-12
4.135e-10
-1.171e-11
4.198e-10
-1.519e-11
4.276e-10
-1.874e-11
4.368e-10
-2.237e-11
4.476e-10
-2.61e-11
4.6e-10
-2.996e-11
4.74e-10
-3.396e-11
4.897e-10
-3.81e-11
5.071e-10
-4.239e-11
5.263e-10
-4.683e-11
5.474e-10
-5.14e-11
5.703e-10
-5.609e-11
5.952e-10
-6.087e-11
6.22e-10
-6.571e-11
6.508e-10
-7.055e-11
6.814e-10
-7.533e-11
7.139e-10
-8e-11
7.481e-10
-8.446e-11
7.84e-10
-8.862e-11
8.214e-10
-9.238e-11
8.6e-10
-9.563e-11
8.996e-10
-9.824e-11
9.399e-10
-1.001e-10
9.805e-10
-1.011e-10
1.021e-09
-1.01e-10
1.061e-09
-9.992e-11
1.1e-09
-9.758e-11
1.138e-09
-9.397e-11
1.174e-09
-8.901e-11
1.207e-09
-8.269e-11
1.237e-09
-7.5e-11
1.263e-09
-6.601e-11
1.285e-09
-5.578e-11
1.303e-09
-4.446e-11
1.316e-09
-3.224e-11
1.324e-09
-1.934e-11
1.326e-09
-6.046e-12
1.323e-09
7.348e-12
1.315e-09
2.054e-11
1.302e-09
3.324e-11
1.284e-09
4.52e-11
1.262e-09
5.619e-11
1.236e-09
6.607e-11
1.206e-09
7.472e-11
1.173e-09
8.208e-11
1.138e-09
8.812e-11
1.101e-09
9.286e-11
1.062e-09
9.633e-11
1.022e-09
9.86e-11
9.824e-10
9.974e-11
9.422e-10
9.984e-11
9.022e-10
9.902e-11
8.629e-10
9.737e-11
8.245e-10
9.501e-11
7.872e-10
9.206e-11
7.512e-10
8.863e-11
7.167e-10
8.482e-11
6.838e-10
8.072e-11
6.526e-10
7.644e-11
6.231e-10
7.205e-11
5.955e-10
6.762e-11
5.695e-10
6.321e-11
5.453e-10
5.887e-11
5.228e-10
5.464e-11
5.02e-10
5.056e-11
4.827e-10
4.665e-11
4.65e-10
4.292e-11
4.486e-10
3.939e-11
4.337e-10
3.606e-11
4.2e-10
3.295e-11
4.075e-10
3.004e-11
3.961e-10
2.733e-11
3.857e-10
2.482e-11
3.763e-10
2.25e-11
3.677e-10
2.037e-11
3.6e-10
1.841e-11
3.53e-10
1.661e-11
3.467e-10
1.496e-11
3.41e-10
1.346e-11
3.359e-10
1.21e-11
3.313e-10
1.085e-11
3.272e-10
9.725e-12
3.235e-10
8.704e-12
3.202e-10
7.782e-12
3.172e-10
6.951e-12
3.145e-10
6.205e-12
3.122e-10
5.537e-12
3.1e-10
4.943e-12
3.081e-10
4.418e-12
3.064e-10
3.958e-12
3.049e-10
3.561e-12
3.035e-10
3.226e-12
3.023e-10
2.951e-12
3.011e-10
2.738e-12
3e-10
2.587e-12
2.99e-10
2.5e-12
2.98e-10
2.48e-12
2.97e-10
2.525e-12
2.961e-10
2.629e-12
2.951e-10
2.765e-12
2.87e-12
9.668e-10
1.296e-10
9.945e-10
2.761e-10
9.981e-10
3.339e-10
9.785e-10
3.383e-10
9.432e-10
3.16e-10
8.997e-10
2.83e-10
8.533e-10
2.477e-10
8.075e-10
2.142e-10
7.643e-10
1.841e-10
7.247e-10
1.577e-10
6.89e-10
1.35e-10
6.573e-10
1.154e-10
6.294e-10
9.861e-11
6.05e-10
8.408e-11
5.839e-10
7.146e-11
5.658e-10
6.041e-11
5.504e-10
5.065e-11
5.376e-10
4.196e-11
5.27e-10
3.414e-11
5.187e-10
2.702e-11
5.124e-10
2.047e-11
5.08e-10
1.437e-11
5.054e-10
8.616e-12
5.046e-10
3.123e-12
5.055e-10
-2.187e-12
5.081e-10
-7.381e-12
5.124e-10
-1.252e-11
5.183e-10
-1.766e-11
5.26e-10
-2.284e-11
5.353e-10
-2.811e-11
5.465e-10
-3.35e-11
5.594e-10
-3.905e-11
5.742e-10
-4.478e-11
5.91e-10
-5.071e-11
6.097e-10
-5.684e-11
6.305e-10
-6.319e-11
6.534e-10
-6.974e-11
6.785e-10
-7.648e-11
7.058e-10
-8.338e-11
7.353e-10
-9.041e-11
7.671e-10
-9.75e-11
8.012e-10
-1.046e-10
8.375e-10
-1.116e-10
8.759e-10
-1.184e-10
9.163e-10
-1.249e-10
9.586e-10
-1.309e-10
1.003e-09
-1.364e-10
1.048e-09
-1.411e-10
1.095e-09
-1.448e-10
1.142e-09
-1.474e-10
1.19e-09
-1.488e-10
1.237e-09
-1.487e-10
1.284e-09
-1.469e-10
1.33e-09
-1.434e-10
1.374e-09
-1.38e-10
1.416e-09
-1.307e-10
1.455e-09
-1.214e-10
1.49e-09
-1.101e-10
1.521e-09
-9.691e-11
1.547e-09
-8.191e-11
1.568e-09
-6.532e-11
1.583e-09
-4.741e-11
1.592e-09
-2.852e-11
1.595e-09
-9.036e-12
1.592e-09
1.06e-11
1.582e-09
2.994e-11
1.567e-09
4.856e-11
1.546e-09
6.61e-11
1.52e-09
8.224e-11
1.489e-09
9.676e-11
1.455e-09
1.095e-10
1.416e-09
1.204e-10
1.375e-09
1.293e-10
1.332e-09
1.363e-10
1.286e-09
1.415e-10
1.24e-09
1.45e-10
1.193e-09
1.468e-10
1.146e-09
1.471e-10
1.099e-09
1.46e-10
1.052e-09
1.437e-10
1.007e-09
1.403e-10
9.631e-10
1.361e-10
9.206e-10
1.312e-10
8.798e-10
1.256e-10
8.408e-10
1.197e-10
8.038e-10
1.135e-10
7.688e-10
1.07e-10
7.359e-10
1.006e-10
7.05e-10
9.41e-11
6.761e-10
8.774e-11
6.492e-10
8.152e-11
6.243e-10
7.551e-11
6.012e-10
6.974e-11
5.799e-10
6.423e-11
5.602e-10
5.901e-11
5.422e-10
5.409e-11
5.257e-10
4.946e-11
5.106e-10
4.514e-11
4.968e-10
4.112e-11
4.842e-10
3.739e-11
4.728e-10
3.393e-11
4.624e-10
3.075e-11
4.53e-10
2.782e-11
4.445e-10
2.513e-11
4.368e-10
2.266e-11
4.299e-10
2.041e-11
4.236e-10
1.836e-11
4.18e-10
1.649e-11
4.129e-10
1.479e-11
4.083e-10
1.326e-11
4.042e-10
1.187e-11
4.006e-10
1.061e-11
3.973e-10
9.484e-12
3.944e-10
8.473e-12
3.917e-10
7.571e-12
3.894e-10
6.772e-12
3.873e-10
6.07e-12
3.854e-10
5.461e-12
3.837e-10
4.941e-12
3.821e-10
4.509e-12
3.807e-10
4.163e-12
3.794e-10
3.903e-12
3.781e-10
3.729e-12
3.77e-10
3.641e-12
3.759e-10
3.632e-12
3.748e-10
3.691e-12
3.738e-10
3.789e-12
3.867e-12
9.592e-10
1.079e-10
9.877e-10
2.476e-10
1.003e-09
3.186e-10
1.001e-09
3.406e-10
9.835e-10
3.333e-10
9.558e-10
3.107e-10
9.222e-10
2.813e-10
8.861e-10
2.503e-10
8.498e-10
2.203e-10
8.149e-10
1.926e-10
7.823e-10
1.676e-10
7.524e-10
1.453e-10
7.255e-10
1.256e-10
7.015e-10
1.081e-10
6.804e-10
9.257e-11
6.62e-10
7.875e-11
6.463e-10
6.637e-11
6.331e-10
5.519e-11
6.222e-10
4.501e-11
6.136e-10
3.566e-11
6.071e-10
2.698e-11
6.026e-10
1.884e-11
6.001e-10
1.112e-11
5.995e-10
3.715e-12
6.008e-10
-3.475e-12
6.039e-10
-1.053e-11
6.089e-10
-1.753e-11
6.158e-10
-2.453e-11
6.246e-10
-3.161e-11
6.353e-10
-3.881e-11
6.479e-10
-4.617e-11
6.626e-10
-5.375e-11
6.794e-10
-6.156e-11
6.984e-10
-6.964e-11
7.195e-10
-7.8e-11
7.43e-10
-8.663e-11
7.688e-10
-9.554e-11
7.97e-10
-1.047e-10
8.277e-10
-1.141e-10
8.608e-10
-1.236e-10
8.965e-10
-1.332e-10
9.346e-10
-1.427e-10
9.752e-10
-1.522e-10
1.018e-09
-1.614e-10
1.063e-09
-1.701e-10
1.111e-09
-1.782e-10
1.16e-09
-1.855e-10
1.21e-09
-1.918e-10
1.262e-09
-1.967e-10
1.315e-09
-2.002e-10
1.368e-09
-2.019e-10
1.421e-09
-2.017e-10
1.474e-09
-1.992e-10
1.525e-09
-1.944e-10
1.574e-09
-1.871e-10
1.62e-09
-1.771e-10
1.663e-09
-1.645e-10
1.702e-09
-1.492e-10
1.737e-09
-1.313e-10
1.766e-09
-1.111e-10
1.789e-09
-8.862e-11
1.806e-09
-6.439e-11
1.816e-09
-3.881e-11
1.82e-09
-1.244e-11
1.816e-09
1.415e-11
1.806e-09
4.034e-11
1.789e-09
6.556e-11
1.766e-09
8.931e-11
1.737e-09
1.112e-10
1.703e-09
1.308e-10
1.664e-09
1.481e-10
1.622e-09
1.629e-10
1.576e-09
1.75e-10
1.527e-09
1.847e-10
1.477e-09
1.918e-10
1.426e-09
1.966e-10
1.373e-09
1.992e-10
1.321e-09
1.997e-10
1.268e-09
1.983e-10
1.216e-09
1.954e-10
1.166e-09
1.91e-10
1.117e-09
1.853e-10
1.069e-09
1.787e-10
1.023e-09
1.714e-10
9.796e-10
1.634e-10
9.381e-10
1.55e-10
8.988e-10
1.464e-10
8.617e-10
1.376e-10
8.269e-10
1.289e-10
7.944e-10
1.203e-10
7.64e-10
1.119e-10
7.358e-10
1.037e-10
7.097e-10
9.587e-11
6.855e-10
8.839e-11
6.633e-10
8.128e-11
6.428e-10
7.457e-11
6.24e-10
6.826e-11
6.068e-10
6.236e-11
5.91e-10
5.685e-11
5.767e-10
5.174e-11
5.636e-10
4.701e-11
5.517e-10
4.263e-11
5.409e-10
3.861e-11
5.311e-10
3.491e-11
5.223e-10
3.152e-11
5.143e-10
2.842e-11
5.071e-10
2.558e-11
5.005e-10
2.301e-11
4.947e-10
2.066e-11
4.894e-10
1.853e-11
4.847e-10
1.661e-11
4.804e-10
1.487e-11
4.766e-10
1.33e-11
4.732e-10
1.189e-11
4.701e-10
1.063e-11
4.674e-10
9.518e-12
4.649e-10
8.533e-12
4.627e-10
7.674e-12
4.607e-10
6.935e-12
4.589e-10
6.312e-12
4.573e-10
5.803e-12
4.558e-10
5.404e-12
4.544e-10
5.115e-12
4.531e-10
4.929e-12
4.519e-10
4.84e-12
4.507e-10
4.833e-12
4.496e-10
4.877e-12
4.924e-12
9.537e-10
9.175e-11
9.797e-10
2.216e-10
1e-09
2.982e-10
1.008e-09
3.324e-10
1.004e-09
3.376e-10
9.893e-10
3.252e-10
9.676e-10
3.03e-10
9.415e-10
2.764e-10
9.133e-10
2.485e-10
8.847e-10
2.212e-10
8.569e-10
1.954e-10
8.305e-10
1.717e-10
8.061e-10
1.5e-10
7.839e-10
1.303e-10
7.641e-10
1.124e-10
7.466e-10
9.622e-11
7.315e-10
8.149e-11
7.187e-10
6.8e-11
7.081e-10
5.559e-11
6.997e-10
4.406e-11
6.934e-10
3.327e-11
6.892e-10
2.307e-11
6.87e-10
1.334e-11
6.868e-10
3.946e-12
6.885e-10
-5.208e-12
6.922e-10
-1.422e-11
6.979e-10
-2.319e-11
7.055e-10
-3.218e-11
7.152e-10
-4.127e-11
7.269e-10
-5.053e-11
7.407e-10
-6.001e-11
7.567e-10
-6.975e-11
7.75e-10
-7.981e-11
7.955e-10
-9.019e-11
8.185e-10
-1.009e-10
8.438e-10
-1.12e-10
8.717e-10
-1.234e-10
9.022e-10
-1.352e-10
9.353e-10
-1.472e-10
9.711e-10
-1.593e-10
1.01e-09
-1.716e-10
1.051e-09
-1.838e-10
1.094e-09
-1.959e-10
1.141e-09
-2.076e-10
1.189e-09
-2.187e-10
1.24e-09
-2.29e-10
1.293e-09
-2.383e-10
1.347e-09
-2.462e-10
1.403e-09
-2.525e-10
1.46e-09
-2.568e-10
1.517e-09
-2.589e-10
1.574e-09
-2.585e-10
1.63e-09
-2.553e-10
1.684e-09
-2.491e-10
1.737e-09
-2.397e-10
1.787e-09
-2.27e-10
1.833e-09
-2.108e-10
1.875e-09
-1.912e-10
1.912e-09
-1.684e-10
1.944e-09
-1.425e-10
1.969e-09
-1.137e-10
1.987e-09
-8.272e-11
1.998e-09
-4.996e-11
2.002e-09
-1.615e-11
1.998e-09
1.793e-11
1.987e-09
5.149e-11
1.969e-09
8.381e-11
1.944e-09
1.142e-10
1.913e-09
1.422e-10
1.876e-09
1.674e-10
1.835e-09
1.895e-10
1.789e-09
2.084e-10
1.74e-09
2.241e-10
1.688e-09
2.365e-10
1.635e-09
2.457e-10
1.579e-09
2.52e-10
1.523e-09
2.554e-10
1.467e-09
2.562e-10
1.41e-09
2.546e-10
1.355e-09
2.509e-10
1.3e-09
2.454e-10
1.247e-09
2.383e-10
1.196e-09
2.3e-10
1.147e-09
2.206e-10
1.1e-09
2.105e-10
1.055e-09
1.998e-10
1.013e-09
1.888e-10
9.725e-10
1.777e-10
9.349e-10
1.665e-10
8.996e-10
1.555e-10
8.667e-10
1.448e-10
8.361e-10
1.343e-10
8.077e-10
1.243e-10
7.815e-10
1.147e-10
7.572e-10
1.055e-10
7.349e-10
9.689e-11
7.144e-10
8.877e-11
6.956e-10
8.116e-11
6.784e-10
7.406e-11
6.627e-10
6.746e-11
6.483e-10
6.134e-11
6.353e-10
5.569e-11
6.234e-10
5.047e-11
6.127e-10
4.568e-11
6.029e-10
4.128e-11
5.941e-10
3.725e-11
5.861e-10
3.357e-11
5.789e-10
3.021e-11
5.724e-10
2.716e-11
5.665e-10
2.438e-11
5.613e-10
2.187e-11
5.565e-10
1.959e-11
5.523e-10
1.754e-11
5.485e-10
1.57e-11
5.451e-10
1.405e-11
5.42e-10
1.258e-11
5.393e-10
1.128e-11
5.368e-10
1.014e-11
5.346e-10
9.153e-12
5.326e-10
8.312e-12
5.308e-10
7.612e-12
5.291e-10
7.048e-12
5.276e-10
6.617e-12
5.262e-10
6.311e-12
5.25e-10
6.12e-12
5.238e-10
6.029e-12
5.226e-10
6.01e-12
6.022e-12
9.498e-10
7.941e-11
9.727e-10
1.987e-10
9.944e-10
2.766e-10
1.008e-09
3.183e-10
1.013e-09
3.331e-10
1.008e-09
3.297e-10
9.967e-10
3.148e-10
9.799e-10
2.933e-10
9.597e-10
2.687e-10
9.379e-10
2.43e-10
9.156e-10
2.177e-10
8.937e-10
1.935e-10
8.729e-10
1.708e-10
8.535e-10
1.496e-10
8.358e-10
1.301e-10
8.2e-10
1.12e-10
8.062e-10
9.528e-11
7.945e-10
7.977e-11
7.847e-10
6.533e-11
7.77e-10
5.178e-11
7.713e-10
3.898e-11
7.676e-10
2.679e-11
7.659e-10
1.507e-11
7.661e-10
3.704e-12
7.683e-10
-7.426e-12
7.725e-10
-1.843e-11
7.787e-10
-2.94e-11
7.87e-10
-4.042e-11
7.973e-10
-5.159e-11
8.098e-10
-6.298e-11
8.244e-10
-7.464e-11
8.413e-10
-8.664e-11
8.605e-10
-9.902e-11
8.821e-10
-1.118e-10
9.062e-10
-1.25e-10
9.328e-10
-1.386e-10
9.62e-10
-1.527e-10
9.94e-10
-1.671e-10
1.029e-09
-1.818e-10
1.066e-09
-1.967e-10
1.106e-09
-2.118e-10
1.149e-09
-2.268e-10
1.195e-09
-2.415e-10
1.243e-09
-2.558e-10
1.294e-09
-2.694e-10
1.347e-09
-2.82e-10
1.402e-09
-2.933e-10
1.458e-09
-3.03e-10
1.517e-09
-3.106e-10
1.576e-09
-3.159e-10
1.635e-09
-3.184e-10
1.694e-09
-3.178e-10
1.753e-09
-3.139e-10
1.81e-09
-3.062e-10
1.865e-09
-2.946e-10
1.917e-09
-2.79e-10
1.965e-09
-2.591e-10
2.009e-09
-2.352e-10
2.048e-09
-2.072e-10
2.081e-09
-1.753e-10
2.107e-09
-1.401e-10
2.126e-09
-1.02e-10
2.138e-09
-6.168e-11
2.142e-09
-2.007e-11
2.138e-09
2.187e-11
2.126e-09
6.318e-11
2.107e-09
1.029e-10
2.081e-09
1.403e-10
2.049e-09
1.746e-10
2.011e-09
2.055e-10
1.968e-09
2.326e-10
1.92e-09
2.559e-10
1.869e-09
2.751e-10
1.815e-09
2.904e-10
1.759e-09
3.018e-10
1.701e-09
3.096e-10
1.643e-09
3.139e-10
1.584e-09
3.15e-10
1.525e-09
3.132e-10
1.468e-09
3.088e-10
1.411e-09
3.022e-10
1.355e-09
2.936e-10
1.302e-09
2.835e-10
1.25e-09
2.721e-10
1.201e-09
2.597e-10
1.154e-09
2.467e-10
1.11e-09
2.333e-10
1.068e-09
2.196e-10
1.028e-09
2.06e-10
9.915e-10
1.925e-10
9.57e-10
1.793e-10
9.249e-10
1.665e-10
8.95e-10
1.541e-10
8.674e-10
1.423e-10
8.418e-10
1.311e-10
8.183e-10
1.204e-10
7.966e-10
1.104e-10
7.768e-10
1.01e-10
7.586e-10
9.227e-11
7.419e-10
8.411e-11
7.267e-10
7.654e-11
7.129e-10
6.954e-11
7.002e-10
6.308e-11
6.888e-10
5.713e-11
6.784e-10
5.167e-11
6.69e-10
4.667e-11
6.605e-10
4.209e-11
6.527e-10
3.792e-11
6.458e-10
3.411e-11
6.395e-10
3.065e-11
6.339e-10
2.751e-11
6.288e-10
2.467e-11
6.242e-10
2.211e-11
6.201e-10
1.98e-11
6.165e-10
1.773e-11
6.132e-10
1.588e-11
6.102e-10
1.424e-11
6.076e-10
1.279e-11
6.052e-10
1.153e-11
6.03e-10
1.045e-11
6.011e-10
9.54e-12
5.994e-10
8.791e-12
5.978e-10
8.198e-12
5.964e-10
7.753e-12
5.95e-10
7.444e-12
5.938e-10
7.256e-12
5.926e-10
7.165e-12
7.141e-12
9.472e-10
6.969e-11
9.671e-10
1.789e-10
9.884e-10
2.552e-10
1.005e-09
3.012e-10
1.016e-09
3.229e-10
1.019e-09
3.268e-10
1.015e-09
3.185e-10
1.006e-09
3.023e-10
9.93e-10
2.814e-10
9.778e-10
2.583e-10
9.612e-10
2.343e-10
9.442e-10
2.106e-10
9.274e-10
1.876e-10
9.114e-10
1.657e-10
8.965e-10
1.45e-10
8.83e-10
1.255e-10
8.71e-10
1.072e-10
8.608e-10
9.003e-11
8.523e-10
7.382e-11
8.456e-10
5.847e-11
8.407e-10
4.383e-11
8.377e-10
2.978e-11
8.366e-10
1.618e-11
8.374e-10
2.916e-12
8.401e-10
-1.014e-11
8.448e-10
-2.309e-11
8.514e-10
-3.604e-11
8.601e-10
-4.909e-11
8.708e-10
-6.234e-11
8.837e-10
-7.586e-11
8.988e-10
-8.972e-11
9.161e-10
-1.04e-10
9.358e-10
-1.187e-10
9.579e-10
-1.339e-10
9.825e-10
-1.496e-10
1.01e-09
-1.658e-10
1.039e-09
-1.825e-10
1.072e-09
-1.996e-10
1.107e-09
-2.171e-10
1.145e-09
-2.348e-10
1.186e-09
-2.527e-10
1.23e-09
-2.704e-10
1.276e-09
-2.879e-10
1.325e-09
-3.049e-10
1.377e-09
-3.21e-10
1.431e-09
-3.359e-10
1.487e-09
-3.493e-10
1.544e-09
-3.607e-10
1.604e-09
-3.697e-10
1.664e-09
-3.759e-10
1.724e-09
-3.789e-10
1.784e-09
-3.781e-10
1.844e-09
-3.733e-10
1.902e-09
-3.642e-10
1.958e-09
-3.504e-10
2.011e-09
-3.318e-10
2.06e-09
-3.083e-10
2.105e-09
-2.799e-10
2.144e-09
-2.467e-10
2.178e-09
-2.089e-10
2.205e-09
-1.671e-10
2.224e-09
-1.217e-10
2.236e-09
-7.371e-11
2.24e-09
-2.409e-11
2.236e-09
2.593e-11
2.224e-09
7.516e-11
2.205e-09
1.225e-10
2.178e-09
1.669e-10
2.145e-09
2.077e-10
2.106e-09
2.443e-10
2.063e-09
2.765e-10
2.014e-09
3.04e-10
1.963e-09
3.269e-10
1.908e-09
3.451e-10
1.851e-09
3.587e-10
1.792e-09
3.681e-10
1.733e-09
3.733e-10
1.673e-09
3.748e-10
1.614e-09
3.728e-10
1.555e-09
3.677e-10
1.497e-09
3.599e-10
1.441e-09
3.499e-10
1.386e-09
3.379e-10
1.334e-09
3.245e-10
1.284e-09
3.099e-10
1.236e-09
2.945e-10
1.191e-09
2.786e-10
1.148e-09
2.624e-10
1.108e-09
2.462e-10
1.07e-09
2.302e-10
1.035e-09
2.145e-10
1.002e-09
1.993e-10
9.713e-10
1.846e-10
9.43e-10
1.706e-10
9.168e-10
1.572e-10
8.927e-10
1.446e-10
8.705e-10
1.326e-10
8.501e-10
1.214e-10
8.313e-10
1.11e-10
8.142e-10
1.012e-10
7.985e-10
9.22e-11
7.843e-10
8.383e-11
7.712e-10
7.61e-11
7.594e-10
6.897e-11
7.486e-10
6.243e-11
7.389e-10
5.642e-11
7.301e-10
5.093e-11
7.221e-10
4.591e-11
7.148e-10
4.133e-11
7.083e-10
3.717e-11
7.024e-10
3.339e-11
6.971e-10
2.996e-11
6.924e-10
2.686e-11
6.881e-10
2.407e-11
6.843e-10
2.156e-11
6.808e-10
1.932e-11
6.777e-10
1.732e-11
6.75e-10
1.556e-11
6.725e-10
1.401e-11
6.703e-10
1.268e-11
6.683e-10
1.154e-11
6.665e-10
1.059e-11
6.649e-10
9.819e-12
6.634e-10
9.221e-12
6.62e-10
8.782e-12
6.608e-10
8.489e-12
6.597e-10
8.322e-12
8.259e-12
9.454e-10
6.178e-11
9.627e-10
1.616e-10
9.83e-10
2.35e-10
1.001e-09
2.829e-10
1.015e-09
3.092e-10
1.023e-09
3.188e-10
1.025e-09
3.161e-10
1.023e-09
3.047e-10
1.017e-09
2.878e-10
1.007e-09
2.675e-10
9.962e-10
2.455e-10
9.84e-10
2.228e-10
9.714e-10
2.002e-10
9.59e-10
1.781e-10
9.472e-10
1.568e-10
9.363e-10
1.364e-10
9.266e-10
1.17e-10
9.181e-10
9.847e-11
9.111e-10
8.081e-11
9.057e-10
6.39e-11
9.019e-10
4.764e-11
8.998e-10
3.191e-11
8.993e-10
1.659e-11
9.007e-10
1.553e-12
9.039e-10
-1.331e-11
9.089e-10
-2.812e-11
9.159e-10
-4.298e-11
9.248e-10
-5.799e-11
9.357e-10
-7.325e-11
9.487e-10
-8.885e-11
9.638e-10
-1.049e-10
9.812e-10
-1.213e-10
1.001e-09
-1.384e-10
1.023e-09
-1.559e-10
1.047e-09
-1.741e-10
1.074e-09
-1.928e-10
1.104e-09
-2.121e-10
1.136e-09
-2.319e-10
1.171e-09
-2.521e-10
1.209e-09
-2.726e-10
1.25e-09
-2.933e-10
1.293e-09
-3.138e-10
1.339e-09
-3.34e-10
1.388e-09
-3.536e-10
1.439e-09
-3.722e-10
1.493e-09
-3.894e-10
1.548e-09
-4.049e-10
1.606e-09
-4.18e-10
1.664e-09
-4.284e-10
1.724e-09
-4.355e-10
1.784e-09
-4.389e-10
1.844e-09
-4.379e-10
1.903e-09
-4.323e-10
1.96e-09
-4.217e-10
2.016e-09
-4.058e-10
2.068e-09
-3.843e-10
2.117e-09
-3.571e-10
2.161e-09
-3.243e-10
2.2e-09
-2.86e-10
2.234e-09
-2.424e-10
2.261e-09
-1.94e-10
2.28e-09
-1.414e-10
2.293e-09
-8.571e-11
2.296e-09
-2.807e-11
2.292e-09
3.004e-11
2.28e-09
8.719e-11
2.261e-09
1.42e-10
2.234e-09
1.934e-10
2.201e-09
2.405e-10
2.163e-09
2.827e-10
2.12e-09
3.199e-10
2.072e-09
3.517e-10
2.021e-09
3.781e-10
1.967e-09
3.992e-10
1.91e-09
4.151e-10
1.852e-09
4.26e-10
1.794e-09
4.322e-10
1.734e-09
4.341e-10
1.675e-09
4.319e-10
1.617e-09
4.261e-10
1.559e-09
4.173e-10
1.504e-09
4.057e-10
1.449e-09
3.92e-10
1.397e-09
3.765e-10
1.348e-09
3.597e-10
1.3e-09
3.42e-10
1.255e-09
3.236e-10
1.212e-09
3.05e-10
1.172e-09
2.863e-10
1.135e-09
2.678e-10
1.1e-09
2.497e-10
1.067e-09
2.321e-10
1.037e-09
2.151e-10
1.008e-09
1.988e-10
9.821e-10
1.833e-10
9.58e-10
1.687e-10
9.358e-10
1.549e-10
9.154e-10
1.419e-10
8.966e-10
1.297e-10
8.795e-10
1.184e-10
8.637e-10
1.079e-10
8.494e-10
9.818e-11
8.363e-10
8.918e-11
8.244e-10
8.089e-11
8.136e-10
7.326e-11
8.037e-10
6.626e-11
7.948e-10
5.985e-11
7.867e-10
5.399e-11
7.794e-10
4.864e-11
7.728e-10
4.377e-11
7.669e-10
3.934e-11
7.615e-10
3.533e-11
7.567e-10
3.17e-11
7.523e-10
2.842e-11
7.484e-10
2.546e-11
7.449e-10
2.282e-11
7.418e-10
2.046e-11
7.39e-10
1.837e-11
7.364e-10
1.653e-11
7.342e-10
1.493e-11
7.322e-10
1.356e-11
7.304e-10
1.24e-11
7.287e-10
1.144e-11
7.273e-10
1.068e-11
7.26e-10
1.011e-11
7.247e-10
9.704e-12
7.236e-10
9.458e-12
9.355e-12
9.441e-10
5.518e-11
9.593e-10
1.464e-10
9.782e-10
2.16e-10
9.969e-10
2.642e-10
1.013e-09
2.934e-10
1.024e-09
3.073e-10
1.031e-09
3.091e-10
1.034e-09
3.021e-10
1.033e-09
2.889e-10
1.029e-09
2.715e-10
1.023e-09
2.517e-10
1.015e-09
2.304e-10
1.007e-09
2.086e-10
9.978e-10
1.868e-10
9.892e-10
1.654e-10
9.81e-10
1.446e-10
9.736e-10
1.244e-10
9.672e-10
1.049e-10
9.618e-10
8.612e-11
9.578e-10
6.795e-11
9.551e-10
5.031e-11
9.539e-10
3.312e-11
9.542e-10
1.626e-11
9.562e-10
-3.721e-13
9.598e-10
-1.69e-11
9.651e-10
-3.342e-11
9.721e-10
-5.006e-11
9.811e-10
-6.692e-11
9.919e-10
-8.408e-11
1.005e-09
-1.017e-10
1.02e-09
-1.197e-10
1.037e-09
-1.383e-10
1.056e-09
-1.575e-10
1.077e-09
-1.774e-10
1.101e-09
-1.979e-10
1.127e-09
-2.191e-10
1.156e-09
-2.409e-10
1.187e-09
-2.633e-10
1.221e-09
-2.861e-10
1.258e-09
-3.093e-10
1.297e-09
-3.326e-10
1.339e-09
-3.558e-10
1.384e-09
-3.787e-10
1.431e-09
-4.008e-10
1.481e-09
-4.218e-10
1.533e-09
-4.413e-10
1.587e-09
-4.587e-10
1.642e-09
-4.736e-10
1.699e-09
-4.853e-10
1.757e-09
-4.933e-10
1.815e-09
-4.969e-10
1.873e-09
-4.958e-10
1.93e-09
-4.893e-10
1.985e-09
-4.772e-10
2.039e-09
-4.591e-10
2.089e-09
-4.347e-10
2.136e-09
-4.04e-10
2.179e-09
-3.67e-10
2.216e-09
-3.237e-10
2.249e-09
-2.746e-10
2.275e-09
-2.2e-10
2.294e-09
-1.605e-10
2.305e-09
-9.731e-11
2.309e-09
-3.186e-11
2.305e-09
3.411e-11
2.293e-09
9.895e-11
2.274e-09
1.611e-10
2.249e-09
2.191e-10
2.217e-09
2.721e-10
2.18e-09
3.197e-10
2.139e-09
3.615e-10
2.093e-09
3.973e-10
2.044e-09
4.272e-10
1.992e-09
4.511e-10
1.938e-09
4.692e-10
1.882e-09
4.818e-10
1.825e-09
4.89e-10
1.768e-09
4.913e-10
1.711e-09
4.891e-10
1.654e-09
4.827e-10
1.598e-09
4.728e-10
1.544e-09
4.599e-10
1.492e-09
4.445e-10
1.441e-09
4.27e-10
1.393e-09
4.081e-10
1.347e-09
3.881e-10
1.303e-09
3.673e-10
1.262e-09
3.463e-10
1.223e-09
3.252e-10
1.186e-09
3.043e-10
1.152e-09
2.838e-10
1.12e-09
2.639e-10
1.091e-09
2.447e-10
1.063e-09
2.263e-10
1.038e-09
2.088e-10
1.014e-09
1.922e-10
9.927e-10
1.765e-10
9.728e-10
1.618e-10
9.544e-10
1.481e-10
9.377e-10
1.352e-10
9.223e-10
1.233e-10
9.082e-10
1.122e-10
8.954e-10
1.02e-10
8.837e-10
9.258e-11
8.731e-10
8.39e-11
8.634e-10
7.593e-11
8.546e-10
6.863e-11
8.467e-10
6.194e-11
8.395e-10
5.584e-11
8.33e-10
5.028e-11
8.271e-10
4.523e-11
8.218e-10
4.063e-11
8.17e-10
3.647e-11
8.127e-10
3.271e-11
8.088e-10
2.933e-11
8.054e-10
2.629e-11
8.023e-10
2.357e-11
7.995e-10
2.115e-11
7.97e-10
1.902e-11
7.948e-10
1.715e-11
7.928e-10
1.554e-11
7.91e-10
1.417e-11
7.894e-10
1.303e-11
7.88e-10
1.211e-11
7.867e-10
1.139e-11
7.855e-10
1.088e-11
7.845e-10
1.055e-11
1.041e-11
9.431e-10
4.954e-11
9.566e-10
1.329e-10
9.742e-10
1.984e-10
9.927e-10
2.458e-10
1.01e-09
2.766e-10
1.023e-09
2.933e-10
1.034e-09
2.987e-10
1.04e-09
2.954e-10
1.044e-09
2.855e-10
1.044e-09
2.711e-10
1.042e-09
2.535e-10
1.039e-09
2.339e-10
1.034e-09
2.133e-10
1.029e-09
1.922e-10
1.023e-09
1.71e-10
1.018e-09
1.5e-10
1.013e-09
1.294e-10
1.009e-09
1.093e-10
1.005e-09
8.971e-11
1.002e-09
7.056e-11
1.001e-09
5.181e-11
1.001e-09
3.34e-11
1.002e-09
1.523e-11
1.004e-09
-2.805e-12
1.008e-09
-2.08e-11
1.013e-09
-3.887e-11
1.02e-09
-5.712e-11
1.029e-09
-7.565e-11
1.04e-09
-9.457e-11
1.052e-09
-1.14e-10
1.066e-09
-1.339e-10
1.082e-09
-1.545e-10
1.101e-09
-1.758e-10
1.121e-09
-1.978e-10
1.144e-09
-2.205e-10
1.168e-09
-2.44e-10
1.196e-09
-2.682e-10
1.225e-09
-2.93e-10
1.257e-09
-3.183e-10
1.292e-09
-3.44e-10
1.329e-09
-3.698e-10
1.369e-09
-3.956e-10
1.411e-09
-4.209e-10
1.456e-09
-4.454e-10
1.503e-09
-4.688e-10
1.552e-09
-4.904e-10
1.603e-09
-5.097e-10
1.655e-09
-5.261e-10
1.709e-09
-5.39e-10
1.763e-09
-5.477e-10
1.818e-09
-5.516e-10
1.872e-09
-5.501e-10
1.926e-09
-5.426e-10
1.977e-09
-5.289e-10