/*--------------------------------*- C++ -*----------------------------------*\
  =========                 |
  \\      /  F ield         | OpenFOAM: The Open Source CFD Toolbox
   \\    /   O peration     | Website:  https://openfoam.org
    \\  /    A nd           | Version:  7
     \\/     M anipulation  |
\*---------------------------------------------------------------------------*/
FoamFile
{
    version     2.0;
    format      ascii;
    class       volVectorField;
    location    "179.999473411366523";
    object      U;
}
// * * * * * * * * * * * * * * * * * * * * * * * * * * * * * * * * * * * * * //

dimensions      [0 1 -1 0 0 0 0];

internalField   nonuniform List<vector> 
4096
(
(0.001039 0.0001611 0)
(0.0007463 0.0001314 0)
(0.0005302 8.474e-05 0)
(0.0003918 5.358e-05 0)
(0.0003036 3.465e-05 0)
(0.0002457 2.326e-05 0)
(0.0002062 1.63e-05 0)
(0.000178 1.19e-05 0)
(0.0001571 9.009e-06 0)
(0.000141 7.013e-06 0)
(0.0001284 5.578e-06 0)
(0.0001184 4.508e-06 0)
(0.0001102 3.684e-06 0)
(0.0001034 3.033e-06 0)
(9.79e-05 2.506e-06 0)
(9.333e-05 2.072e-06 0)
(8.955e-05 1.706e-06 0)
(8.645e-05 1.394e-06 0)
(8.393e-05 1.122e-06 0)
(8.193e-05 8.815e-07 0)
(8.038e-05 6.656e-07 0)
(7.925e-05 4.685e-07 0)
(7.849e-05 2.855e-07 0)
(7.81e-05 1.129e-07 0)
(7.803e-05 -5.242e-08 0)
(7.83e-05 -2.132e-07 0)
(7.889e-05 -3.718e-07 0)
(7.979e-05 -5.303e-07 0)
(8.101e-05 -6.904e-07 0)
(8.255e-05 -8.537e-07 0)
(8.443e-05 -1.022e-06 0)
(8.664e-05 -1.196e-06 0)
(8.922e-05 -1.376e-06 0)
(9.216e-05 -1.564e-06 0)
(9.548e-05 -1.761e-06 0)
(9.921e-05 -1.966e-06 0)
(0.0001034 -2.18e-06 0)
(0.0001079 -2.401e-06 0)
(0.000113 -2.631e-06 0)
(0.0001185 -2.867e-06 0)
(0.0001244 -3.107e-06 0)
(0.0001309 -3.35e-06 0)
(0.0001378 -3.593e-06 0)
(0.0001453 -3.832e-06 0)
(0.0001532 -4.064e-06 0)
(0.0001615 -4.283e-06 0)
(0.0001703 -4.484e-06 0)
(0.0001794 -4.661e-06 0)
(0.0001889 -4.809e-06 0)
(0.0001986 -4.92e-06 0)
(0.0002085 -4.988e-06 0)
(0.0002185 -5.006e-06 0)
(0.0002285 -4.968e-06 0)
(0.0002383 -4.868e-06 0)
(0.0002479 -4.703e-06 0)
(0.0002571 -4.467e-06 0)
(0.0002657 -4.16e-06 0)
(0.0002736 -3.781e-06 0)
(0.0002808 -3.332e-06 0)
(0.0002869 -2.817e-06 0)
(0.000292 -2.244e-06 0)
(0.0002958 -1.622e-06 0)
(0.0002984 -9.634e-07 0)
(0.0002997 -2.838e-07 0)
(0.0002995 4.009e-07 0)
(0.0002981 1.074e-06 0)
(0.0002953 1.719e-06 0)
(0.0002912 2.323e-06 0)
(0.000286 2.875e-06 0)
(0.0002798 3.365e-06 0)
(0.0002726 3.79e-06 0)
(0.0002647 4.145e-06 0)
(0.0002561 4.431e-06 0)
(0.000247 4.649e-06 0)
(0.0002376 4.802e-06 0)
(0.0002279 4.893e-06 0)
(0.0002181 4.927e-06 0)
(0.0002082 4.909e-06 0)
(0.0001985 4.846e-06 0)
(0.0001889 4.743e-06 0)
(0.0001796 4.606e-06 0)
(0.0001705 4.442e-06 0)
(0.0001618 4.255e-06 0)
(0.0001535 4.053e-06 0)
(0.0001456 3.838e-06 0)
(0.0001382 3.617e-06 0)
(0.0001311 3.393e-06 0)
(0.0001246 3.169e-06 0)
(0.0001185 2.948e-06 0)
(0.0001128 2.733e-06 0)
(0.0001075 2.525e-06 0)
(0.0001027 2.325e-06 0)
(9.822e-05 2.135e-06 0)
(9.412e-05 1.956e-06 0)
(9.038e-05 1.787e-06 0)
(8.697e-05 1.628e-06 0)
(8.386e-05 1.481e-06 0)
(8.103e-05 1.344e-06 0)
(7.847e-05 1.217e-06 0)
(7.615e-05 1.101e-06 0)
(7.406e-05 9.935e-07 0)
(7.217e-05 8.952e-07 0)
(7.047e-05 8.053e-07 0)
(6.894e-05 7.233e-07 0)
(6.757e-05 6.486e-07 0)
(6.634e-05 5.808e-07 0)
(6.524e-05 5.193e-07 0)
(6.426e-05 4.636e-07 0)
(6.338e-05 4.134e-07 0)
(6.26e-05 3.68e-07 0)
(6.19e-05 3.273e-07 0)
(6.129e-05 2.907e-07 0)
(6.074e-05 2.58e-07 0)
(6.025e-05 2.289e-07 0)
(5.982e-05 2.031e-07 0)
(5.944e-05 1.805e-07 0)
(5.909e-05 1.609e-07 0)
(5.879e-05 1.442e-07 0)
(5.851e-05 1.306e-07 0)
(5.826e-05 1.199e-07 0)
(5.803e-05 1.126e-07 0)
(5.781e-05 1.091e-07 0)
(5.759e-05 1.104e-07 0)
(5.736e-05 1.183e-07 0)
(5.711e-05 1.363e-07 0)
(5.68e-05 1.7e-07 0)
(5.64e-05 2.258e-07 0)
(5.589e-05 2.934e-07 0)
(0.001209 0.0003128 0)
(0.001154 0.0003282 0)
(0.00101 0.000248 0)
(0.0008613 0.000177 0)
(0.0007346 0.0001261 0)
(0.0006329 9.133e-05 0)
(0.000553 6.774e-05 0)
(0.0004901 5.155e-05 0)
(0.0004402 4.016e-05 0)
(0.0004002 3.191e-05 0)
(0.0003677 2.575e-05 0)
(0.0003411 2.104e-05 0)
(0.0003191 1.733e-05 0)
(0.0003008 1.435e-05 0)
(0.0002856 1.192e-05 0)
(0.000273 9.889e-06 0)
(0.0002625 8.17e-06 0)
(0.0002538 6.69e-06 0)
(0.0002468 5.397e-06 0)
(0.0002411 4.248e-06 0)
(0.0002368 3.213e-06 0)
(0.0002336 2.266e-06 0)
(0.0002314 1.384e-06 0)
(0.0002303 5.522e-07 0)
(0.0002301 -2.456e-07 0)
(0.0002308 -1.022e-06 0)
(0.0002325 -1.787e-06 0)
(0.000235 -2.55e-06 0)
(0.0002384 -3.321e-06 0)
(0.0002428 -4.106e-06 0)
(0.000248 -4.911e-06 0)
(0.0002543 -5.743e-06 0)
(0.0002615 -6.606e-06 0)
(0.0002697 -7.503e-06 0)
(0.000279 -8.436e-06 0)
(0.0002894 -9.408e-06 0)
(0.0003009 -1.042e-05 0)
(0.0003136 -1.146e-05 0)
(0.0003276 -1.254e-05 0)
(0.0003427 -1.364e-05 0)
(0.0003592 -1.477e-05 0)
(0.000377 -1.59e-05 0)
(0.000396 -1.702e-05 0)
(0.0004163 -1.813e-05 0)
(0.0004378 -1.919e-05 0)
(0.0004605 -2.019e-05 0)
(0.0004843 -2.111e-05 0)
(0.000509 -2.191e-05 0)
(0.0005345 -2.257e-05 0)
(0.0005607 -2.305e-05 0)
(0.0005873 -2.333e-05 0)
(0.000614 -2.338e-05 0)
(0.0006406 -2.317e-05 0)
(0.0006668 -2.268e-05 0)
(0.0006922 -2.188e-05 0)
(0.0007165 -2.076e-05 0)
(0.0007393 -1.931e-05 0)
(0.0007603 -1.754e-05 0)
(0.000779 -1.544e-05 0)
(0.0007952 -1.305e-05 0)
(0.0008086 -1.039e-05 0)
(0.0008187 -7.519e-06 0)
(0.0008256 -4.48e-06 0)
(0.0008289 -1.346e-06 0)
(0.0008287 1.812e-06 0)
(0.0008249 4.918e-06 0)
(0.0008177 7.902e-06 0)
(0.0008071 1.07e-05 0)
(0.0007936 1.327e-05 0)
(0.0007772 1.556e-05 0)
(0.0007584 1.755e-05 0)
(0.0007375 1.922e-05 0)
(0.0007149 2.058e-05 0)
(0.0006908 2.163e-05 0)
(0.0006657 2.238e-05 0)
(0.0006399 2.284e-05 0)
(0.0006136 2.304e-05 0)
(0.0005873 2.3e-05 0)
(0.0005611 2.274e-05 0)
(0.0005352 2.229e-05 0)
(0.0005099 2.169e-05 0)
(0.0004854 2.095e-05 0)
(0.0004617 2.011e-05 0)
(0.000439 1.918e-05 0)
(0.0004174 1.82e-05 0)
(0.000397 1.718e-05 0)
(0.0003777 1.614e-05 0)
(0.0003595 1.511e-05 0)
(0.0003426 1.408e-05 0)
(0.0003268 1.307e-05 0)
(0.0003122 1.209e-05 0)
(0.0002986 1.116e-05 0)
(0.0002861 1.026e-05 0)
(0.0002746 9.414e-06 0)
(0.0002641 8.613e-06 0)
(0.0002544 7.863e-06 0)
(0.0002456 7.162e-06 0)
(0.0002376 6.51e-06 0)
(0.0002303 5.906e-06 0)
(0.0002237 5.348e-06 0)
(0.0002177 4.835e-06 0)
(0.0002123 4.363e-06 0)
(0.0002074 3.931e-06 0)
(0.000203 3.536e-06 0)
(0.000199 3.176e-06 0)
(0.0001954 2.849e-06 0)
(0.0001922 2.551e-06 0)
(0.0001894 2.282e-06 0)
(0.0001868 2.038e-06 0)
(0.0001845 1.818e-06 0)
(0.0001825 1.619e-06 0)
(0.0001806 1.441e-06 0)
(0.000179 1.282e-06 0)
(0.0001776 1.14e-06 0)
(0.0001763 1.014e-06 0)
(0.0001751 9.03e-07 0)
(0.0001741 8.068e-07 0)
(0.0001732 7.248e-07 0)
(0.0001723 6.568e-07 0)
(0.0001716 6.033e-07 0)
(0.0001709 5.652e-07 0)
(0.0001702 5.44e-07 0)
(0.0001696 5.428e-07 0)
(0.0001689 5.664e-07 0)
(0.0001682 6.226e-07 0)
(0.0001675 7.223e-07 0)
(0.0001667 8.71e-07 0)
(0.0001658 1.026e-06 0)
(0.001226 0.0002775 0)
(0.001243 0.0004027 0)
(0.001194 0.0003664 0)
(0.001103 0.0002981 0)
(0.001 0.0002343 0)
(0.0009022 0.0001827 0)
(0.0008152 0.0001433 0)
(0.0007405 0.0001136 0)
(0.0006772 9.121e-05 0)
(0.000624 7.409e-05 0)
(0.0005793 6.078e-05 0)
(0.0005417 5.026e-05 0)
(0.00051 4.18e-05 0)
(0.0004832 3.488e-05 0)
(0.0004607 2.913e-05 0)
(0.0004417 2.428e-05 0)
(0.0004259 2.014e-05 0)
(0.0004127 1.654e-05 0)
(0.000402 1.337e-05 0)
(0.0003933 1.055e-05 0)
(0.0003866 7.986e-06 0)
(0.0003817 5.634e-06 0)
(0.0003784 3.441e-06 0)
(0.0003767 1.365e-06 0)
(0.0003764 -6.277e-07 0)
(0.0003776 -2.568e-06 0)
(0.0003802 -4.48e-06 0)
(0.0003842 -6.389e-06 0)
(0.0003896 -8.314e-06 0)
(0.0003965 -1.027e-05 0)
(0.0004047 -1.228e-05 0)
(0.0004145 -1.435e-05 0)
(0.0004258 -1.649e-05 0)
(0.0004386 -1.871e-05 0)
(0.0004532 -2.102e-05 0)
(0.0004694 -2.342e-05 0)
(0.0004873 -2.591e-05 0)
(0.0005071 -2.847e-05 0)
(0.0005288 -3.112e-05 0)
(0.0005523 -3.382e-05 0)
(0.0005778 -3.655e-05 0)
(0.0006053 -3.93e-05 0)
(0.0006346 -4.203e-05 0)
(0.0006659 -4.47e-05 0)
(0.000699 -4.726e-05 0)
(0.0007339 -4.966e-05 0)
(0.0007703 -5.184e-05 0)
(0.0008081 -5.374e-05 0)
(0.0008471 -5.528e-05 0)
(0.000887 -5.64e-05 0)
(0.0009275 -5.702e-05 0)
(0.0009682 -5.707e-05 0)
(0.001009 -5.65e-05 0)
(0.001048 -5.524e-05 0)
(0.001087 -5.324e-05 0)
(0.001124 -5.047e-05 0)
(0.001158 -4.691e-05 0)
(0.00119 -4.257e-05 0)
(0.001218 -3.747e-05 0)
(0.001242 -3.167e-05 0)
(0.001263 -2.523e-05 0)
(0.001278 -1.826e-05 0)
(0.001288 -1.092e-05 0)
(0.001293 -3.339e-06 0)
(0.001293 4.295e-06 0)
(0.001288 1.181e-05 0)
(0.001277 1.904e-05 0)
(0.001261 2.583e-05 0)
(0.001241 3.206e-05 0)
(0.001216 3.765e-05 0)
(0.001188 4.252e-05 0)
(0.001156 4.665e-05 0)
(0.001122 5.001e-05 0)
(0.001086 5.263e-05 0)
(0.001048 5.452e-05 0)
(0.001009 5.572e-05 0)
(0.0009687 5.628e-05 0)
(0.0009286 5.626e-05 0)
(0.0008885 5.571e-05 0)
(0.000849 5.469e-05 0)
(0.0008103 5.329e-05 0)
(0.0007727 5.155e-05 0)
(0.0007363 4.955e-05 0)
(0.0007014 4.734e-05 0)
(0.000668 4.498e-05 0)
(0.0006364 4.252e-05 0)
(0.0006065 4.001e-05 0)
(0.0005784 3.749e-05 0)
(0.000552 3.499e-05 0)
(0.0005274 3.253e-05 0)
(0.0005046 3.015e-05 0)
(0.0004834 2.785e-05 0)
(0.0004638 2.565e-05 0)
(0.0004458 2.356e-05 0)
(0.0004292 2.159e-05 0)
(0.000414 1.973e-05 0)
(0.0004001 1.8e-05 0)
(0.0003874 1.638e-05 0)
(0.0003758 1.488e-05 0)
(0.0003653 1.349e-05 0)
(0.0003558 1.221e-05 0)
(0.0003472 1.104e-05 0)
(0.0003394 9.958e-06 0)
(0.0003323 8.97e-06 0)
(0.000326 8.068e-06 0)
(0.0003202 7.247e-06 0)
(0.0003151 6.499e-06 0)
(0.0003105 5.821e-06 0)
(0.0003063 5.207e-06 0)
(0.0003026 4.652e-06 0)
(0.0002993 4.151e-06 0)
(0.0002963 3.701e-06 0)
(0.0002937 3.297e-06 0)
(0.0002913 2.937e-06 0)
(0.0002892 2.617e-06 0)
(0.0002873 2.335e-06 0)
(0.0002856 2.089e-06 0)
(0.0002841 1.879e-06 0)
(0.0002827 1.703e-06 0)
(0.0002815 1.563e-06 0)
(0.0002803 1.459e-06 0)
(0.0002793 1.394e-06 0)
(0.0002782 1.372e-06 0)
(0.0002772 1.398e-06 0)
(0.0002762 1.48e-06 0)
(0.0002752 1.623e-06 0)
(0.0002741 1.816e-06 0)
(0.0002731 1.985e-06 0)
(0.001224 0.0002275 0)
(0.00126 0.0004003 0)
(0.001258 0.0004192 0)
(0.001216 0.0003786 0)
(0.00115 0.0003224 0)
(0.001074 0.0002679 0)
(0.0009988 0.0002207 0)
(0.000928 0.0001818 0)
(0.0008641 0.0001502 0)
(0.0008076 0.0001248 0)
(0.0007582 0.0001042 0)
(0.0007154 8.731e-05 0)
(0.0006785 7.339e-05 0)
(0.0006467 6.176e-05 0)
(0.0006196 5.193e-05 0)
(0.0005965 4.353e-05 0)
(0.000577 3.625e-05 0)
(0.0005607 2.988e-05 0)
(0.0005473 2.422e-05 0)
(0.0005365 1.913e-05 0)
(0.0005281 1.45e-05 0)
(0.0005219 1.022e-05 0)
(0.0005179 6.21e-06 0)
(0.0005158 2.406e-06 0)
(0.0005156 -1.254e-06 0)
(0.0005173 -4.823e-06 0)
(0.0005208 -8.345e-06 0)
(0.0005261 -1.186e-05 0)
(0.0005333 -1.541e-05 0)
(0.0005423 -1.901e-05 0)
(0.0005532 -2.27e-05 0)
(0.000566 -2.651e-05 0)
(0.0005809 -3.044e-05 0)
(0.0005977 -3.451e-05 0)
(0.0006167 -3.873e-05 0)
(0.0006379 -4.311e-05 0)
(0.0006614 -4.764e-05 0)
(0.0006871 -5.231e-05 0)
(0.0007153 -5.711e-05 0)
(0.0007459 -6.2e-05 0)
(0.000779 -6.695e-05 0)
(0.0008146 -7.19e-05 0)
(0.0008526 -7.681e-05 0)
(0.000893 -8.16e-05 0)
(0.0009357 -8.619e-05 0)
(0.0009806 -9.047e-05 0)
(0.001027 -9.434e-05 0)
(0.001076 -9.769e-05 0)
(0.001126 -0.0001004 0)
(0.001177 -0.0001023 0)
(0.001229 -0.0001034 0)
(0.001281 -0.0001034 0)
(0.001333 -0.0001022 0)
(0.001383 -9.988e-05 0)
(0.001432 -9.62e-05 0)
(0.001479 -9.114e-05 0)
(0.001523 -8.468e-05 0)
(0.001564 -7.682e-05 0)
(0.0016 -6.761e-05 0)
(0.001631 -5.713e-05 0)
(0.001656 -4.553e-05 0)
(0.001676 -3.3e-05 0)
(0.001689 -1.978e-05 0)
(0.001696 -6.146e-06 0)
(0.001696 7.587e-06 0)
(0.001689 2.111e-05 0)
(0.001675 3.413e-05 0)
(0.001655 4.638e-05 0)
(0.001629 5.764e-05 0)
(0.001598 6.774e-05 0)
(0.001562 7.659e-05 0)
(0.001522 8.41e-05 0)
(0.001479 9.026e-05 0)
(0.001433 9.508e-05 0)
(0.001384 9.86e-05 0)
(0.001334 0.0001009 0)
(0.001283 0.000102 0)
(0.001232 0.0001021 0)
(0.00118 0.0001012 0)
(0.00113 9.946e-05 0)
(0.00108 9.701e-05 0)
(0.001031 9.396e-05 0)
(0.0009845 9.042e-05 0)
(0.0009394 8.649e-05 0)
(0.0008963 8.228e-05 0)
(0.0008553 7.788e-05 0)
(0.0008165 7.337e-05 0)
(0.0007799 6.883e-05 0)
(0.0007456 6.431e-05 0)
(0.0007135 5.987e-05 0)
(0.0006836 5.555e-05 0)
(0.0006559 5.137e-05 0)
(0.0006302 4.738e-05 0)
(0.0006065 4.357e-05 0)
(0.0005847 3.997e-05 0)
(0.0005647 3.658e-05 0)
(0.0005463 3.34e-05 0)
(0.0005296 3.044e-05 0)
(0.0005143 2.768e-05 0)
(0.0005003 2.513e-05 0)
(0.0004876 2.278e-05 0)
(0.0004762 2.061e-05 0)
(0.0004657 1.861e-05 0)
(0.0004563 1.679e-05 0)
(0.0004478 1.512e-05 0)
(0.0004401 1.359e-05 0)
(0.0004332 1.221e-05 0)
(0.000427 1.095e-05 0)
(0.0004214 9.807e-06 0)
(0.0004164 8.773e-06 0)
(0.0004119 7.84e-06 0)
(0.0004079 6.999e-06 0)
(0.0004043 6.245e-06 0)
(0.0004011 5.57e-06 0)
(0.0003982 4.97e-06 0)
(0.0003956 4.44e-06 0)
(0.0003933 3.977e-06 0)
(0.0003913 3.578e-06 0)
(0.0003894 3.242e-06 0)
(0.0003877 2.968e-06 0)
(0.0003861 2.758e-06 0)
(0.0003847 2.614e-06 0)
(0.0003833 2.539e-06 0)
(0.0003821 2.537e-06 0)
(0.0003808 2.61e-06 0)
(0.0003796 2.754e-06 0)
(0.0003783 2.941e-06 0)
(0.0003772 3.089e-06 0)
(0.001219 0.0001847 0)
(0.001255 0.0003711 0)
(0.001275 0.0004297 0)
(0.001265 0.0004204 0)
(0.00123 0.0003819 0)
(0.001179 0.0003344 0)
(0.001122 0.0002874 0)
(0.001063 0.0002449 0)
(0.001006 0.000208 0)
(0.000953 0.0001765 0)
(0.0009048 0.0001499 0)
(0.0008617 0.0001275 0)
(0.0008235 0.0001083 0)
(0.00079 9.202e-05 0)
(0.0007609 7.795e-05 0)
(0.0007358 6.572e-05 0)
(0.0007143 5.5e-05 0)
(0.0006963 4.549e-05 0)
(0.0006813 3.697e-05 0)
(0.0006693 2.924e-05 0)
(0.0006599 2.216e-05 0)
(0.000653 1.558e-05 0)
(0.0006486 9.382e-06 0)
(0.0006464 3.479e-06 0)
(0.0006465 -2.219e-06 0)
(0.0006487 -7.788e-06 0)
(0.0006531 -1.329e-05 0)
(0.0006596 -1.879e-05 0)
(0.0006683 -2.434e-05 0)
(0.0006792 -2.998e-05 0)
(0.0006924 -3.576e-05 0)
(0.0007078 -4.17e-05 0)
(0.0007255 -4.783e-05 0)
(0.0007458 -5.418e-05 0)
(0.0007685 -6.076e-05 0)
(0.0007938 -6.757e-05 0)
(0.0008217 -7.46e-05 0)
(0.0008525 -8.184e-05 0)
(0.000886 -8.927e-05 0)
(0.0009223 -9.682e-05 0)
(0.0009616 -0.0001045 0)
(0.001004 -0.0001121 0)
(0.001049 -0.0001196 0)
(0.001097 -0.000127 0)
(0.001147 -0.000134 0)
(0.0012 -0.0001405 0)
(0.001255 -0.0001464 0)
(0.001312 -0.0001515 0)
(0.001371 -0.0001556 0)
(0.001431 -0.0001584 0)
(0.001492 -0.0001599 0)
(0.001553 -0.0001598 0)
(0.001614 -0.000158 0)
(0.001673 -0.0001542 0)
(0.001731 -0.0001485 0)
(0.001786 -0.0001406 0)
(0.001837 -0.0001306 0)
(0.001884 -0.0001185 0)
(0.001927 -0.0001043 0)
(0.001963 -8.812e-05 0)
(0.001993 -7.026e-05 0)
(0.002016 -5.098e-05 0)
(0.002032 -3.063e-05 0)
(0.00204 -9.653e-06 0)
(0.00204 1.148e-05 0)
(0.002031 3.231e-05 0)
(0.002016 5.235e-05 0)
(0.001992 7.123e-05 0)
(0.001962 8.86e-05 0)
(0.001926 0.0001042 0)
(0.001884 0.0001179 0)
(0.001837 0.0001296 0)
(0.001787 0.0001391 0)
(0.001732 0.0001467 0)
(0.001676 0.0001522 0)
(0.001617 0.0001559 0)
(0.001557 0.0001578 0)
(0.001497 0.000158 0)
(0.001437 0.0001568 0)
(0.001377 0.0001543 0)
(0.001318 0.0001506 0)
(0.001261 0.000146 0)
(0.001206 0.0001407 0)
(0.001152 0.0001347 0)
(0.001101 0.0001283 0)
(0.001053 0.0001215 0)
(0.001006 0.0001146 0)
(0.000963 0.0001076 0)
(0.0009221 0.0001007 0)
(0.0008839 9.383e-05 0)
(0.0008482 8.715e-05 0)
(0.000815 8.069e-05 0)
(0.0007843 7.449e-05 0)
(0.0007559 6.858e-05 0)
(0.0007297 6.298e-05 0)
(0.0007056 5.77e-05 0)
(0.0006835 5.274e-05 0)
(0.0006632 4.811e-05 0)
(0.0006447 4.381e-05 0)
(0.0006279 3.981e-05 0)
(0.0006125 3.612e-05 0)
(0.0005985 3.271e-05 0)
(0.0005859 2.958e-05 0)
(0.0005744 2.671e-05 0)
(0.000564 2.408e-05 0)
(0.0005547 2.168e-05 0)
(0.0005462 1.949e-05 0)
(0.0005386 1.75e-05 0)
(0.0005317 1.569e-05 0)
(0.0005256 1.406e-05 0)
(0.00052 1.258e-05 0)
(0.0005151 1.124e-05 0)
(0.0005106 1.004e-05 0)
(0.0005067 8.967e-06 0)
(0.0005031 8.009e-06 0)
(0.0004999 7.162e-06 0)
(0.0004971 6.418e-06 0)
(0.0004945 5.774e-06 0)
(0.0004922 5.227e-06 0)
(0.0004901 4.774e-06 0)
(0.0004882 4.416e-06 0)
(0.0004864 4.153e-06 0)
(0.0004848 3.987e-06 0)
(0.0004833 3.917e-06 0)
(0.0004818 3.941e-06 0)
(0.0004804 4.045e-06 0)
(0.0004791 4.195e-06 0)
(0.0004778 4.312e-06 0)
(0.001214 0.000152 0)
(0.001246 0.0003352 0)
(0.001274 0.0004176 0)
(0.001282 0.0004345 0)
(0.00127 0.0004156 0)
(0.001241 0.0003799 0)
(0.001202 0.0003386 0)
(0.001157 0.0002973 0)
(0.001111 0.0002588 0)
(0.001065 0.0002242 0)
(0.001022 0.0001936 0)
(0.0009823 0.0001669 0)
(0.0009459 0.0001435 0)
(0.0009133 0.000123 0)
(0.0008844 0.000105 0)
(0.0008592 8.906e-05 0)
(0.0008374 7.489e-05 0)
(0.0008188 6.218e-05 0)
(0.0008034 5.066e-05 0)
(0.0007909 4.012e-05 0)
(0.0007812 3.037e-05 0)
(0.0007742 2.126e-05 0)
(0.0007697 1.263e-05 0)
(0.0007677 4.376e-06 0)
(0.0007682 -3.624e-06 0)
(0.000771 -1.146e-05 0)
(0.0007762 -1.923e-05 0)
(0.0007838 -2.7e-05 0)
(0.0007939 -3.485e-05 0)
(0.0008063 -4.283e-05 0)
(0.0008213 -5.099e-05 0)
(0.0008388 -5.939e-05 0)
(0.0008589 -6.806e-05 0)
(0.0008818 -7.702e-05 0)
(0.0009074 -8.63e-05 0)
(0.000936 -9.588e-05 0)
(0.0009675 -0.0001058 0)
(0.001002 -0.000116 0)
(0.00104 -0.0001264 0)
(0.001081 -0.000137 0)
(0.001125 -0.0001476 0)
(0.001172 -0.0001583 0)
(0.001222 -0.0001688 0)
(0.001276 -0.000179 0)
(0.001332 -0.0001888 0)
(0.001391 -0.0001979 0)
(0.001453 -0.000206 0)
(0.001517 -0.000213 0)
(0.001583 -0.0002186 0)
(0.00165 -0.0002225 0)
(0.001717 -0.0002244 0)
(0.001785 -0.0002242 0)
(0.001853 -0.0002215 0)
(0.001919 -0.0002162 0)
(0.001983 -0.0002081 0)
(0.002044 -0.000197 0)
(0.002101 -0.000183 0)
(0.002154 -0.000166 0)
(0.002201 -0.0001461 0)
(0.002242 -0.0001235 0)
(0.002275 -9.853e-05 0)
(0.002301 -7.155e-05 0)
(0.002318 -4.309e-05 0)
(0.002327 -1.374e-05 0)
(0.002327 1.584e-05 0)
(0.002318 4.498e-05 0)
(0.002301 7.304e-05 0)
(0.002275 9.946e-05 0)
(0.002242 0.0001238 0)
(0.002201 0.0001457 0)
(0.002155 0.0001649 0)
(0.002103 0.0001813 0)
(0.002046 0.0001948 0)
(0.001986 0.0002055 0)
(0.001923 0.0002134 0)
(0.001858 0.0002186 0)
(0.001791 0.0002214 0)
(0.001724 0.0002219 0)
(0.001657 0.0002204 0)
(0.00159 0.000217 0)
(0.001525 0.000212 0)
(0.001461 0.0002057 0)
(0.001399 0.0001983 0)
(0.001339 0.0001901 0)
(0.001282 0.0001812 0)
(0.001227 0.0001718 0)
(0.001176 0.0001622 0)
(0.001127 0.0001524 0)
(0.001081 0.0001427 0)
(0.001038 0.0001331 0)
(0.0009974 0.0001238 0)
(0.0009599 0.0001147 0)
(0.0009251 0.000106 0)
(0.0008929 9.768e-05 0)
(0.0008632 8.979e-05 0)
(0.0008359 8.234e-05 0)
(0.0008107 7.534e-05 0)
(0.0007877 6.88e-05 0)
(0.0007666 6.27e-05 0)
(0.0007473 5.704e-05 0)
(0.0007298 5.18e-05 0)
(0.0007138 4.696e-05 0)
(0.0006993 4.251e-05 0)
(0.0006861 3.842e-05 0)
(0.0006742 3.468e-05 0)
(0.0006634 3.125e-05 0)
(0.0006537 2.812e-05 0)
(0.0006449 2.528e-05 0)
(0.0006369 2.269e-05 0)
(0.0006298 2.035e-05 0)
(0.0006234 1.822e-05 0)
(0.0006177 1.631e-05 0)
(0.0006125 1.458e-05 0)
(0.0006079 1.303e-05 0)
(0.0006037 1.165e-05 0)
(0.0006 1.043e-05 0)
(0.0005967 9.346e-06 0)
(0.0005937 8.406e-06 0)
(0.000591 7.601e-06 0)
(0.0005885 6.925e-06 0)
(0.0005863 6.378e-06 0)
(0.0005843 5.957e-06 0)
(0.0005825 5.66e-06 0)
(0.0005808 5.485e-06 0)
(0.0005792 5.423e-06 0)
(0.0005777 5.456e-06 0)
(0.0005762 5.546e-06 0)
(0.0005749 5.626e-06 0)
(0.00121 0.0001278 0)
(0.001237 0.0003003 0)
(0.001267 0.0003948 0)
(0.001285 0.0004307 0)
(0.001288 0.0004294 0)
(0.001276 0.0004069 0)
(0.001252 0.000374 0)
(0.001222 0.0003371 0)
(0.001187 0.0003001 0)
(0.001151 0.0002648 0)
(0.001115 0.0002323 0)
(0.00108 0.0002029 0)
(0.001047 0.0001763 0)
(0.001018 0.0001525 0)
(0.0009908 0.0001312 0)
(0.0009669 0.000112 0)
(0.000946 9.463e-05 0)
(0.0009281 7.884e-05 0)
(0.0009132 6.438e-05 0)
(0.000901 5.102e-05 0)
(0.0008916 3.856e-05 0)
(0.0008849 2.683e-05 0)
(0.0008808 1.566e-05 0)
(0.0008792 4.903e-06 0)
(0.0008802 -5.558e-06 0)
(0.0008836 -1.584e-05 0)
(0.0008896 -2.606e-05 0)
(0.0008981 -3.63e-05 0)
(0.0009092 -4.664e-05 0)
(0.0009229 -5.717e-05 0)
(0.0009393 -6.795e-05 0)
(0.0009584 -7.904e-05 0)
(0.0009803 -9.048e-05 0)
(0.001005 -0.0001023 0)
(0.001033 -0.0001145 0)
(0.001064 -0.0001271 0)
(0.001098 -0.0001402 0)
(0.001135 -0.0001535 0)
(0.001176 -0.0001672 0)
(0.00122 -0.0001811 0)
(0.001268 -0.0001951 0)
(0.001319 -0.000209 0)
(0.001373 -0.0002228 0)
(0.00143 -0.0002361 0)
(0.001491 -0.0002488 0)
(0.001555 -0.0002606 0)
(0.001621 -0.0002712 0)
(0.00169 -0.0002803 0)
(0.00176 -0.0002875 0)
(0.001832 -0.0002925 0)
(0.001905 -0.000295 0)
(0.001978 -0.0002945 0)
(0.00205 -0.0002909 0)
(0.002121 -0.0002839 0)
(0.00219 -0.0002732 0)
(0.002255 -0.0002586 0)
(0.002317 -0.0002402 0)
(0.002373 -0.0002179 0)
(0.002424 -0.0001918 0)
(0.002468 -0.0001622 0)
(0.002504 -0.0001295 0)
(0.002532 -9.415e-05 0)
(0.002551 -5.681e-05 0)
(0.00256 -1.829e-05 0)
(0.00256 2.053e-05 0)
(0.00255 5.877e-05 0)
(0.002532 9.56e-05 0)
(0.002504 0.0001303 0)
(0.002468 0.0001622 0)
(0.002425 0.0001909 0)
(0.002375 0.0002161 0)
(0.002319 0.0002376 0)
(0.002259 0.0002554 0)
(0.002194 0.0002695 0)
(0.002127 0.00028 0)
(0.002057 0.0002871 0)
(0.001985 0.0002909 0)
(0.001913 0.0002917 0)
(0.001841 0.0002899 0)
(0.00177 0.0002856 0)
(0.001699 0.0002793 0)
(0.001631 0.0002711 0)
(0.001564 0.0002616 0)
(0.0015 0.0002509 0)
(0.001438 0.0002393 0)
(0.001379 0.0002271 0)
(0.001323 0.0002145 0)
(0.00127 0.0002018 0)
(0.001221 0.0001891 0)
(0.001174 0.0001765 0)
(0.00113 0.0001642 0)
(0.00109 0.0001523 0)
(0.001052 0.0001409 0)
(0.001017 0.0001299 0)
(0.0009848 0.0001196 0)
(0.000955 0.0001097 0)
(0.0009276 0.0001005 0)
(0.0009024 9.185e-05 0)
(0.0008794 8.379e-05 0)
(0.0008583 7.629e-05 0)
(0.000839 6.934e-05 0)
(0.0008215 6.293e-05 0)
(0.0008056 5.701e-05 0)
(0.0007911 5.158e-05 0)
(0.0007779 4.659e-05 0)
(0.000766 4.203e-05 0)
(0.0007553 3.786e-05 0)
(0.0007456 3.406e-05 0)
(0.0007368 3.06e-05 0)
(0.0007289 2.747e-05 0)
(0.0007218 2.462e-05 0)
(0.0007154 2.205e-05 0)
(0.0007096 1.974e-05 0)
(0.0007045 1.766e-05 0)
(0.0006999 1.58e-05 0)
(0.0006957 1.414e-05 0)
(0.000692 1.268e-05 0)
(0.0006887 1.14e-05 0)
(0.0006857 1.03e-05 0)
(0.000683 9.359e-06 0)
(0.0006805 8.585e-06 0)
(0.0006783 7.97e-06 0)
(0.0006763 7.508e-06 0)
(0.0006745 7.194e-06 0)
(0.0006728 7.015e-06 0)
(0.0006712 6.951e-06 0)
(0.0006697 6.968e-06 0)
(0.0006683 7.006e-06 0)
(0.001208 0.0001095 0)
(0.00123 0.000269 0)
(0.001259 0.0003679 0)
(0.001282 0.0004164 0)
(0.001294 0.0004293 0)
(0.001294 0.0004191 0)
(0.001283 0.0003954 0)
(0.001265 0.0003646 0)
(0.001241 0.000331 0)
(0.001214 0.0002971 0)
(0.001186 0.0002644 0)
(0.001158 0.0002337 0)
(0.001131 0.0002053 0)
(0.001105 0.0001791 0)
(0.001081 0.0001552 0)
(0.00106 0.0001333 0)
(0.001041 0.0001131 0)
(0.001024 9.458e-05 0)
(0.001011 7.738e-05 0)
(0.0009995 6.134e-05 0)
(0.0009909 4.624e-05 0)
(0.0009849 3.191e-05 0)
(0.0009814 1.818e-05 0)
(0.0009805 4.896e-06 0)
(0.000982 -8.086e-06 0)
(0.0009861 -2.09e-05 0)
(0.0009928 -3.365e-05 0)
(0.001002 -4.647e-05 0)
(0.001014 -5.943e-05 0)
(0.001029 -7.264e-05 0)
(0.001046 -8.618e-05 0)
(0.001066 -0.0001001 0)
(0.001089 -0.0001144 0)
(0.001115 -0.0001293 0)
(0.001144 -0.0001446 0)
(0.001177 -0.0001604 0)
(0.001213 -0.0001767 0)
(0.001252 -0.0001935 0)
(0.001294 -0.0002106 0)
(0.001341 -0.0002279 0)
(0.00139 -0.0002454 0)
(0.001443 -0.0002628 0)
(0.0015 -0.0002799 0)
(0.00156 -0.0002966 0)
(0.001623 -0.0003124 0)
(0.00169 -0.0003271 0)
(0.001759 -0.0003402 0)
(0.001831 -0.0003515 0)
(0.001904 -0.0003604 0)
(0.001979 -0.0003665 0)
(0.002055 -0.0003695 0)
(0.002131 -0.0003689 0)
(0.002206 -0.0003643 0)
(0.00228 -0.0003554 0)
(0.002352 -0.000342 0)
(0.00242 -0.0003238 0)
(0.002485 -0.0003008 0)
(0.002544 -0.0002729 0)
(0.002597 -0.0002404 0)
(0.002642 -0.0002034 0)
(0.00268 -0.0001625 0)
(0.002709 -0.0001182 0)
(0.002729 -7.145e-05 0)
(0.002739 -2.318e-05 0)
(0.002739 2.547e-05 0)
(0.002729 7.339e-05 0)
(0.00271 0.0001195 0)
(0.002681 0.0001629 0)
(0.002643 0.0002028 0)
(0.002598 0.0002387 0)
(0.002546 0.0002702 0)
(0.002488 0.0002971 0)
(0.002425 0.0003195 0)
(0.002358 0.0003372 0)
(0.002288 0.0003504 0)
(0.002215 0.0003594 0)
(0.00214 0.0003643 0)
(0.002065 0.0003655 0)
(0.00199 0.0003634 0)
(0.001916 0.0003582 0)
(0.001842 0.0003504 0)
(0.00177 0.0003404 0)
(0.001701 0.0003286 0)
(0.001634 0.0003153 0)
(0.001569 0.0003009 0)
(0.001508 0.0002858 0)
(0.001449 0.0002701 0)
(0.001394 0.0002543 0)
(0.001342 0.0002384 0)
(0.001293 0.0002227 0)
(0.001247 0.0002074 0)
(0.001204 0.0001925 0)
(0.001165 0.0001782 0)
(0.001128 0.0001644 0)
(0.001094 0.0001514 0)
(0.001062 0.0001391 0)
(0.001034 0.0001275 0)
(0.001007 0.0001166 0)
(0.0009826 0.0001065 0)
(0.0009603 9.701e-05 0)
(0.0009399 8.825e-05 0)
(0.0009213 8.015e-05 0)
(0.0009044 7.267e-05 0)
(0.000889 6.58e-05 0)
(0.000875 5.949e-05 0)
(0.0008623 5.371e-05 0)
(0.0008508 4.842e-05 0)
(0.0008404 4.36e-05 0)
(0.0008311 3.921e-05 0)
(0.0008226 3.522e-05 0)
(0.000815 3.16e-05 0)
(0.0008081 2.833e-05 0)
(0.000802 2.538e-05 0)
(0.0007964 2.272e-05 0)
(0.0007914 2.034e-05 0)
(0.000787 1.821e-05 0)
(0.000783 1.633e-05 0)
(0.0007794 1.468e-05 0)
(0.0007762 1.324e-05 0)
(0.0007733 1.201e-05 0)
(0.0007707 1.098e-05 0)
(0.0007683 1.014e-05 0)
(0.0007662 9.482e-06 0)
(0.0007643 9.001e-06 0)
(0.0007625 8.681e-06 0)
(0.0007609 8.502e-06 0)
(0.0007593 8.432e-06 0)
(0.0007579 8.424e-06 0)
(0.001206 9.542e-05 0)
(0.001225 0.0002417 0)
(0.001252 0.0003403 0)
(0.001276 0.0003965 0)
(0.001294 0.0004199 0)
(0.001302 0.0004202 0)
(0.001301 0.0004053 0)
(0.001293 0.0003811 0)
(0.001279 0.0003521 0)
(0.001261 0.0003208 0)
(0.001241 0.0002893 0)
(0.001219 0.0002586 0)
(0.001198 0.0002294 0)
(0.001177 0.0002018 0)
(0.001157 0.000176 0)
(0.001139 0.000152 0)
(0.001123 0.0001296 0)
(0.001108 0.0001087 0)
(0.001096 8.906e-05 0)
(0.001087 7.056e-05 0)
(0.001079 5.3e-05 0)
(0.001074 3.62e-05 0)
(0.001072 2e-05 0)
(0.001071 4.237e-06 0)
(0.001074 -1.124e-05 0)
(0.001078 -2.657e-05 0)
(0.001086 -4.188e-05 0)
(0.001095 -5.729e-05 0)
(0.001108 -7.292e-05 0)
(0.001123 -8.886e-05 0)
(0.001141 -0.0001052 0)
(0.001162 -0.000122 0)
(0.001185 -0.0001393 0)
(0.001212 -0.0001572 0)
(0.001242 -0.0001757 0)
(0.001275 -0.0001948 0)
(0.001311 -0.0002145 0)
(0.001351 -0.0002347 0)
(0.001395 -0.0002553 0)
(0.001442 -0.0002762 0)
(0.001492 -0.0002972 0)
(0.001546 -0.0003182 0)
(0.001604 -0.0003388 0)
(0.001665 -0.0003588 0)
(0.001729 -0.0003779 0)
(0.001797 -0.0003955 0)
(0.001867 -0.0004113 0)
(0.00194 -0.0004247 0)
(0.002015 -0.0004354 0)
(0.002091 -0.0004427 0)
(0.002168 -0.0004462 0)
(0.002245 -0.0004454 0)
(0.002322 -0.0004398 0)
(0.002397 -0.0004291 0)
(0.00247 -0.0004128 0)
(0.00254 -0.0003909 0)
(0.002605 -0.0003632 0)
(0.002665 -0.0003297 0)
(0.002719 -0.0002905 0)
(0.002766 -0.0002459 0)
(0.002805 -0.0001966 0)
(0.002835 -0.0001432 0)
(0.002855 -8.665e-05 0)
(0.002865 -2.827e-05 0)
(0.002865 3.059e-05 0)
(0.002855 8.854e-05 0)
(0.002835 0.0001442 0)
(0.002805 0.0001966 0)
(0.002767 0.0002447 0)
(0.002721 0.0002879 0)
(0.002668 0.0003258 0)
(0.002609 0.0003583 0)
(0.002545 0.0003853 0)
(0.002477 0.0004067 0)
(0.002406 0.0004228 0)
(0.002332 0.0004337 0)
(0.002256 0.0004398 0)
(0.00218 0.0004415 0)
(0.002104 0.000439 0)
(0.002028 0.000433 0)
(0.001953 0.0004237 0)
(0.00188 0.0004118 0)
(0.001809 0.0003977 0)
(0.001741 0.0003818 0)
(0.001675 0.0003645 0)
(0.001613 0.0003464 0)
(0.001553 0.0003276 0)
(0.001497 0.0003085 0)
(0.001444 0.0002894 0)
(0.001394 0.0002705 0)
(0.001347 0.0002521 0)
(0.001303 0.0002341 0)
(0.001263 0.0002168 0)
(0.001225 0.0002002 0)
(0.00119 0.0001845 0)
(0.001158 0.0001696 0)
(0.001128 0.0001556 0)
(0.001101 0.0001424 0)
(0.001076 0.0001301 0)
(0.001053 0.0001186 0)
(0.001032 0.000108 0)
(0.001013 9.816e-05 0)
(0.0009955 8.907e-05 0)
(0.0009796 8.071e-05 0)
(0.0009651 7.302e-05 0)
(0.000952 6.598e-05 0)
(0.0009401 5.953e-05 0)
(0.0009294 5.365e-05 0)
(0.0009196 4.828e-05 0)
(0.0009108 4.341e-05 0)
(0.0009029 3.898e-05 0)
(0.0008957 3.497e-05 0)
(0.0008893 3.134e-05 0)
(0.0008835 2.808e-05 0)
(0.0008783 2.514e-05 0)
(0.0008737 2.253e-05 0)
(0.0008695 2.02e-05 0)
(0.0008657 1.814e-05 0)
(0.0008624 1.635e-05 0)
(0.0008594 1.48e-05 0)
(0.0008567 1.349e-05 0)
(0.0008542 1.24e-05 0)
(0.000852 1.153e-05 0)
(0.0008501 1.086e-05 0)
(0.0008483 1.038e-05 0)
(0.0008466 1.008e-05 0)
(0.0008451 9.912e-06 0)
(0.0008436 9.856e-06 0)
(0.001205 8.414e-05 0)
(0.001221 0.0002179 0)
(0.001245 0.0003137 0)
(0.00127 0.0003738 0)
(0.00129 0.0004046 0)
(0.001304 0.0004132 0)
(0.001311 0.0004061 0)
(0.001311 0.0003885 0)
(0.001305 0.0003643 0)
(0.001295 0.0003365 0)
(0.001282 0.0003071 0)
(0.001267 0.0002773 0)
(0.001251 0.0002482 0)
(0.001236 0.00022 0)
(0.00122 0.0001931 0)
(0.001205 0.0001676 0)
(0.001192 0.0001435 0)
(0.001181 0.0001206 0)
(0.001171 9.897e-05 0)
(0.001163 7.832e-05 0)
(0.001157 5.854e-05 0)
(0.001153 3.948e-05 0)
(0.001151 2.097e-05 0)
(0.001152 2.86e-06 0)
(0.001155 -1.501e-05 0)
(0.00116 -3.277e-05 0)
(0.001168 -5.057e-05 0)
(0.001178 -6.853e-05 0)
(0.001191 -8.678e-05 0)
(0.001206 -0.0001054 0)
(0.001224 -0.0001245 0)
(0.001245 -0.0001442 0)
(0.001268 -0.0001645 0)
(0.001295 -0.0001855 0)
(0.001325 -0.0002072 0)
(0.001358 -0.0002295 0)
(0.001394 -0.0002526 0)
(0.001434 -0.0002762 0)
(0.001477 -0.0003003 0)
(0.001524 -0.0003248 0)
(0.001574 -0.0003494 0)
(0.001628 -0.0003739 0)
(0.001685 -0.000398 0)
(0.001745 -0.0004214 0)
(0.001809 -0.0004436 0)
(0.001876 -0.0004642 0)
(0.001946 -0.0004826 0)
(0.002018 -0.0004984 0)
(0.002093 -0.0005108 0)
(0.002168 -0.0005193 0)
(0.002245 -0.0005233 0)
(0.002322 -0.0005223 0)
(0.002398 -0.0005156 0)
(0.002472 -0.000503 0)
(0.002545 -0.000484 0)
(0.002613 -0.0004583 0)
(0.002678 -0.0004259 0)
(0.002738 -0.0003867 0)
(0.002791 -0.0003409 0)
(0.002838 -0.0002888 0)
(0.002877 -0.0002311 0)
(0.002906 -0.0001684 0)
(0.002927 -0.000102 0)
(0.002937 -3.339e-05 0)
(0.002937 3.582e-05 0)
(0.002927 0.0001039 0)
(0.002906 0.0001693 0)
(0.002877 0.0002306 0)
(0.002839 0.0002868 0)
(0.002793 0.0003373 0)
(0.002741 0.0003817 0)
(0.002683 0.0004196 0)
(0.002619 0.0004512 0)
(0.002552 0.0004763 0)
(0.002481 0.0004952 0)
(0.002408 0.0005082 0)
(0.002333 0.0005156 0)
(0.002258 0.0005177 0)
(0.002182 0.000515 0)
(0.002107 0.0005081 0)
(0.002033 0.0004974 0)
(0.00196 0.0004836 0)
(0.00189 0.0004672 0)
(0.001822 0.0004486 0)
(0.001757 0.0004285 0)
(0.001694 0.0004073 0)