/*--------------------------------*- C++ -*----------------------------------*\
  =========                 |
  \\      /  F ield         | OpenFOAM: The Open Source CFD Toolbox
   \\    /   O peration     | Website:  https://openfoam.org
    \\  /    A nd           | Version:  7
     \\/     M anipulation  |
\*---------------------------------------------------------------------------*/
FoamFile
{
    version     2.0;
    format      ascii;
    class       volScalarField;
    location    "179.999473411366523";
    object      Y.K;
}
// * * * * * * * * * * * * * * * * * * * * * * * * * * * * * * * * * * * * * //

dimensions      [0 0 0 0 0 0 0];

internalField   nonuniform List<scalar> 
4096
(
7.698e-68
6.871e-66
-2.339e-66
8.65e-66
-7.029e-67
-2.674e-66
1.177e-66
9.406e-67
-6.417e-67
4.881e-66
-5.216e-65
7.883e-64
-1.089e-62
1.55e-61
-2e-60
2.508e-59
-2.985e-58
3.488e-57
-3.927e-56
4.372e-55
-4.652e-54
4.88e-53
-5.055e-52
5.042e-51
-4.713e-50
4.221e-49
-3.721e-48
3.265e-47
-2.763e-46
2.257e-45
-1.763e-44
1.302e-43
-8.824e-43
5.344e-42
-2.747e-41
8.012e-41
3.752e-40
-1.006e-38
1.11e-37
-1.033e-36
7.659e-36
-5.205e-35
3.295e-34
-1.838e-33
9.429e-33
-4.442e-32
1.952e-31
-7.658e-31
2.828e-30
-5.919e-30
1.298e-29
2.717e-28
-6.771e-28
1.73e-26
-8.597e-27
5.911e-25
1.608e-24
1.648e-23
6.132e-23
2.177e-22
1.598e-21
7.862e-21
1.009e-19
1.362e-18
4.298e-18
1.012e-17
2.121e-17
4.171e-17
7.848e-17
1.426e-16
2.513e-16
4.306e-16
7.189e-16
1.171e-15
1.864e-15
2.902e-15
4.423e-15
6.607e-15
9.682e-15
1.393e-14
1.97e-14
2.741e-14
3.756e-14
5.07e-14
6.752e-14
8.875e-14
1.153e-13
1.48e-13
1.88e-13
2.365e-13
2.948e-13
3.643e-13
4.466e-13
5.433e-13
6.565e-13
7.881e-13
9.404e-13
1.116e-12
1.317e-12
1.547e-12
1.809e-12
2.107e-12
2.444e-12
2.824e-12
3.252e-12
3.734e-12
4.273e-12
4.876e-12
5.55e-12
6.3e-12
7.135e-12
8.062e-12
9.09e-12
1.023e-11
1.149e-11
1.287e-11
1.441e-11
1.609e-11
1.794e-11
1.998e-11
2.22e-11
2.464e-11
2.73e-11
3.017e-11
3.325e-11
3.645e-11
3.955e-11
4.194e-11
-2.287e-65
1.208e-64
-1.561e-64
1.953e-65
1.127e-64
-1.022e-64
1.421e-66
6.327e-65
-1.886e-65
2.781e-64
-3.059e-63
4.241e-62
-6.136e-61
8.361e-60
-1.08e-58
1.334e-57
-1.589e-56
1.834e-55
-2.063e-54
2.267e-53
-2.434e-52
2.551e-51
-2.598e-50
2.565e-49
-2.414e-48
2.163e-47
-1.914e-46
1.661e-45
-1.403e-44
1.146e-43
-8.954e-43
6.612e-42
-4.528e-41
2.774e-40
-1.439e-39
4.704e-39
1.12e-38
-4.394e-37
5.011e-36
-4.755e-35
3.574e-34
-2.445e-33
1.526e-32
-8.452e-32
4.32e-31
-2.028e-30
8.91e-30
-3.476e-29
1.316e-28
-2.668e-28
8.289e-28
1.215e-26
-7.015e-27
7.455e-25
5.096e-25
2.51e-23
9.151e-23
7.439e-22
2.774e-21
9.719e-21
6.121e-20
2.422e-19
1.497e-18
4.554e-18
1.074e-17
2.275e-17
4.519e-17
8.563e-17
1.561e-16
2.752e-16
4.703e-16
7.811e-16
1.263e-15
1.992e-15
3.069e-15
4.625e-15
6.828e-15
9.887e-15
1.406e-14
1.966e-14
2.706e-14
3.669e-14
4.907e-14
6.478e-14
8.45e-14
1.09e-13
1.391e-13
1.758e-13
2.202e-13
2.735e-13
3.369e-13
4.12e-13
5.004e-13
6.037e-13
7.24e-13
8.633e-13
1.024e-12
1.209e-12
1.42e-12
1.661e-12
1.935e-12
2.246e-12
2.597e-12
2.993e-12
3.439e-12
3.939e-12
4.499e-12
5.125e-12
5.824e-12
6.602e-12
7.467e-12
8.428e-12
9.492e-12
1.067e-11
1.197e-11
1.341e-11
1.499e-11
1.673e-11
1.865e-11
2.075e-11
2.305e-11
2.557e-11
2.832e-11
3.131e-11
3.454e-11
3.798e-11
4.151e-11
4.48e-11
5.122e-64
-3.572e-63
9.045e-63
-1.236e-62
8.875e-63
-1.49e-63
-3.313e-63
3.039e-63
2.477e-64
1.566e-62
-1.648e-61
2.209e-60
-3.165e-59
4.269e-58
-5.453e-57
6.66e-56
-7.842e-55
8.963e-54
-9.989e-53
1.088e-51
-1.159e-50
1.206e-49
-1.221e-48
1.198e-47
-1.123e-46
1.008e-45
-8.934e-45
7.762e-44
-6.569e-43
5.376e-42
-4.217e-41
3.133e-40
-2.168e-39
1.359e-38
-7.279e-38
2.8e-37
-1.358e-37
-1.526e-35
1.921e-34
-1.933e-33
1.461e-32
-1.01e-31
6.38e-31
-3.527e-30
1.802e-29
-8.459e-29
3.741e-28
-1.454e-27
5.69e-27
-1.061e-26
5.018e-26
4.61e-25
1.068e-24
2.946e-23
7.237e-23
1.135e-21
4.735e-21
3.256e-20
1.201e-19
3.924e-19
1.94e-18
5.902e-18
1.429e-17
3.142e-17
6.487e-17
1.274e-16
2.394e-16
4.323e-16
7.521e-16
1.264e-15
2.056e-15
3.244e-15
4.975e-15
7.428e-15
1.082e-14
1.541e-14
2.147e-14
2.936e-14
3.942e-14
5.209e-14
6.78e-14
8.708e-14
1.105e-13
1.387e-13
1.723e-13
2.123e-13
2.594e-13
3.148e-13
3.795e-13
4.548e-13
5.422e-13
6.433e-13
7.597e-13
8.935e-13
1.047e-12
1.222e-12
1.422e-12
1.649e-12
1.907e-12
2.198e-12
2.528e-12
2.899e-12
3.317e-12
3.786e-12
4.311e-12
4.899e-12
5.555e-12
6.286e-12
7.101e-12
8.005e-12
9.009e-12
1.012e-11
1.135e-11
1.271e-11
1.421e-11
1.586e-11
1.768e-11
1.968e-11
2.187e-11
2.427e-11
2.69e-11
2.977e-11
3.291e-11
3.632e-11
4.002e-11
4.401e-11
4.831e-11
5.301e-11
-8.381e-63
6.668e-62
-2.368e-61
5.208e-61
-7.544e-61
7.293e-61
-4.327e-61
9.261e-62
5.376e-62
8.582e-61
-8.433e-60
1.07e-58
-1.506e-57
1.994e-56
-2.501e-55
2.999e-54
-3.472e-53
3.905e-52
-4.29e-51
4.613e-50
-4.859e-49
5.006e-48
-5.027e-47
4.902e-46
-4.58e-45
4.123e-44
-3.663e-43
3.193e-42
-2.714e-41
2.233e-40
-1.766e-39
1.327e-38
-9.357e-38
6.055e-37
-3.46e-36
1.581e-35
-3.917e-35
-2.976e-34
5.481e-33
-6.401e-32
4.939e-31
-3.506e-30
2.281e-29
-1.263e-28
6.472e-28
-3.056e-27
1.374e-26
-5.275e-26
2.136e-25
-2.774e-25
2.742e-24
1.589e-23
1.159e-22
1.06e-21
5.667e-21
4.804e-20
2.147e-19
1.128e-18
3.849e-18
1.049e-17
2.592e-17
5.989e-17
1.308e-16
2.715e-16
5.367e-16
1.013e-15
1.828e-15
3.164e-15
5.263e-15
8.432e-15
1.305e-14
1.953e-14
2.837e-14
4.006e-14
5.511e-14
7.403e-14
9.73e-14
1.254e-13
1.587e-13
1.977e-13
2.428e-13
2.944e-13
3.532e-13
4.196e-13
4.944e-13
5.784e-13
6.728e-13
7.785e-13
8.97e-13
1.03e-12
1.179e-12
1.346e-12
1.534e-12
1.744e-12
1.98e-12
2.245e-12
2.543e-12
2.876e-12
3.249e-12
3.668e-12
4.135e-12
4.658e-12
5.242e-12
5.893e-12
6.617e-12
7.424e-12
8.32e-12
9.314e-12
1.042e-11
1.164e-11
1.298e-11
1.447e-11
1.612e-11
1.793e-11
1.992e-11
2.21e-11
2.45e-11
2.713e-11
3.001e-11
3.315e-11
3.658e-11
4.032e-11
4.439e-11
4.881e-11
5.36e-11
5.878e-11
6.443e-11
7.136e-11
1.182e-61
-1.021e-60
4.491e-60
-1.322e-59
2.752e-59
-4.205e-59
4.752e-59
-3.835e-59
1.918e-59
4.242e-59
-4.07e-58
4.784e-57
-6.537e-56
8.398e-55
-1.022e-53
1.191e-52
-1.343e-51
1.475e-50
-1.586e-49
1.673e-48
-1.734e-47
1.762e-46
-1.751e-45
1.695e-44
-1.579e-43
1.428e-42
-1.275e-41
1.118e-40
-9.574e-40
7.953e-39
-6.367e-38
4.871e-37
-3.525e-36
2.377e-35
-1.46e-34
7.777e-34
-3.375e-33
4.423e-33
6.762e-32
-1.516e-30
1.272e-29
-9.557e-29
6.668e-28
-3.716e-27
1.912e-26
-9.186e-26
4.288e-25
-1.572e-24
6.327e-24
1.783e-24
1.345e-22
9.243e-22
7.084e-21
5.283e-20
2.948e-19
1.631e-18
6.02e-18
1.801e-17
4.884e-17
1.235e-16
2.938e-16
6.599e-16
1.402e-15
2.824e-15
5.401e-15
9.82e-15
1.702e-14
2.819e-14
4.473e-14
6.817e-14
1.001e-13
1.418e-13
1.947e-13
2.594e-13
3.364e-13
4.257e-13
5.268e-13
6.391e-13
7.616e-13
8.937e-13
1.035e-12
1.184e-12
1.343e-12
1.51e-12
1.688e-12
1.876e-12
2.077e-12
2.293e-12
2.526e-12
2.778e-12
3.053e-12
3.354e-12
3.685e-12
4.05e-12
4.453e-12
4.899e-12
5.393e-12
5.942e-12
6.551e-12
7.227e-12
7.978e-12
8.811e-12
9.736e-12
1.076e-11
1.19e-11
1.316e-11
1.455e-11
1.609e-11
1.778e-11
1.965e-11
2.172e-11
2.399e-11
2.648e-11
2.922e-11
3.222e-11
3.55e-11
3.91e-11
4.302e-11
4.731e-11
5.197e-11
5.704e-11
6.255e-11
6.853e-11
7.499e-11
8.197e-11
8.95e-11
9.769e-11
1.085e-10
-1.527e-60
1.391e-59
-7.097e-59
2.57e-58
-6.904e-58
1.423e-57
-2.293e-57
2.878e-57
-2.753e-57
3.169e-57
-1.82e-56
1.95e-55
-2.531e-54
3.1e-53
-3.603e-52
4.024e-51
-4.365e-50
4.632e-49
-4.832e-48
4.966e-47
-5.033e-46
5.022e-45
-4.923e-44
4.723e-43
-4.396e-42
4.003e-41
-3.602e-40
3.187e-39
-2.759e-38
2.324e-37
-1.894e-36
1.484e-35
-1.109e-34
7.833e-34
-5.166e-33
3.119e-32
-1.64e-31
6.987e-31
-1.6e-30
-8.897e-30
1.361e-28
-1.708e-27
1.443e-26
-8.502e-26
4.339e-25
-2.2e-24
1.132e-23
-3.6e-23
1.154e-22
7.697e-22
7.25e-21
5.245e-20
3.411e-19
2.071e-18
8.478e-18
2.842e-17
8.643e-17
2.445e-16
6.475e-16
1.609e-15
3.757e-15
8.256e-15
1.709e-14
3.337e-14
6.16e-14
1.077e-13
1.788e-13
2.826e-13
4.266e-13
6.169e-13
8.572e-13
1.148e-12
1.486e-12
1.865e-12
2.277e-12
2.709e-12
3.152e-12
3.594e-12
4.028e-12
4.448e-12
4.852e-12
5.241e-12
5.614e-12
5.978e-12
6.335e-12
6.692e-12
7.056e-12
7.433e-12
7.831e-12
8.257e-12
8.717e-12
9.22e-12
9.773e-12
1.038e-11
1.106e-11
1.181e-11
1.265e-11
1.358e-11
1.462e-11
1.577e-11
1.704e-11
1.846e-11
2.003e-11
2.177e-11
2.37e-11
2.582e-11
2.817e-11
3.076e-11
3.361e-11
3.675e-11
4.019e-11
4.397e-11
4.811e-11
5.265e-11
5.761e-11
6.302e-11
6.892e-11
7.535e-11
8.235e-11
8.994e-11
9.817e-11
1.071e-10
1.167e-10
1.271e-10
1.383e-10
1.503e-10
1.632e-10
1.811e-10
1.856e-59
-1.752e-58
9.957e-58
-4.222e-57
1.379e-56
-3.577e-56
7.491e-56
-1.269e-55
1.688e-55
-8.49e-56
-6.529e-55
6.956e-54
-8.395e-53
9.558e-52
-1.038e-50
1.09e-49
-1.12e-48
1.134e-47
-1.135e-46
1.127e-45
-1.109e-44
1.081e-43
-1.042e-42
9.896e-42
-9.215e-41
8.474e-40
-7.712e-39
6.916e-38
-6.084e-37
5.228e-36
-4.367e-35
3.528e-34
-2.741e-33
2.036e-32
-1.439e-31
9.562e-31
-5.785e-30
3.215e-29
-1.553e-28
6.125e-28
-1.393e-27
-4.675e-27
9.16e-26
-7.535e-25
5.444e-24
-3.639e-23
2.469e-22
-4.611e-22
4.204e-21
3.689e-20
3.024e-19
2.101e-18
9.744e-18
3.734e-17
1.3e-16
4.199e-16
1.263e-15
3.547e-15
9.301e-15
2.279e-14
5.223e-14
1.121e-13
2.254e-13
4.257e-13
7.564e-13
1.268e-12
2.01e-12
3.025e-12
4.335e-12
5.935e-12
7.79e-12
9.84e-12
1.199e-11
1.416e-11
1.625e-11
1.814e-11
1.984e-11
2.125e-11
2.238e-11
2.326e-11
2.392e-11
2.438e-11
2.47e-11
2.491e-11
2.505e-11
2.517e-11
2.529e-11
2.544e-11
2.566e-11
2.595e-11
2.634e-11
2.684e-11
2.747e-11
2.825e-11
2.918e-11
3.028e-11
3.155e-11
3.303e-11
3.471e-11
3.663e-11
3.88e-11
4.123e-11
4.395e-11
4.699e-11
5.036e-11
5.411e-11
5.824e-11
6.281e-11
6.785e-11
7.338e-11
7.946e-11
8.612e-11
9.341e-11
1.014e-10
1.101e-10
1.195e-10
1.299e-10
1.41e-10
1.532e-10
1.663e-10
1.806e-10
1.959e-10
2.124e-10
2.302e-10
2.492e-10
2.697e-10
2.914e-10
3.226e-10
-2.149e-58
2.076e-57
-1.279e-56
6.141e-56
-2.35e-55
7.35e-55
-1.908e-54
4.131e-54
-7.419e-54
1.132e-53
-3.28e-53
2.092e-52
-2.203e-51
2.243e-50
-2.209e-49
2.132e-48
-2.038e-47
1.939e-46
-1.841e-45
1.747e-44
-1.657e-43
1.568e-42
-1.478e-41
1.383e-40
-1.292e-39
1.206e-38
-1.115e-37
1.02e-36
-9.185e-36
8.132e-35
-7.033e-34
5.929e-33
-4.832e-32
3.803e-31
-2.882e-30
2.071e-29
-1.375e-28
8.703e-28
-4.979e-27
2.68e-26
-1.329e-25
5.884e-25
-2.272e-24
6.333e-24
-2.968e-24
-1.487e-22
2.768e-21
3.317e-21
1.681e-19
1.539e-18
8.382e-18
3.758e-17
1.527e-16
5.733e-16
1.997e-15
6.46e-15
1.941e-14
5.416e-14
1.404e-13
3.386e-13
7.598e-13
1.588e-12
3.095e-12
5.637e-12
9.613e-12
1.54e-11
2.326e-11
3.324e-11
4.509e-11
5.834e-11
7.218e-11
8.59e-11
9.837e-11
1.093e-10
1.176e-10
1.23e-10
1.268e-10
1.27e-10
1.259e-10
1.235e-10
1.199e-10
1.156e-10
1.108e-10
1.06e-10
1.013e-10
9.69e-11
9.291e-11
8.94e-11
8.641e-11
8.396e-11
8.205e-11
8.068e-11
7.98e-11
7.954e-11
7.979e-11
8.05e-11
8.17e-11
8.346e-11
8.577e-11
8.861e-11
9.2e-11
9.599e-11
1.006e-10
1.058e-10
1.117e-10
1.184e-10
1.258e-10
1.341e-10
1.432e-10
1.532e-10
1.643e-10
1.764e-10
1.897e-10
2.043e-10
2.201e-10
2.373e-10
2.56e-10
2.763e-10
2.983e-10
3.221e-10
3.477e-10
3.752e-10
4.049e-10
4.366e-10
4.706e-10
5.07e-10
5.453e-10
6.016e-10
2.371e-57
-2.326e-56
1.526e-55
-8.096e-55
3.535e-54
-1.296e-53
4.041e-53
-1.076e-52
2.4e-52
-4.093e-52
-1.531e-52
4.205e-51
-3.869e-50
3.245e-49
-2.791e-48
2.414e-47
-2.114e-46
1.863e-45
-1.657e-44
1.485e-43
-1.342e-42
1.216e-41
-1.105e-40
1.004e-39
-9.138e-39
8.298e-38
-7.509e-37
6.769e-36
-6.075e-35
5.431e-34
-4.762e-33
4.143e-32
-3.455e-31
2.797e-30
-2.187e-29
1.614e-28
-1.17e-27
7.976e-27
-5.301e-26
3.342e-25
-2.006e-24
1.127e-23
-6.106e-23
3.043e-22
-1.416e-21
3.071e-21
4.576e-20
5.254e-19
4.61e-18
2.669e-17
1.3e-16
5.774e-16
2.367e-15
8.976e-15
3.146e-14
1.019e-13
3.052e-13
8.448e-13
2.161e-12
5.115e-12
1.12e-11
2.274e-11
4.282e-11
7.495e-11
1.223e-10
1.867e-10
2.678e-10
3.624e-10
4.644e-10
5.668e-10
6.596e-10
7.396e-10
7.93e-10
8.312e-10
8.307e-10
8.186e-10
7.912e-10
7.51e-10
7.022e-10
6.492e-10
5.953e-10
5.429e-10
4.938e-10
4.488e-10
4.085e-10
3.73e-10
3.421e-10
3.155e-10
2.93e-10
2.741e-10
2.584e-10
2.457e-10
2.355e-10
2.277e-10
2.219e-10
2.182e-10
2.158e-10
2.159e-10
2.171e-10
2.197e-10
2.239e-10
2.295e-10
2.366e-10
2.451e-10
2.552e-10
2.668e-10
2.8e-10
2.949e-10
3.115e-10
3.301e-10
3.506e-10
3.731e-10
3.979e-10
4.25e-10
4.545e-10
4.867e-10
5.216e-10
5.595e-10
6.004e-10
6.445e-10
6.92e-10
7.431e-10
7.979e-10
8.564e-10
9.189e-10
9.857e-10
1.055e-09
1.16e-09
-2.478e-56
2.454e-55
-1.69e-54
9.748e-54
-4.763e-53
2.005e-52
-7.362e-52
2.376e-51
-6.734e-51
1.654e-50
-3.443e-50
6.213e-50
-2.025e-49
1.147e-48
-1.087e-47
7.8e-47
-6.464e-46
5.154e-45
-4.275e-44
3.645e-43
-3.35e-42
2.923e-41
-2.489e-40
1.959e-39
-1.446e-38
8.549e-38
-2.974e-37
-7.859e-37
2.077e-35
-2.783e-34
3.061e-33
-2.404e-32
2.154e-31
-1.306e-30
6.792e-30
-1.628e-29
-1.476e-28
3.194e-27
-3.587e-26
3.208e-25
-2.633e-24
1.78e-23
-1.248e-22
8.218e-22
-2.171e-21
1.621e-19
1.9e-18
1.313e-17
7.618e-17
4.03e-16
1.967e-15
8.864e-15
3.682e-14
1.409e-13
4.96e-13
1.606e-12
4.78e-12
1.309e-11
3.294e-11
7.627e-11
1.626e-10
3.194e-10
5.791e-10
9.707e-10
1.51e-09
2.189e-09
2.973e-09
3.799e-09
4.59e-09
5.28e-09
5.764e-09
6.096e-09
6.077e-09
5.939e-09
5.651e-09
5.246e-09
4.77e-09
4.265e-09
3.764e-09
3.29e-09
2.858e-09
2.474e-09
2.14e-09
1.854e-09
1.612e-09
1.409e-09
1.24e-09
1.1e-09
9.836e-10
8.883e-10
8.102e-10
7.464e-10
6.948e-10
6.533e-10
6.205e-10
5.952e-10
5.762e-10
5.631e-10
5.549e-10
5.513e-10
5.527e-10
5.572e-10
5.656e-10
5.777e-10
5.934e-10
6.126e-10
6.355e-10
6.62e-10
6.922e-10
7.263e-10
7.644e-10
8.067e-10
8.534e-10
9.046e-10
9.607e-10
1.022e-09
1.088e-09
1.16e-09
1.238e-09
1.321e-09
1.411e-09
1.508e-09
1.612e-09
1.722e-09
1.84e-09
1.965e-09
2.095e-09
2.292e-09
2.422e-55
-2.409e-54
1.725e-53
-1.066e-52
5.741e-52
-2.728e-51
1.157e-50
-4.416e-50
1.516e-49
-4.618e-49
1.194e-48
-2.288e-48
-5.503e-49
1.037e-47
-5.407e-47
-1.424e-45
8.925e-45
-7.913e-44
6.111e-43
-4.322e-42
1.825e-41
1.41e-42
-1.373e-39
2.296e-38
-2.699e-37
2.537e-36
-2.135e-35
1.608e-34
-1.448e-33
7.574e-33
-3.716e-32
9.332e-32
8.606e-31
-1.847e-29
2.211e-28
-2.153e-27
1.855e-26
-1.458e-25
1.062e-24
-7.291e-24
4.588e-23
-2.849e-22
1.669e-21
-5.822e-21
2.97e-19
3.79e-18
2.869e-17
1.843e-16
1.081e-15
5.85e-15
2.915e-14
1.335e-13
5.611e-13
2.161e-12
7.62e-12
2.459e-11
7.256e-11
1.958e-10
4.832e-10
1.091e-09
2.255e-09
4.271e-09
7.426e-09
1.187e-08
1.753e-08
2.406e-08
3.085e-08
3.712e-08
4.231e-08
4.576e-08
4.666e-08
4.579e-08
4.352e-08
4.007e-08
3.588e-08
3.138e-08
2.692e-08
2.275e-08
1.901e-08
1.577e-08
1.302e-08
1.074e-08
8.869e-09
7.351e-09
6.128e-09
5.146e-09
4.359e-09
3.73e-09
3.226e-09
2.821e-09
2.497e-09
2.236e-09
2.027e-09
1.859e-09
1.724e-09
1.618e-09
1.534e-09
1.47e-09
1.423e-09
1.39e-09
1.369e-09
1.36e-09
1.363e-09
1.374e-09
1.394e-09
1.422e-09
1.459e-09
1.505e-09
1.559e-09
1.621e-09
1.691e-09
1.771e-09
1.859e-09
1.956e-09
2.064e-09
2.181e-09
2.308e-09
2.447e-09
2.596e-09
2.757e-09
2.931e-09
3.116e-09
3.315e-09
3.527e-09
3.752e-09
3.991e-09
4.238e-09
4.616e-09
-2.166e-54
2.155e-53
-1.591e-52
1.043e-51
-6.108e-51
3.233e-50
-1.563e-49
6.966e-49
-2.874e-48
1.095e-47
-3.775e-47
1.1e-46
-2.023e-46
-9.314e-46
1.115e-44
-9.616e-44
7.384e-43
-5.448e-42
3.994e-41
-2.938e-40
2.167e-39
-1.584e-38
1.12e-37
-7.315e-37
4.373e-36
-2.101e-35
4.449e-35
6.004e-34
-1.197e-32
1.458e-31
-1.484e-30
1.362e-29
-1.16e-28
9.305e-28
-7.074e-27
5.119e-26
-3.532e-25
2.329e-24
-1.466e-23
8.785e-23
-5.07e-22
2.844e-21
-1.111e-20
4.545e-19
6.359e-18
5.288e-17
3.766e-16
2.457e-15
1.478e-14
8.177e-14
4.15e-13
1.927e-12
8.168e-12
3.157e-11
1.111e-10
3.559e-10
1.037e-09
2.748e-09
6.621e-09
1.451e-08
2.895e-08
5.263e-08
8.735e-08
1.326e-07
1.851e-07
2.397e-07
2.895e-07
3.276e-07
3.539e-07
3.518e-07
3.394e-07
3.152e-07
2.824e-07
2.452e-07
2.073e-07
1.715e-07
1.394e-07
1.118e-07
8.889e-08
7.026e-08
5.541e-08
4.374e-08
3.464e-08
2.759e-08
2.215e-08
1.795e-08
1.47e-08
1.218e-08
1.022e-08
8.693e-09
7.49e-09
6.542e-09
5.791e-09
5.194e-09
4.719e-09
4.342e-09
4.043e-09
3.808e-09
3.626e-09
3.489e-09
3.389e-09
3.322e-09
3.28e-09
3.273e-09
3.285e-09
3.317e-09
3.369e-09
3.442e-09
3.534e-09
3.644e-09
3.773e-09
3.921e-09
4.088e-09
4.274e-09
4.48e-09
4.706e-09
4.953e-09
5.221e-09
5.511e-09
5.825e-09
6.161e-09
6.522e-09
6.908e-09
7.318e-09
7.754e-09
8.218e-09
8.692e-09
9.426e-09
1.715e-53
-1.698e-52
1.283e-51
-8.83e-51
5.556e-50
-3.229e-49
1.75e-48
-8.944e-48
4.349e-47
-2.028e-46
9.123e-46
-3.973e-45
1.673e-44
-6.766e-44
2.576e-43
-8.848e-43
2.48e-42
-4.212e-42
3.166e-42
-2.178e-40
5.42e-39
-8.424e-38
1.075e-36
-1.203e-35
1.17e-34
-1.066e-33
9.256e-33
-7.725e-32
6.229e-31
-4.864e-30
3.683e-29
-2.705e-28
1.927e-27
-1.33e-26
8.894e-26
-5.751e-25
3.596e-24
-2.165e-23
1.26e-22
-7.015e-22
3.899e-21
-1.591e-20
5.722e-19
8.787e-18
8.033e-17
6.35e-16
4.613e-15
3.091e-14
1.904e-13
1.075e-12
5.536e-12
2.596e-11
1.106e-10
4.27e-10
1.493e-09
4.726e-09
1.353e-08
3.499e-08
8.182e-08
1.731e-07
3.314e-07
5.752e-07
9.067e-07
1.301e-06
1.712e-06
2.086e-06
2.369e-06
2.54e-06
2.509e-06
2.389e-06
2.179e-06
1.911e-06
1.618e-06
1.331e-06
1.068e-06
8.401e-07
6.507e-07
4.984e-07
3.79e-07
2.871e-07
2.174e-07
1.651e-07
1.261e-07
9.701e-08
7.536e-08
5.921e-08
4.71e-08
3.798e-08
3.106e-08
2.577e-08
2.17e-08
1.855e-08
1.609e-08
1.416e-08
1.264e-08
1.143e-08
1.048e-08
9.723e-09
9.13e-09
8.668e-09
8.316e-09
8.057e-09
7.875e-09
7.764e-09
7.71e-09
7.725e-09
7.78e-09
7.882e-09
8.028e-09
8.217e-09
8.448e-09
8.72e-09
9.033e-09
9.387e-09
9.783e-09
1.022e-08
1.07e-08
1.122e-08
1.179e-08
1.24e-08
1.306e-08
1.377e-08
1.452e-08
1.532e-08
1.618e-08
1.708e-08
1.8e-08
1.944e-08
-1.146e-52
1.127e-51
-8.651e-51
6.183e-50
-4.121e-49
2.581e-48
-1.533e-47
8.717e-47
-4.794e-46
2.576e-45
-1.365e-44
7.213e-44
-3.837e-43
2.078e-42
-1.157e-41
6.687e-41
-4.038e-40
2.555e-39
-1.694e-38
1.173e-37
-8.447e-37
6.287e-36
-4.819e-35
3.714e-34
-2.805e-33
2.091e-32
-1.537e-31
1.112e-30
-7.909e-30
5.524e-29
-3.784e-28
2.537e-27
-1.664e-26
1.065e-25
-6.649e-25
4.04e-24
-2.381e-23
1.371e-22
-7.541e-22
4.219e-21
-1.747e-20
5.843e-19
9.84e-18
9.88e-17
8.662e-16
7.004e-15
5.23e-14
3.592e-13
2.258e-12
1.295e-11
6.741e-11
3.177e-10
1.352e-09
5.184e-09
1.789e-08
5.555e-08
1.549e-07
3.88e-07
8.736e-07
1.769e-06
3.229e-06
5.319e-06
7.928e-06
1.071e-05
1.325e-05
1.521e-05
1.636e-05
1.611e-05
1.524e-05
1.376e-05
1.191e-05
9.916e-06
7.997e-06
6.276e-06
4.816e-06
3.63e-06
2.699e-06
1.988e-06
1.456e-06
1.064e-06
7.789e-07
5.727e-07
4.241e-07
3.17e-07
2.396e-07
1.835e-07
1.425e-07
1.123e-07
8.986e-08
7.307e-08
6.038e-08
5.069e-08
4.324e-08
3.745e-08
3.293e-08
2.938e-08
2.657e-08
2.435e-08
2.26e-08
2.122e-08
2.015e-08
1.932e-08
1.871e-08
1.828e-08
1.801e-08
1.786e-08
1.789e-08
1.799e-08
1.82e-08
1.85e-08
1.891e-08
1.94e-08
1.998e-08
2.065e-08
2.141e-08
2.225e-08
2.318e-08
2.42e-08
2.531e-08
2.652e-08
2.781e-08
2.92e-08
3.068e-08
3.226e-08
3.393e-08
3.571e-08
3.751e-08
4.033e-08
6.129e-52
-5.98e-51
4.639e-50
-3.408e-49
2.37e-48
-1.568e-47
9.948e-47
-6.096e-46
3.638e-45
-2.131e-44
1.234e-43
-7.116e-43
4.109e-42
-2.391e-41
1.409e-40
-8.461e-40
5.202e-39
-3.287e-38
2.14e-37
-1.434e-36
9.875e-36
-6.956e-35
5e-34
-3.577e-33
2.517e-32
-1.751e-31
1.203e-30
-8.156e-30
5.454e-29
-3.593e-28
2.329e-27
-1.484e-26
9.282e-26
-5.69e-25
3.415e-24
-2.002e-23
1.151e-22
-6.289e-22
3.569e-21
-1.486e-20
4.787e-19
8.818e-18
9.704e-17
9.413e-16
8.453e-15
7.025e-14
5.375e-13
3.767e-12
2.406e-11
1.394e-10
7.289e-10
3.429e-09
1.447e-08
5.46e-08
1.842e-07
5.545e-07
1.489e-06
3.572e-06
7.654e-06
1.468e-05
2.532e-05
3.934e-05
5.522e-05
7.004e-05
8.172e-05
8.945e-05
8.833e-05
8.365e-05
7.547e-05
6.506e-05
5.386e-05
4.305e-05
3.34e-05
2.528e-05
1.873e-05
1.366e-05
9.836e-06
7.025e-06
4.996e-06
3.551e-06
2.53e-06
1.814e-06
1.311e-06
9.577e-07
7.085e-07
5.315e-07
4.048e-07
3.133e-07
2.466e-07
1.973e-07
1.606e-07
1.33e-07
1.119e-07
9.574e-08
8.319e-08
7.339e-08
6.568e-08
5.96e-08
5.479e-08
5.098e-08
4.799e-08
4.566e-08
4.388e-08
4.256e-08
4.164e-08
4.105e-08
4.073e-08
4.079e-08
4.102e-08
4.148e-08
4.214e-08
4.302e-08
4.408e-08
4.534e-08
4.679e-08
4.841e-08
5.023e-08
5.222e-08
5.44e-08
5.676e-08
5.931e-08
6.205e-08
6.497e-08
6.808e-08
7.137e-08
7.487e-08
7.839e-08
8.395e-08
-2.525e-51
2.446e-50
-1.909e-49
1.429e-48
-1.023e-47
7.029e-47
-4.663e-46
3.006e-45
-1.897e-44
1.181e-43
-7.307e-43
4.518e-42
-2.805e-41
1.753e-40
-1.105e-39
7.012e-39
-4.482e-38
2.88e-37
-1.86e-36
1.207e-35
-7.868e-35
5.157e-34
-3.407e-33
2.242e-32
-1.466e-31
9.529e-31
-6.151e-30
3.938e-29
-2.498e-28
1.568e-27
-9.723e-27
5.949e-26
-3.587e-25
2.128e-24
-1.24e-23
7.105e-23
-3.916e-22
2.357e-21
-9.868e-21
3.121e-19
6.272e-18
7.539e-17
8.062e-16
8.013e-15
7.388e-14
6.285e-13
4.904e-12
3.488e-11
2.249e-10
1.307e-09
6.813e-09
3.17e-08
1.312e-07
4.814e-07
1.564e-06
4.495e-06
1.144e-05
2.589e-05
5.199e-05
9.311e-05
0.0001503
0.0002189
0.0002885
0.0003431
0.0003887
0.0003876
0.0003718
0.0003388
0.0002947
0.0002458
0.0001975
0.0001536
0.0001162
8.588e-05
6.223e-05
4.438e-05
3.128e-05
2.187e-05
1.524e-05
1.062e-05
7.423e-06
5.223e-06
3.71e-06
2.666e-06
1.941e-06
1.435e-06
1.078e-06
8.231e-07
6.397e-07
5.061e-07
4.074e-07
3.338e-07
2.783e-07
2.358e-07
2.032e-07
1.777e-07
1.578e-07
1.421e-07
1.297e-07
1.199e-07
1.121e-07
1.06e-07
1.013e-07
9.766e-08
9.5e-08
9.316e-08
9.203e-08
9.149e-08
9.168e-08
9.228e-08
9.334e-08
9.484e-08
9.678e-08
9.913e-08
1.019e-07
1.05e-07
1.085e-07
1.124e-07
1.167e-07
1.213e-07
1.264e-07
1.317e-07
1.375e-07
1.437e-07
1.502e-07
1.571e-07
1.64e-07
1.75e-07
7.867e-51
-7.651e-50
6.015e-49
-4.557e-48
3.315e-47
-2.317e-46
1.557e-45
-1.008e-44
6.301e-44
-3.808e-43
2.232e-42
-1.273e-41
7.101e-41
-3.897e-40
2.124e-39
-1.167e-38
6.573e-38
-3.878e-37
2.434e-36
-1.63e-35
1.155e-34
-8.487e-34
6.386e-33
-4.706e-32
3.369e-31
-2.353e-30
1.609e-29
-1.079e-28
7.11e-28
-4.604e-27
2.931e-26
-1.835e-25
1.13e-24
-6.842e-24
4.073e-23
-2.368e-22
1.418e-21
-5.2e-21
1.593e-19
3.518e-18
4.612e-17
5.412e-16
5.925e-15
6.037e-14
5.689e-13
4.928e-12
3.898e-11
2.796e-10
1.806e-09
1.044e-08
5.371e-08
2.443e-07
9.786e-07
3.437e-06
1.056e-05
2.839e-05
6.729e-05
0.0001412
0.0002608
0.0004296
0.0006431
0.0008732
0.001075
0.001223
0.001291
0.00126
0.001173
0.001041
0.0008876
0.0007296
0.0005792
0.0004459
0.0003342
0.0002448
0.0001758
0.0001241
8.657e-05
5.988e-05
4.125e-05
2.841e-05
1.964e-05
1.366e-05
9.601e-06
6.827e-06
4.922e-06
3.604e-06
2.683e-06
2.033e-06
1.567e-06
1.231e-06
9.84e-07
8.009e-07
6.634e-07
5.589e-07
4.787e-07
4.165e-07
3.679e-07
3.297e-07
2.994e-07
2.754e-07
2.564e-07
2.413e-07
2.295e-07
2.204e-07
2.135e-07
2.085e-07
2.052e-07
2.031e-07
2.027e-07
2.033e-07
2.049e-07
2.075e-07
2.109e-07
2.153e-07
2.205e-07
2.265e-07
2.334e-07
2.409e-07
2.493e-07
2.584e-07
2.683e-07
2.79e-07
2.904e-07
3.025e-07
3.153e-07
3.289e-07
3.425e-07
3.642e-07
-2.548e-50
2.294e-49
-1.745e-48
1.341e-47
-1.029e-46
7.847e-46
-5.909e-45
4.378e-44
-3.182e-43
2.267e-42
-1.584e-41
1.087e-40
-7.328e-40
4.868e-39
-3.191e-38
2.068e-37
-1.327e-36
8.442e-36
-5.333e-35
3.347e-34
-2.088e-33
1.295e-32
-7.988e-32
4.891e-31
-2.973e-30
1.795e-29
-1.075e-28
6.396e-28
-3.776e-27
2.212e-26
-1.285e-25
7.404e-25
-4.229e-24
2.395e-23
-1.34e-22
7.631e-22
-3.355e-21
4.767e-20
1.51e-18
2.215e-17
2.847e-16
3.415e-15
3.824e-14
3.975e-13
3.809e-12
3.34e-11
2.661e-10
1.91e-09
1.226e-08
6.984e-08
3.505e-07
1.539e-06
5.872e-06
1.939e-05
5.52e-05
0.0001359
0.0002948
0.0005641
0.0009443
0.001413
0.001944
0.002463
0.002844
0.003098
0.003087
0.002976
0.00273
0.002404
0.002056
0.001702
0.001361
0.001055
0.0007961
0.0005866
0.0004229
0.0002993
0.0002089
0.0001443
9.917e-05
6.809e-05
4.688e-05
3.249e-05
2.273e-05
1.61e-05
1.156e-05
8.429e-06
6.251e-06
4.718e-06
3.625e-06
2.837e-06
2.261e-06
1.835e-06
1.516e-06
1.273e-06
1.088e-06
9.437e-07
8.314e-07
7.429e-07
6.729e-07
6.173e-07
5.731e-07
5.379e-07
5.102e-07
4.885e-07
4.719e-07
4.596e-07
4.509e-07
4.456e-07
4.424e-07
4.43e-07
4.452e-07
4.495e-07
4.557e-07
4.638e-07
4.737e-07
4.853e-07
4.985e-07
5.133e-07
5.297e-07
5.476e-07
5.671e-07
5.881e-07
6.105e-07
6.344e-07
6.597e-07
6.866e-07
7.134e-07
7.561e-07
-8.401e-50
8.206e-49
-6.544e-48
5.077e-47
-3.812e-46
2.773e-45
-1.956e-44
1.341e-43
-8.952e-43
5.841e-42
-3.737e-41
2.353e-40
-1.464e-39
9.039e-39
-5.559e-38
3.418e-37
-2.109e-36
1.31e-35
-8.199e-35
5.182e-34
-3.307e-33
2.131e-32
-1.384e-31
8.947e-31
-5.734e-30
3.645e-29
-2.3e-28
1.44e-27
-8.948e-27
5.521e-26
-3.382e-25
2.057e-24
-1.243e-23
7.455e-23
-4.416e-22
2.726e-21
-1.025e-20
3.31e-19
8.098e-18
1.176e-16
1.54e-15
1.884e-14
2.149e-13
2.268e-12
2.198e-11
1.94e-10
1.546e-09
1.102e-08
6.968e-08
3.871e-07
1.873e-06
7.824e-06
2.801e-05
8.54e-05
0.0002208
0.0004896
0.0009581
0.001649
0.002514
0.003375
0.004231
0.005185
0.00562
0.005627
0.005523
0.005284
0.004846
0.00436
0.00382
0.003225
0.002624
0.002072
0.001594
0.001196
0.0008753
0.0006272
0.0004419
0.0003077
0.0002127
0.0001467
0.0001013
7.041e-05
4.936e-05
3.5e-05
2.516e-05
1.837e-05
1.364e-05
1.03e-05
7.922e-06
6.204e-06
4.947e-06
4.016e-06
3.318e-06
2.788e-06
2.382e-06
2.066e-06
1.82e-06
1.626e-06
1.472e-06
1.349e-06
1.251e-06
1.173e-06
1.111e-06
1.063e-06
1.025e-06
9.965e-07
9.759e-07
9.628e-07
9.533e-07
9.533e-07
9.563e-07
9.634e-07
9.746e-07
9.897e-07
1.009e-06
1.031e-06
1.057e-06
1.085e-06
1.118e-06
1.153e-06
1.191e-06
1.232e-06
1.277e-06
1.324e-06
1.374e-06
1.427e-06
1.479e-06
1.563e-06
1.955e-49
-1.796e-48
1.381e-47
-1.061e-46
8.077e-46
-6.072e-45
4.498e-44
-3.277e-43
2.346e-42
-1.649e-41
1.139e-40
-7.73e-40
5.163e-39
-3.397e-38
2.205e-37
-1.414e-36
8.972e-36
-5.639e-35
3.514e-34
-2.174e-33
1.336e-32
-8.166e-32
4.962e-31
-2.993e-30
1.795e-29
-1.071e-28
6.362e-28
-3.763e-27
2.217e-26
-1.302e-25
7.626e-25
-4.455e-24
2.598e-23
-1.509e-22
9.016e-22
-4.037e-21
7.352e-20
2.426e-18
3.864e-17
5.476e-16
7.277e-15
9.052e-14
1.047e-12
1.116e-11
1.088e-10
9.613e-10
7.616e-09
5.355e-08
3.306e-07
1.773e-06
8.173e-06
3.206e-05
0.000106
0.0002941
0.0006812
0.00135
0.002347
0.003623
0.005284
0.006227
0.007088
0.01013
0.01038
0.01037
0.01037
0.01033
0.009801
0.007138
0.006079
0.005176
0.004323
0.0035
0.002763
0.002123
0.001587
0.001158
0.0008288
0.0005852
0.0004095
0.0002855
0.0001992
0.0001396
9.859e-05
7.04e-05
5.093e-05
3.74e-05
2.792e-05
2.12e-05
1.638e-05
1.288e-05
1.031e-05
8.404e-06
6.967e-06
5.872e-06
5.029e-06
4.374e-06
3.86e-06
3.454e-06
3.131e-06
2.873e-06
2.667e-06
2.502e-06
2.37e-06
2.266e-06
2.186e-06
2.124e-06
2.079e-06
2.049e-06
2.029e-06
2.023e-06
2.028e-06
2.04e-06
2.061e-06
2.09e-06
2.126e-06
2.169e-06
2.219e-06
2.276e-06
2.339e-06
2.409e-06
2.484e-06
2.565e-06
2.652e-06
2.745e-06
2.843e-06
2.947e-06
3.051e-06
3.216e-06
3.771e-49
-3.68e-48
2.954e-47
-2.322e-46
1.776e-45
-1.322e-44
9.587e-44
-6.775e-43
4.675e-42
-3.157e-41
2.091e-40
-1.362e-39
8.755e-39
-5.566e-38
3.509e-37
-2.2e-36
1.375e-35
-8.586e-35
5.363e-34
-3.357e-33
2.107e-32
-1.328e-31
8.388e-31
-5.277e-30
3.299e-29
-2.052e-28
1.271e-27
-7.844e-27
4.827e-26
-2.965e-25
1.818e-24
-1.115e-23
6.836e-23
-4.174e-22
2.69e-21
-9.966e-21
3.678e-19
9.794e-18
1.549e-16
2.226e-15
3.001e-14
3.78e-13
4.414e-12
4.736e-11
4.626e-10
4.07e-09
3.188e-08
2.196e-07
1.313e-06
6.735e-06
2.925e-05
0.0001064
0.0003211
0.0008017
0.001659
0.002964
0.004474
0.006342
0.009824
0.01045
0.01049
0.01882
0.01206
0.01583
0.01246
0.01532
0.01616
0.0105
0.01039
0.009645
0.006881
0.005433
0.004335
0.00339
0.002581
0.001918
0.001398
0.001004
0.0007147
0.0005061
0.0003582
0.0002545
0.000182
0.0001315
9.619e-05
7.137e-05
5.378e-05
4.12e-05
3.21e-05
2.545e-05
2.053e-05
1.684e-05
1.405e-05
1.191e-05
1.025e-05
8.958e-06
7.938e-06
7.129e-06
6.484e-06
5.966e-06
5.551e-06
5.218e-06
4.952e-06
4.741e-06
4.576e-06
4.45e-06
4.357e-06
4.293e-06
4.254e-06
4.238e-06
4.246e-06
4.269e-06
4.308e-06
4.364e-06
4.435e-06
4.52e-06
4.619e-06
4.73e-06
4.855e-06
4.991e-06
5.14e-06
5.3e-06
5.471e-06
5.653e-06
5.846e-06
6.05e-06
6.253e-06
6.577e-06
-6.859e-49
6.306e-48
-4.851e-47
3.73e-46
-2.841e-45
2.137e-44
-1.585e-43
1.157e-42
-8.301e-42
5.854e-41
-4.056e-40
2.763e-39
-1.851e-38
1.221e-37
-7.934e-37
5.086e-36
-3.22e-35
2.016e-34
-1.249e-33
7.673e-33
-4.675e-32
2.83e-31
-1.7e-30
1.015e-29
-6.031e-29
3.575e-28
-2.115e-27
1.25e-26
-7.394e-26
4.377e-25
-2.597e-24
1.547e-23
-9.231e-23
5.682e-22
-2.641e-21
6.034e-20
2.057e-18
3.536e-17
5.455e-16
7.922e-15
1.08e-13
1.374e-12
1.615e-11
1.738e-10
1.694e-09
1.478e-08
1.139e-07
7.647e-07
4.402e-06
2.14e-05
8.67e-05
0.0002893
0.0007886
0.001762
0.00331
0.00555
0.006997
0.01017
0.01079
0.01353
0.01227
0.009985
0.009975
0.009973
0.009973
0.009974
0.01002
0.0109
0.01112
0.01157
0.0103
0.007554
0.006147
0.004957
0.003845
0.002904
0.002153
0.001575
0.001143
0.0008245
0.0005943
0.0004296
0.0003124
0.0002293
0.0001703
0.0001281
9.784e-05
7.59e-05
5.984e-05
4.797e-05
3.909e-05
3.238e-05
2.725e-05
2.329e-05
2.02e-05
1.777e-05
1.585e-05
1.431e-05
1.308e-05
1.209e-05
1.129e-05
1.065e-05
1.013e-05
9.726e-06
9.407e-06
9.163e-06
8.983e-06
8.861e-06
8.783e-06
8.756e-06
8.773e-06
8.821e-06
8.901e-06
9.012e-06
9.153e-06
9.322e-06
9.518e-06
9.739e-06
9.985e-06
1.025e-05
1.055e-05
1.086e-05
1.12e-05
1.156e-05
1.193e-05
1.233e-05
1.272e-05
1.335e-05
-1.435e-48
1.353e-47
-1.062e-46
8.292e-46
-6.38e-45
4.829e-44
-3.589e-43
2.617e-42
-1.872e-41
1.314e-40
-9.049e-40
6.122e-39
-4.073e-38
2.668e-37
-1.723e-36
1.099e-35
-6.927e-35
4.323e-34
-2.675e-33
1.643e-32
-1.003e-31
6.09e-31
-3.686e-30
2.225e-29
-1.338e-28
8.039e-28
-4.826e-27
2.9e-26
-1.747e-25
1.056e-24
-6.415e-24
3.925e-23
-2.413e-22
1.552e-21
-7.085e-21
1.797e-19
6.242e-18
1.082e-16
1.687e-15
2.475e-14
3.406e-13
4.359e-12
5.144e-11
5.537e-10
5.373e-09
4.636e-08
3.505e-07
2.282e-06
1.258e-05
5.757e-05
0.0002156
0.0006542
0.001598
0.003183
0.005696
0.009693
0.0105
0.01122
0.01008
0.009975
0.009971
0.009969
0.009969
0.009969
0.009969
0.009969
0.009969
0.00997
0.009973
0.01014
0.01082
0.01051
0.00993
0.007098
0.005374
0.004077
0.003068
0.002288
0.001693
0.001247
0.0009173
0.0006766
0.0005018
0.0003754
0.0002839
0.0002174
0.0001688
0.000133
0.0001064
8.652e-05
7.143e-05
5.989e-05
5.098e-05
4.402e-05
3.855e-05
3.422e-05
3.075e-05
2.798e-05
2.574e-05
2.393e-05
2.246e-05
2.128e-05
2.034e-05
1.959e-05
1.9e-05
1.856e-05
1.823e-05
1.802e-05
1.787e-05
1.786e-05
1.79e-05