/*--------------------------------*- C++ -*----------------------------------*\
  =========                 |
  \\      /  F ield         | OpenFOAM: The Open Source CFD Toolbox
   \\    /   O peration     | Website:  https://openfoam.org
    \\  /    A nd           | Version:  7
     \\/     M anipulation  |
\*---------------------------------------------------------------------------*/
FoamFile
{
    version     2.0;
    format      ascii;
    class       volScalarField;
    location    "1019.9994734106026";
    object      p;
}
// * * * * * * * * * * * * * * * * * * * * * * * * * * * * * * * * * * * * * //

dimensions      [0 2 -2 0 0 0 0];

internalField   nonuniform List<scalar> 
4096
(
0.0006264
0.0004555
0.0003712
0.0003291
0.0003057
0.0002918
0.0002829
0.0002768
0.0002725
0.0002692
0.0002666
0.0002646
0.000263
0.0002616
0.0002604
0.0002594
0.0002586
0.0002578
0.000257
0.0002564
0.0002558
0.0002552
0.0002547
0.0002541
0.0002536
0.0002531
0.0002527
0.0002522
0.0002517
0.0002512
0.0002507
0.0002501
0.0002496
0.000249
0.0002484
0.0002477
0.000247
0.0002462
0.0002453
0.0002443
0.0002432
0.000242
0.0002406
0.000239
0.0002372
0.0002352
0.0002329
0.0002304
0.0002275
0.0002243
0.0002207
0.0002167
0.0002123
0.0002074
0.0002021
0.0001964
0.0001903
0.0001837
0.0001767
0.0001694
0.0001618
0.000154
0.000146
0.0001379
0.0001297
0.0001216
0.0001137
0.0001059
9.836e-05
9.113e-05
8.423e-05
7.77e-05
7.156e-05
6.582e-05
6.049e-05
5.556e-05
5.104e-05
4.691e-05
4.315e-05
3.975e-05
3.669e-05
3.394e-05
3.148e-05
2.928e-05
2.732e-05
2.558e-05
2.403e-05
2.265e-05
2.142e-05
2.032e-05
1.933e-05
1.844e-05
1.763e-05
1.689e-05
1.621e-05
1.557e-05
1.497e-05
1.441e-05
1.387e-05
1.336e-05
1.285e-05
1.237e-05
1.189e-05
1.141e-05
1.095e-05
1.048e-05
1.002e-05
9.556e-06
9.092e-06
8.627e-06
8.161e-06
7.692e-06
7.221e-06
6.747e-06
6.27e-06
5.789e-06
5.305e-06
4.818e-06
4.327e-06
3.833e-06
3.336e-06
2.836e-06
2.335e-06
1.835e-06
1.339e-06
8.558e-07
3.996e-07
5.975e-08
0.0004819
0.0004181
0.0003684
0.0003363
0.0003154
0.0003011
0.0002911
0.0002838
0.0002783
0.000274
0.0002707
0.0002681
0.0002659
0.0002641
0.0002625
0.0002612
0.00026
0.000259
0.0002581
0.0002572
0.0002564
0.0002557
0.000255
0.0002544
0.0002537
0.0002531
0.0002525
0.0002519
0.0002513
0.0002507
0.00025
0.0002494
0.0002487
0.000248
0.0002472
0.0002464
0.0002455
0.0002446
0.0002435
0.0002424
0.0002412
0.0002398
0.0002382
0.0002365
0.0002346
0.0002324
0.00023
0.0002274
0.0002244
0.0002211
0.0002175
0.0002135
0.0002091
0.0002043
0.0001992
0.0001936
0.0001877
0.0001813
0.0001746
0.0001677
0.0001604
0.0001529
0.0001453
0.0001376
0.0001299
0.0001222
0.0001146
0.0001072
0.0001
9.309e-05
8.647e-05
8.017e-05
7.422e-05
6.864e-05
6.343e-05
5.858e-05
5.411e-05
4.999e-05
4.622e-05
4.278e-05
3.966e-05
3.682e-05
3.427e-05
3.196e-05
2.989e-05
2.802e-05
2.634e-05
2.483e-05
2.347e-05
2.223e-05
2.111e-05
2.01e-05
1.916e-05
1.83e-05
1.751e-05
1.677e-05
1.607e-05
1.541e-05
1.479e-05
1.419e-05
1.361e-05
1.305e-05
1.251e-05
1.197e-05
1.145e-05
1.094e-05
1.043e-05
9.923e-06
9.421e-06
8.922e-06
8.424e-06
7.928e-06
7.431e-06
6.935e-06
6.437e-06
5.939e-06
5.44e-06
4.939e-06
4.437e-06
3.934e-06
3.429e-06
2.924e-06
2.42e-06
1.918e-06
1.42e-06
9.33e-07
4.637e-07
8.632e-08
0.0003984
0.0003768
0.0003513
0.0003305
0.000315
0.0003033
0.0002943
0.0002873
0.0002817
0.0002773
0.0002737
0.0002707
0.0002682
0.0002661
0.0002643
0.0002627
0.0002613
0.0002601
0.000259
0.000258
0.000257
0.0002562
0.0002553
0.0002546
0.0002538
0.0002531
0.0002523
0.0002516
0.0002509
0.0002501
0.0002494
0.0002486
0.0002478
0.000247
0.0002461
0.0002451
0.0002441
0.0002431
0.0002419
0.0002406
0.0002392
0.0002377
0.000236
0.0002342
0.0002321
0.0002299
0.0002274
0.0002247
0.0002216
0.0002183
0.0002146
0.0002107
0.0002063
0.0002016
0.0001966
0.0001912
0.0001854
0.0001793
0.0001728
0.0001661
0.0001592
0.000152
0.0001447
0.0001374
0.00013
0.0001226
0.0001154
0.0001083
0.0001014
9.478e-05
8.84e-05
8.232e-05
7.656e-05
7.112e-05
6.603e-05
6.127e-05
5.685e-05
5.276e-05
4.899e-05
4.553e-05
4.236e-05
3.947e-05
3.684e-05
3.444e-05
3.227e-05
3.03e-05
2.851e-05
2.688e-05
2.54e-05
2.405e-05
2.282e-05
2.168e-05
2.064e-05
1.967e-05
1.877e-05
1.793e-05
1.714e-05
1.64e-05
1.569e-05
1.501e-05
1.436e-05
1.373e-05
1.313e-05
1.253e-05
1.196e-05
1.139e-05
1.084e-05
1.029e-05
9.755e-06
9.222e-06
8.693e-06
8.168e-06
7.647e-06
7.128e-06
6.61e-06
6.094e-06
5.579e-06
5.065e-06
4.551e-06
4.037e-06
3.524e-06
3.012e-06
2.501e-06
1.992e-06
1.487e-06
9.875e-07
4.975e-07
9.055e-08
0.0003537
0.0003466
0.0003333
0.0003201
0.0003092
0.0003005
0.0002933
0.0002875
0.0002826
0.0002785
0.000275
0.000272
0.0002695
0.0002673
0.0002654
0.0002637
0.0002622
0.0002609
0.0002596
0.0002585
0.0002575
0.0002565
0.0002556
0.0002547
0.0002538
0.000253
0.0002522
0.0002513
0.0002505
0.0002497
0.0002488
0.0002479
0.000247
0.0002461
0.0002451
0.0002441
0.0002429
0.0002418
0.0002405
0.0002391
0.0002376
0.000236
0.0002342
0.0002322
0.0002301
0.0002278
0.0002252
0.0002224
0.0002194
0.000216
0.0002124
0.0002084
0.0002041
0.0001995
0.0001945
0.0001892
0.0001836
0.0001777
0.0001714
0.0001649
0.0001582
0.0001513
0.0001443
0.0001372
0.00013
0.000123
0.000116
0.0001091
0.0001025
9.607e-05
8.989e-05
8.399e-05
7.838e-05
7.308e-05
6.808e-05
6.341e-05
5.904e-05
5.499e-05
5.123e-05
4.776e-05
4.458e-05
4.165e-05
3.897e-05
3.651e-05
3.427e-05
3.222e-05
3.035e-05
2.863e-05
2.706e-05
2.562e-05
2.429e-05
2.307e-05
2.193e-05
2.088e-05
1.989e-05
1.897e-05
1.81e-05
1.728e-05
1.65e-05
1.575e-05
1.504e-05
1.435e-05
1.369e-05
1.305e-05
1.242e-05
1.182e-05
1.122e-05
1.064e-05
1.007e-05
9.501e-06
8.944e-06
8.394e-06
7.85e-06
7.31e-06
6.774e-06
6.241e-06
5.711e-06
5.184e-06
4.658e-06
4.134e-06
3.611e-06
3.09e-06
2.57e-06
2.052e-06
1.536e-06
1.023e-06
5.128e-07
8.709e-08
0.0003267
0.0003258
0.0003188
0.0003102
0.0003024
0.0002959
0.0002904
0.0002857
0.0002816
0.0002781
0.000275
0.0002723
0.0002699
0.0002678
0.0002659
0.0002642
0.0002627
0.0002613
0.00026
0.0002589
0.0002577
0.0002567
0.0002557
0.0002547
0.0002538
0.0002529
0.000252
0.0002511
0.0002502
0.0002492
0.0002483
0.0002474
0.0002464
0.0002453
0.0002443
0.0002431
0.0002419
0.0002406
0.0002393
0.0002378
0.0002362
0.0002345
0.0002327
0.0002306
0.0002285
0.0002261
0.0002235
0.0002206
0.0002176
0.0002142
0.0002106
0.0002066
0.0002024
0.0001978
0.000193
0.0001878
0.0001822
0.0001764
0.0001703
0.000164
0.0001575
0.0001507
0.0001439
0.000137
0.0001301
0.0001232
0.0001164
0.0001097
0.0001033
9.702e-05
9.101e-05
8.525e-05
7.977e-05
7.457e-05
6.967e-05
6.506e-05
6.075e-05
5.673e-05
5.3e-05
4.954e-05
4.635e-05
4.34e-05
4.069e-05
3.82e-05
3.591e-05
3.381e-05
3.187e-05
3.01e-05
2.846e-05
2.695e-05
2.555e-05
2.425e-05
2.304e-05
2.192e-05
2.086e-05
1.987e-05
1.893e-05
1.805e-05
1.721e-05
1.641e-05
1.564e-05
1.49e-05
1.419e-05
1.351e-05
1.284e-05
1.219e-05
1.156e-05
1.095e-05
1.034e-05
9.753e-06
9.171e-06
8.599e-06
8.033e-06
7.475e-06
6.922e-06
6.375e-06
5.831e-06
5.291e-06
4.755e-06
4.221e-06
3.689e-06
3.158e-06
2.629e-06
2.101e-06
1.575e-06
1.048e-06
5.222e-07
8.312e-08
0.0003094
0.0003109
0.0003076
0.0003019
0.0002962
0.0002912
0.0002868
0.0002831
0.0002798
0.0002768
0.0002742
0.0002718
0.0002697
0.0002678
0.000266
0.0002644
0.0002629
0.0002615
0.0002602
0.000259
0.0002579
0.0002568
0.0002557
0.0002547
0.0002537
0.0002527
0.0002518
0.0002508
0.0002499
0.0002489
0.0002479
0.0002469
0.0002458
0.0002447
0.0002436
0.0002423
0.0002411
0.0002397
0.0002383
0.0002368
0.0002351
0.0002334
0.0002315
0.0002294
0.0002272
0.0002247
0.0002221
0.0002193
0.0002162
0.0002128
0.0002092
0.0002053
0.0002011
0.0001966
0.0001918
0.0001867
0.0001812
0.0001755
0.0001695
0.0001633
0.0001569
0.0001503
0.0001436
0.0001368
0.00013
0.0001233
0.0001166
0.0001101
0.0001038
9.768e-05
9.179e-05
8.615e-05
8.077e-05
7.566e-05
7.083e-05
6.629e-05
6.203e-05
5.805e-05
5.434e-05
5.089e-05
4.77e-05
4.475e-05
4.203e-05
3.952e-05
3.72e-05
3.507e-05
3.309e-05
3.127e-05
2.959e-05
2.802e-05
2.657e-05
2.522e-05
2.396e-05
2.278e-05
2.167e-05
2.062e-05
1.964e-05
1.87e-05
1.781e-05
1.696e-05
1.615e-05
1.537e-05
1.462e-05
1.39e-05
1.32e-05
1.252e-05
1.186e-05
1.121e-05
1.059e-05
9.971e-06
9.368e-06
8.776e-06
8.193e-06
7.619e-06
7.052e-06
6.491e-06
5.936e-06
5.385e-06
4.839e-06
4.295e-06
3.755e-06
3.216e-06
2.679e-06
2.143e-06
1.606e-06
1.069e-06
5.297e-07
8.024e-08
0.0002975
0.0002999
0.0002987
0.000295
0.0002908
0.0002869
0.0002834
0.0002803
0.0002776
0.0002751
0.0002729
0.0002709
0.000269
0.0002673
0.0002657
0.0002641
0.0002627
0.0002614
0.0002601
0.000259
0.0002578
0.0002567
0.0002557
0.0002546
0.0002536
0.0002526
0.0002516
0.0002506
0.0002496
0.0002486
0.0002475
0.0002464
0.0002453
0.0002442
0.000243
0.0002417
0.0002404
0.000239
0.0002375
0.000236
0.0002343
0.0002325
0.0002305
0.0002285
0.0002262
0.0002238
0.0002211
0.0002183
0.0002152
0.0002119
0.0002083
0.0002044
0.0002002
0.0001958
0.000191
0.0001859
0.0001806
0.0001749
0.000169
0.0001629
0.0001565
0.00015
0.0001433
0.0001366
0.0001299
0.0001233
0.0001167
0.0001103
0.0001041
9.808e-05
9.228e-05
8.672e-05
8.142e-05
7.638e-05
7.161e-05
6.712e-05
6.29e-05
5.895e-05
5.527e-05
5.185e-05
4.867e-05
4.573e-05
4.301e-05
4.049e-05
3.816e-05
3.601e-05
3.402e-05
3.217e-05
3.045e-05
2.886e-05
2.737e-05
2.598e-05
2.468e-05
2.346e-05
2.231e-05
2.123e-05
2.02e-05
1.922e-05
1.83e-05
1.741e-05
1.656e-05
1.575e-05
1.497e-05
1.422e-05
1.349e-05
1.278e-05
1.21e-05
1.143e-05
1.078e-05
1.015e-05
9.531e-06
8.922e-06
8.325e-06
7.737e-06
7.158e-06
6.587e-06
6.022e-06
5.462e-06
4.908e-06
4.357e-06
3.809e-06
3.264e-06
2.72e-06
2.176e-06
1.632e-06
1.087e-06
5.369e-07
7.905e-08
0.0002889
0.0002916
0.0002915
0.0002893
0.0002862
0.0002831
0.0002802
0.0002777
0.0002754
0.0002733
0.0002714
0.0002697
0.000268
0.0002665
0.0002651
0.0002637
0.0002624
0.0002611
0.0002599
0.0002588
0.0002577
0.0002566
0.0002555
0.0002545
0.0002535
0.0002524
0.0002514
0.0002504
0.0002494
0.0002483
0.0002472
0.0002461
0.000245
0.0002438
0.0002426
0.0002413
0.0002399
0.0002385
0.000237
0.0002354
0.0002337
0.0002319
0.0002299
0.0002278
0.0002256
0.0002231
0.0002205
0.0002177
0.0002146
0.0002113
0.0002077
0.0002038
0.0001997
0.0001953
0.0001905
0.0001855
0.0001802
0.0001746
0.0001687
0.0001626
0.0001562
0.0001498
0.0001431
0.0001365
0.0001298
0.0001232
0.0001167
0.0001104
0.0001042
9.824e-05
9.25e-05
8.7e-05
8.175e-05
7.676e-05
7.203e-05
6.758e-05
6.339e-05
5.948e-05
5.582e-05
5.242e-05
4.927e-05
4.634e-05
4.363e-05
4.112e-05
3.88e-05
3.665e-05
3.465e-05
3.279e-05
3.106e-05
2.945e-05
2.795e-05
2.653e-05
2.521e-05
2.396e-05
2.279e-05
2.167e-05
2.062e-05
1.962e-05
1.866e-05
1.775e-05
1.688e-05
1.604e-05
1.524e-05
1.446e-05
1.371e-05
1.299e-05
1.228e-05
1.16e-05
1.094e-05
1.029e-05
9.654e-06
9.034e-06
8.426e-06
7.828e-06
7.24e-06
6.66e-06
6.088e-06
5.522e-06
4.961e-06
4.405e-06
3.852e-06
3.301e-06
2.752e-06
2.204e-06
1.654e-06
1.102e-06
5.445e-07
7.982e-08
0.0002824
0.0002851
0.0002857
0.0002844
0.0002823
0.0002798
0.0002774
0.0002753
0.0002733
0.0002715
0.0002699
0.0002684
0.000267
0.0002656
0.0002643
0.0002631
0.0002619
0.0002607
0.0002596
0.0002585
0.0002574
0.0002564
0.0002553
0.0002543
0.0002533
0.0002523
0.0002513
0.0002502
0.0002492
0.0002481
0.000247
0.0002459
0.0002447
0.0002436
0.0002423
0.000241
0.0002396
0.0002382
0.0002367
0.0002351
0.0002334
0.0002315
0.0002296
0.0002275
0.0002252
0.0002228
0.0002202
0.0002174
0.0002143
0.000211
0.0002075
0.0002037
0.0001995
0.0001951
0.0001904
0.0001854
0.0001801
0.0001745
0.0001686
0.0001625
0.0001561
0.0001496
0.000143
0.0001363
0.0001296
0.000123
0.0001166
0.0001102
0.0001041
9.817e-05
9.246e-05
8.699e-05
8.177e-05
7.681e-05
7.211e-05
6.768e-05
6.352e-05
5.963e-05
5.6e-05
5.263e-05
4.95e-05
4.66e-05
4.392e-05
4.143e-05
3.912e-05
3.698e-05
3.5e-05
3.315e-05
3.142e-05
2.981e-05
2.83e-05
2.688e-05
2.554e-05
2.429e-05
2.31e-05
2.197e-05
2.09e-05
1.988e-05
1.891e-05
1.798e-05
1.709e-05
1.624e-05
1.542e-05
1.462e-05
1.386e-05
1.312e-05
1.241e-05
1.171e-05
1.104e-05
1.038e-05
9.737e-06
9.109e-06
8.493e-06
7.888e-06
7.294e-06
6.709e-06
6.132e-06
5.562e-06
4.997e-06
4.437e-06
3.881e-06
3.328e-06
2.776e-06
2.224e-06
1.671e-06
1.115e-06
5.53e-07
8.276e-08
0.0002773
0.0002799
0.0002808
0.0002803
0.0002788
0.0002769
0.000275
0.0002731
0.0002714
0.0002699
0.0002685
0.0002671
0.0002659
0.0002647
0.0002635
0.0002624
0.0002613
0.0002602
0.0002592
0.0002581
0.0002571
0.0002561
0.0002551
0.0002541
0.0002531
0.0002521
0.0002511
0.0002501
0.0002491
0.000248
0.0002469
0.0002458
0.0002446
0.0002434
0.0002422
0.0002409
0.0002395
0.0002381
0.0002366
0.000235
0.0002333
0.0002315
0.0002295
0.0002275
0.0002252
0.0002228
0.0002203
0.0002175
0.0002144
0.0002112
0.0002076
0.0002038
0.0001997
0.0001953
0.0001906
0.0001856
0.0001802
0.0001746
0.0001687
0.0001625
0.0001562
0.0001496
0.0001429
0.0001362
0.0001294
0.0001228
0.0001163
0.0001099
0.0001038
9.787e-05
9.217e-05
8.67e-05
8.148e-05
7.652e-05
7.183e-05
6.741e-05
6.327e-05
5.94e-05
5.581e-05
5.247e-05
4.938e-05
4.651e-05
4.387e-05
4.141e-05
3.914e-05
3.703e-05
3.507e-05
3.324e-05
3.153e-05
2.994e-05
2.843e-05
2.702e-05
2.569e-05
2.443e-05
2.324e-05
2.211e-05
2.103e-05
2.001e-05
1.903e-05
1.809e-05
1.72e-05
1.633e-05
1.551e-05
1.471e-05
1.394e-05
1.319e-05
1.247e-05
1.177e-05
1.109e-05
1.043e-05
9.778e-06
9.145e-06
8.525e-06
7.918e-06
7.32e-06
6.733e-06
6.153e-06
5.581e-06
5.015e-06
4.454e-06
3.897e-06
3.343e-06
2.79e-06
2.238e-06
1.684e-06
1.126e-06
5.626e-07
8.799e-08
0.0002733
0.0002756
0.0002768
0.0002767
0.0002758
0.0002744
0.0002728
0.0002712
0.0002698
0.0002684
0.0002671
0.0002659
0.0002648
0.0002637
0.0002627
0.0002617
0.0002607
0.0002597
0.0002587
0.0002578
0.0002568
0.0002559
0.0002549
0.0002539
0.000253
0.000252
0.000251
0.00025
0.000249
0.0002479
0.0002469
0.0002458
0.0002446
0.0002434
0.0002422
0.0002409
0.0002396
0.0002381
0.0002367
0.0002351
0.0002334
0.0002316
0.0002297
0.0002277
0.0002255
0.0002232
0.0002206
0.0002179
0.0002149
0.0002117
0.0002082
0.0002044
0.0002003
0.0001959
0.0001911
0.0001861
0.0001807
0.000175
0.000169
0.0001628
0.0001563
0.0001497
0.0001429
0.000136
0.0001292
0.0001224
0.0001159
0.0001095
0.0001033
9.733e-05
9.16e-05
8.61e-05
8.086e-05
7.589e-05
7.119e-05
6.677e-05
6.264e-05
5.88e-05
5.524e-05
5.194e-05
4.89e-05
4.608e-05
4.349e-05
4.109e-05
3.886e-05
3.68e-05
3.488e-05
3.308e-05
3.141e-05
2.984e-05
2.836e-05
2.697e-05
2.565e-05
2.44e-05
2.322e-05
2.21e-05
2.103e-05
2.001e-05
1.903e-05
1.81e-05
1.72e-05
1.634e-05
1.551e-05
1.471e-05
1.394e-05
1.319e-05
1.247e-05
1.177e-05
1.109e-05
1.042e-05
9.775e-06
9.142e-06
8.522e-06
7.915e-06
7.318e-06
6.731e-06
6.152e-06
5.581e-06
5.016e-06
4.456e-06
3.9e-06
3.348e-06
2.796e-06
2.245e-06
1.693e-06
1.136e-06
5.734e-07
9.563e-08
0.00027
0.0002721
0.0002734
0.0002736
0.0002731
0.0002721
0.0002708
0.0002695
0.0002683
0.000267
0.0002659
0.0002648
0.0002638
0.0002628
0.0002619
0.000261
0.0002601
0.0002592
0.0002583
0.0002574
0.0002565
0.0002556
0.0002547
0.0002538
0.0002528
0.0002519
0.0002509
0.00025
0.000249
0.000248
0.0002469
0.0002458
0.0002447
0.0002435
0.0002423
0.0002411
0.0002398
0.0002384
0.0002369
0.0002354
0.0002338
0.0002321
0.0002302
0.0002282
0.0002261
0.0002238
0.0002213
0.0002187
0.0002157
0.0002126
0.0002091
0.0002053
0.0002013
0.0001968
0.0001921
0.000187
0.0001815
0.0001757
0.0001696
0.0001633
0.0001567
0.0001499
0.0001429
0.0001359
0.0001289
0.000122
0.0001153
0.0001088
0.0001026
9.653e-05
9.073e-05
8.518e-05
7.989e-05
7.487e-05
7.015e-05
6.573e-05
6.162e-05
5.781e-05
5.428e-05
5.104e-05
4.805e-05
4.531e-05
4.278e-05
4.044e-05
3.829e-05
3.628e-05
3.442e-05
3.268e-05
3.105e-05
2.952e-05
2.808e-05
2.672e-05
2.543e-05
2.421e-05
2.305e-05
2.194e-05
2.089e-05
1.988e-05
1.892e-05
1.799e-05
1.71e-05
1.625e-05
1.543e-05
1.464e-05
1.387e-05
1.313e-05
1.241e-05
1.171e-05
1.104e-05
1.037e-05
9.73e-06
9.101e-06
8.484e-06
7.88e-06
7.287e-06
6.703e-06
6.128e-06
5.56e-06
4.999e-06
4.442e-06
3.89e-06
3.341e-06
2.794e-06
2.247e-06
1.698e-06
1.145e-06
5.857e-07
1.057e-07
0.0002672
0.0002692
0.0002705
0.000271
0.0002707
0.00027
0.0002691
0.000268
0.0002669
0.0002659
0.0002648
0.0002639
0.0002629
0.0002621
0.0002612
0.0002603
0.0002595
0.0002587
0.0002579
0.000257
0.0002562
0.0002553
0.0002545
0.0002536
0.0002527
0.0002518
0.0002509
0.00025
0.000249
0.0002481
0.000247
0.000246
0.0002449
0.0002438
0.0002426
0.0002414
0.0002401
0.0002388
0.0002374
0.0002359
0.0002344
0.0002327
0.0002309
0.000229
0.000227
0.0002248
0.0002224
0.0002198
0.000217
0.0002138
0.0002104
0.0002067
0.0002027
0.0001982
0.0001934
0.0001883
0.0001827
0.0001768
0.0001706
0.000164
0.0001572
0.0001502
0.000143
0.0001357
0.0001285
0.0001214
0.0001146
0.0001079
0.0001016
9.542e-05
8.952e-05
8.387e-05
7.851e-05
7.344e-05
6.869e-05
6.426e-05
6.017e-05
5.639e-05
5.292e-05
4.975e-05
4.684e-05
4.418e-05
4.174e-05
3.95e-05
3.742e-05
3.55e-05
3.371e-05
3.204e-05
3.047e-05
2.9e-05
2.761e-05
2.629e-05
2.504e-05
2.385e-05
2.273e-05
2.165e-05
2.062e-05
1.963e-05
1.869e-05
1.778e-05
1.691e-05
1.607e-05
1.526e-05
1.448e-05
1.373e-05
1.3e-05
1.229e-05
1.16e-05
1.093e-05
1.028e-05
9.644e-06
9.022e-06
8.412e-06
7.815e-06
7.228e-06
6.65e-06
6.081e-06
5.519e-06
4.964e-06
4.414e-06
3.868e-06
3.324e-06
2.783e-06
2.242e-06
1.699e-06
1.152e-06
5.992e-07
1.181e-07
0.0002649
0.0002668
0.0002681
0.0002687
0.0002687
0.0002682
0.0002675
0.0002666
0.0002657
0.0002648
0.0002639
0.000263
0.0002622
0.0002613
0.0002605
0.0002598
0.000259
0.0002582
0.0002575
0.0002567
0.0002559
0.0002551
0.0002543
0.0002535
0.0002527
0.0002518
0.000251
0.0002501
0.0002492
0.0002482
0.0002473
0.0002463
0.0002452
0.0002442
0.000243
0.0002419
0.0002407
0.0002394
0.0002381
0.0002367
0.0002352
0.0002336
0.0002319
0.0002301
0.0002282
0.0002261
0.0002238
0.0002213
0.0002186
0.0002156
0.0002122
0.0002086
0.0002045
0.0002001
0.0001953
0.0001901
0.0001844
0.0001783
0.0001719
0.0001651
0.0001581
0.0001508
0.0001432
0.0001356
0.0001281
0.0001207
0.0001136
0.0001068
0.0001002
9.392e-05
8.787e-05
8.21e-05
7.664e-05
7.151e-05
6.673e-05
6.231e-05
5.824e-05
5.452e-05
5.114e-05
4.806e-05
4.526e-05
4.271e-05
4.038e-05
3.824e-05
3.627e-05
3.445e-05
3.275e-05
3.117e-05
2.968e-05
2.827e-05
2.694e-05
2.569e-05
2.449e-05
2.335e-05
2.226e-05
2.122e-05
2.023e-05
1.927e-05
1.835e-05
1.747e-05
1.663e-05
1.581e-05
1.502e-05
1.426e-05
1.352e-05
1.281e-05
1.211e-05
1.144e-05
1.078e-05
1.014e-05
9.518e-06
8.907e-06
8.308e-06
7.72e-06
7.142e-06
6.574e-06
6.014e-06
5.46e-06
4.913e-06
4.371e-06
3.833e-06
3.298e-06
2.764e-06
2.231e-06
1.696e-06
1.158e-06
6.141e-07
1.329e-07
0.000263
0.0002647
0.000266
0.0002667
0.0002668
0.0002666
0.0002661
0.0002654
0.0002646
0.0002638
0.000263
0.0002622
0.0002615
0.0002607
0.00026
0.0002593
0.0002586
0.0002579
0.0002571
0.0002564
0.0002557
0.000255
0.0002542
0.0002535
0.0002527
0.0002519
0.0002511
0.0002502
0.0002494
0.0002485
0.0002476
0.0002466
0.0002456
0.0002446
0.0002436
0.0002425
0.0002413
0.0002401
0.0002389
0.0002376
0.0002362
0.0002347
0.0002331
0.0002314
0.0002296
0.0002277
0.0002255
0.0002232
0.0002206
0.0002177
0.0002145
0.000211
0.000207
0.0002026
0.0001978
0.0001925
0.0001867
0.0001804
0.0001738
0.0001667
0.0001593
0.0001516
0.0001437
0.0001356
0.0001275
0.0001197
0.0001123
0.0001052
9.844e-05
9.191e-05
8.568e-05
7.977e-05
7.42e-05
6.902e-05
6.422e-05
5.982e-05
5.581e-05
5.218e-05
4.89e-05
4.595e-05
4.329e-05
4.088e-05
3.869e-05
3.669e-05
3.485e-05
3.315e-05
3.157e-05
3.008e-05
2.868e-05
2.736e-05
2.611e-05
2.492e-05
2.379e-05
2.27e-05
2.167e-05
2.067e-05
1.972e-05
1.88e-05
1.792e-05
1.708e-05
1.626e-05
1.547e-05
1.471e-05
1.397e-05
1.325e-05
1.256e-05
1.189e-05
1.123e-05
1.059e-05
9.966e-06
9.356e-06
8.759e-06
8.173e-06
7.598e-06
7.032e-06
6.475e-06
5.926e-06
5.383e-06
4.847e-06
4.315e-06
3.787e-06
3.261e-06
2.738e-06
2.215e-06
1.69e-06
1.163e-06
6.303e-07
1.498e-07
0.0002613
0.000263
0.0002642
0.000265
0.0002652
0.0002652
0.0002648
0.0002643
0.0002637
0.000263
0.0002623
0.0002616
0.0002609
0.0002602
0.0002595
0.0002588
0.0002582
0.0002575
0.0002569
0.0002562
0.0002555
0.0002549
0.0002542
0.0002534
0.0002527
0.000252
0.0002512
0.0002504
0.0002496
0.0002488
0.0002479
0.0002471
0.0002461
0.0002452
0.0002442
0.0002432
0.0002421
0.000241
0.0002399
0.0002386
0.0002374
0.000236
0.0002346
0.000233
0.0002314
0.0002296
0.0002276
0.0002254
0.000223
0.0002203
0.0002173
0.0002139
0.0002101
0.0002058
0.000201
0.0001957
0.0001898
0.0001834
0.0001764
0.000169
0.0001611
0.000153
0.0001444
0.0001356
0.0001268
0.0001185
0.0001106
0.0001031
9.599e-05
8.92e-05
8.277e-05
7.671e-05
7.106e-05
6.585e-05
6.107e-05
5.673e-05
5.283e-05
4.933e-05
4.62e-05
4.342e-05
4.094e-05
3.871e-05
3.669e-05
3.486e-05
3.318e-05
3.162e-05
3.016e-05
2.88e-05
2.751e-05
2.628e-05
2.512e-05
2.401e-05
2.295e-05
2.193e-05
2.095e-05
2.001e-05
1.911e-05
1.824e-05
1.74e-05
1.659e-05
1.581e-05
1.506e-05
1.433e-05
1.362e-05
1.293e-05
1.226e-05
1.161e-05
1.098e-05
1.036e-05
9.753e-06
9.161e-06
8.581e-06
8.011e-06
7.451e-06
6.9e-06
6.357e-06
5.821e-06
5.291e-06
4.766e-06
4.246e-06
3.73e-06
3.217e-06
2.705e-06
2.194e-06
1.681e-06
1.167e-06
6.477e-07
1.687e-07
0.0002599
0.0002615
0.0002627
0.0002635
0.0002638
0.0002639
0.0002637
0.0002633
0.0002628
0.0002622
0.0002616
0.000261
0.0002604
0.0002597
0.0002591
0.0002585
0.0002579
0.0002573
0.0002567
0.000256
0.0002554
0.0002548
0.0002541
0.0002535
0.0002528
0.0002521
0.0002514
0.0002507
0.0002499
0.0002492
0.0002484
0.0002476
0.0002467
0.0002459
0.000245
0.000244
0.000243
0.000242
0.000241
0.0002399
0.0002387
0.0002375
0.0002362
0.0002348
0.0002333
0.0002317
0.00023
0.000228
0.0002259
0.0002234
0.0002207
0.0002175
0.0002139
0.0002097
0.0002051
0.0001998
0.0001939
0.0001874
0.0001802
0.0001723
0.0001639
0.0001551
0.0001456
0.0001357
0.0001259
0.0001166
0.000108
0.0001001
9.258e-05
8.551e-05
7.889e-05
7.274e-05
6.707e-05
6.189e-05
5.72e-05
5.3e-05
4.926e-05
4.595e-05
4.304e-05
4.048e-05
3.822e-05
3.621e-05
3.44e-05
3.277e-05
3.126e-05
2.987e-05
2.857e-05
2.734e-05
2.617e-05
2.505e-05
2.399e-05
2.297e-05
2.199e-05
2.104e-05
2.013e-05
1.926e-05
1.841e-05
1.759e-05
1.68e-05
1.604e-05
1.53e-05
1.458e-05
1.389e-05
1.321e-05
1.256e-05
1.192e-05
1.129e-05
1.069e-05
1.009e-05
9.508e-06
8.937e-06
8.376e-06
7.825e-06
7.283e-06
6.748e-06
6.221e-06
5.7e-06
5.184e-06
4.674e-06
4.168e-06
3.665e-06
3.165e-06
2.666e-06
2.168e-06
1.67e-06
1.17e-06
6.66e-07
1.893e-07
0.0002587
0.0002602
0.0002614
0.0002622
0.0002626
0.0002628
0.0002627
0.0002624
0.000262
0.0002616
0.000261
0.0002605
0.0002599
0.0002593
0.0002588
0.0002582
0.0002576
0.0002571
0.0002565
0.0002559
0.0002554
0.0002548
0.0002542
0.0002536
0.000253
0.0002523
0.0002517
0.000251
0.0002503
0.0002496
0.0002489
0.0002482
0.0002474
0.0002466
0.0002458
0.0002449
0.0002441
0.0002432
0.0002422
0.0002412
0.0002402
0.0002391
0.000238
0.0002368
0.0002355
0.0002342
0.0002326
0.000231
0.0002291
0.000227
0.0002245
0.0002217
0.0002184
0.0002145
0.0002101
0.0002051
0.0001994
0.0001929
0.0001855
0.0001773
0.0001684
0.0001587
0.0001478
0.0001361
0.0001245
0.0001136
0.000104
9.549e-05
8.769e-05
8.042e-05
7.376e-05
6.765e-05
6.209e-05
5.706e-05
5.257e-05
4.858e-05
4.509e-05
4.205e-05
3.941e-05
3.713e-05
3.515e-05
3.341e-05
3.185e-05
3.044e-05
2.915e-05
2.794e-05
2.68e-05
2.572e-05
2.469e-05
2.369e-05
2.274e-05
2.182e-05
2.092e-05
2.006e-05
1.923e-05
1.842e-05
1.763e-05
1.688e-05
1.614e-05
1.543e-05
1.473e-05
1.406e-05
1.34e-05
1.277e-05
1.214e-05
1.154e-05
1.094e-05
1.036e-05
9.794e-06
9.236e-06
8.688e-06
8.149e-06
7.619e-06
7.096e-06
6.58e-06
6.07e-06
5.566e-06
5.066e-06
4.571e-06
4.08e-06
3.592e-06
3.106e-06
2.622e-06
2.139e-06
1.656e-06
1.172e-06
6.851e-07
2.112e-07
0.0002577
0.0002591
0.0002602
0.000261
0.0002616
0.0002618
0.0002618
0.0002617
0.0002614
0.000261
0.0002605
0.00026
0.0002595
0.000259
0.0002585
0.000258
0.0002575
0.0002569
0.0002564
0.0002559
0.0002554
0.0002548
0.0002543
0.0002537
0.0002531
0.0002526
0.000252
0.0002514
0.0002508
0.0002501
0.0002495
0.0002488
0.0002481
0.0002474
0.0002467
0.0002459
0.0002452
0.0002444
0.0002435
0.0002427
0.0002418
0.0002409
0.0002399
0.0002389
0.0002379
0.0002368
0.0002355
0.0002342
0.0002327
0.0002309
0.0002289
0.0002264
0.0002236
0.0002202
0.0002162
0.0002117
0.0002064
0.0002003
0.0001932
0.000185
0.0001758
0.0001652
0.0001522
0.0001368
0.0001216
0.0001083
9.736e-05
8.838e-05
8.053e-05
7.341e-05
6.706e-05
6.127e-05
5.602e-05
5.132e-05
4.715e-05
4.35e-05
4.035e-05
3.765e-05
3.537e-05
3.344e-05
3.178e-05
3.035e-05
2.908e-05
2.793e-05
2.686e-05
2.586e-05
2.49e-05
2.398e-05
2.309e-05
2.223e-05
2.139e-05
2.057e-05
1.978e-05
1.9e-05
1.825e-05
1.751e-05
1.68e-05
1.61e-05
1.542e-05
1.476e-05
1.412e-05
1.349e-05
1.288e-05
1.228e-05
1.17e-05
1.113e-05
1.056e-05
1.001e-05
9.474e-06
8.943e-06
8.42e-06
7.905e-06
7.397e-06
6.895e-06
6.399e-06
5.907e-06
5.421e-06
4.939e-06
4.46e-06
3.985e-06
3.513e-06
3.043e-06
2.574e-06
2.107e-06
1.641e-06
1.173e-06
7.047e-07
2.343e-07
0.0002569
0.0002581
0.0002592
0.0002601
0.0002606
0.0002609
0.000261
0.000261
0.0002608
0.0002605
0.0002601
0.0002597
0.0002592
0.0002588
0.0002583
0.0002578
0.0002573
0.0002568
0.0002564
0.0002559
0.0002554
0.0002549
0.0002544
0.0002539
0.0002534
0.0002529
0.0002523
0.0002518
0.0002512
0.0002507
0.0002501
0.0002495
0.0002489
0.0002483
0.0002476
0.000247
0.0002463
0.0002456
0.0002449
0.0002442
0.0002435
0.0002427
0.000242
0.0002412
0.0002404
0.0002395
0.0002386
0.0002376
0.0002365
0.0002351
0.0002336
0.0002317
0.0002294
0.0002266
0.0002233
0.0002194
0.000215
0.00021
0.000204
0.0001966
0.0001883
0.000177
0.0001605
0.0001379
0.000116
9.874e-05
8.618e-05
7.725e-05
7.031e-05
6.404e-05
5.854e-05
5.351e-05
4.889e-05
4.472e-05
4.104e-05
3.784e-05
3.511e-05
3.285e-05
3.098e-05
2.945e-05
2.818e-05
2.71e-05
2.614e-05
2.527e-05
2.445e-05
2.367e-05
2.291e-05
2.216e-05
2.142e-05
2.069e-05
1.997e-05
1.927e-05
1.857e-05
1.789e-05
1.721e-05
1.656e-05
1.591e-05
1.528e-05
1.466e-05
1.406e-05
1.347e-05
1.289e-05
1.233e-05
1.177e-05
1.123e-05
1.069e-05
1.017e-05
9.648e-06
9.138e-06
8.635e-06
8.139e-06
7.648e-06
7.163e-06
6.683e-06
6.208e-06
5.737e-06
5.269e-06
4.805e-06
4.344e-06
3.885e-06
3.429e-06
2.976e-06
2.524e-06
2.073e-06
1.623e-06
1.174e-06
7.246e-07
2.58e-07
0.0002561
0.0002573
0.0002584
0.0002592
0.0002598
0.0002602
0.0002603
0.0002604
0.0002602
0.00026
0.0002597
0.0002593
0.000259
0.0002585
0.0002581
0.0002577
0.0002572
0.0002568
0.0002564
0.0002559
0.0002555
0.000255
0.0002546
0.0002541
0.0002536
0.0002532
0.0002527
0.0002522
0.0002517
0.0002512
0.0002507
0.0002502
0.0002497
0.0002491
0.0002486
0.000248
0.0002475
0.0002469
0.0002464
0.0002458
0.0002452
0.0002446
0.0002441
0.0002435
0.0002429
0.0002423
0.0002417
0.0002411
0.0002404
0.0002395
0.0002385
0.0002372
0.0002355
0.0002334
0.0002309
0.000228
0.000225
0.0002218
0.0002176
0.0002097
0.0002054
0.0002023
0.0001828
0.0001377
0.0001051
7.61e-05
6.577e-05
6.391e-05
5.969e-05
5.274e-05
4.828e-05
4.456e-05
4.088e-05
3.747e-05
3.441e-05
3.175e-05
2.953e-05
2.775e-05
2.636e-05
2.528e-05
2.443e-05
2.373e-05
2.311e-05
2.253e-05
2.198e-05
2.142e-05
2.085e-05
2.028e-05
1.97e-05
1.911e-05
1.851e-05
1.792e-05
1.732e-05
1.673e-05
1.615e-05
1.557e-05
1.5e-05
1.444e-05
1.388e-05
1.334e-05
1.28e-05
1.228e-05
1.176e-05
1.125e-05
1.074e-05
1.025e-05
9.755e-06
9.27e-06
8.792e-06
8.318e-06
7.849e-06
7.384e-06
6.923e-06
6.466e-06
6.012e-06
5.561e-06
5.112e-06
4.667e-06
4.223e-06
3.782e-06
3.343e-06
2.906e-06
2.471e-06
2.037e-06
1.605e-06
1.174e-06
7.446e-07
2.82e-07
0.0002555
0.0002567
0.0002577
0.0002585
0.0002591
0.0002595
0.0002598
0.0002598
0.0002598
0.0002596
0.0002594
0.0002591
0.0002587
0.0002584
0.000258
0.0002576
0.0002572
0.0002568
0.0002564
0.000256
0.0002556
0.0002552
0.0002547
0.0002543
0.0002539
0.0002535
0.0002531
0.0002527
0.0002522
0.0002518
0.0002514
0.0002509
0.0002505
0.00025
0.0002496
0.0002491
0.0002487
0.0002482
0.0002478
0.0002474
0.0002469
0.0002465
0.0002461
0.0002458
0.0002454
0.0002451
0.0002449
0.0002446
0.0002443
0.0002439
0.0002434
0.0002427
0.0002416
0.0002402
0.0002385
0.0002366
0.0002349
0.0002331
0.0002332
0.0002247
0.0001816
0.0001601
0.0001565
0.0001301
0.0001177
0.0001036
0.0001042
8.558e-05
4.838e-05
3.938e-05
3.917e-05
3.525e-05
3.247e-05
2.995e-05
2.758e-05
2.549e-05
2.378e-05
2.252e-05
2.164e-05
2.105e-05
2.064e-05
2.033e-05
2.006e-05
1.979e-05
1.949e-05
1.916e-05
1.879e-05
1.839e-05
1.796e-05
1.751e-05
1.704e-05
1.656e-05
1.607e-05
1.557e-05
1.507e-05
1.457e-05
1.408e-05
1.358e-05
1.309e-05
1.261e-05
1.213e-05
1.165e-05
1.118e-05
1.071e-05
1.025e-05
9.794e-06
9.34e-06
8.89e-06
8.442e-06
7.998e-06
7.557e-06
7.118e-06
6.681e-06
6.247e-06
5.814e-06
5.383e-06
4.955e-06
4.527e-06
4.102e-06
3.678e-06
3.256e-06
2.836e-06
2.418e-06
2.001e-06
1.587e-06
1.174e-06
7.643e-07
3.059e-07
0.000255
0.0002561
0.0002571
0.0002579
0.0002585
0.000259
0.0002592
0.0002594
0.0002594
0.0002593
0.0002591
0.0002588
0.0002586
0.0002582
0.0002579
0.0002575
0.0002572
0.0002568
0.0002564
0.0002561
0.0002557
0.0002553
0.0002549
0.0002546
0.0002542
0.0002538
0.0002535
0.0002531
0.0002527
0.0002524
0.000252
0.0002517
0.0002513
0.0002509
0.0002506
0.0002502
0.0002499
0.0002495
0.0002492
0.0002489
0.0002486
0.0002484
0.0002482
0.000248
0.0002479
0.0002478
0.0002479
0.0002479
0.000248
0.0002481
0.0002481
0.0002479
0.0002474
0.0002465
0.0002452
0.0002438
0.0002424
0.000242
0.0002337
0.000184
0.0001391
0.0001076
5.866e-05
9.742e-05
0.0001777
0.000162
0.0001419
0.0001197
9.087e-05
5.729e-05
3.282e-05
2.714e-05
2.496e-05
2.265e-05
2.094e-05
1.934e-05
1.81e-05
1.734e-05
1.697e-05
1.688e-05
1.692e-05
1.701e-05
1.708e-05
1.71e-05
1.706e-05
1.694e-05
1.677e-05
1.653e-05
1.625e-05
1.593e-05
1.558e-05
1.521e-05
1.482e-05
1.442e-05
1.4e-05
1.358e-05
1.316e-05
1.274e-05
1.231e-05
1.188e-05
1.146e-05
1.103e-05
1.061e-05
1.019e-05
9.768e-06
9.348e-06
8.93e-06
8.513e-06
8.097e-06
7.682e-06
7.268e-06
6.854e-06
6.442e-06
6.03e-06
5.619e-06
5.208e-06
4.799e-06
4.39e-06
3.982e-06
3.576e-06
3.17e-06
2.767e-06
2.365e-06
1.965e-06
1.568e-06
1.174e-06
7.834e-07
3.293e-07
0.0002545
0.0002556
0.0002566
0.0002574
0.000258
0.0002585
0.0002588
0.000259
0.000259
0.000259
0.0002588
0.0002587
0.0002584
0.0002581
0.0002578
0.0002575
0.0002572
0.0002568