/*--------------------------------*- C++ -*----------------------------------*\
  =========                 |
  \\      /  F ield         | OpenFOAM: The Open Source CFD Toolbox
   \\    /   O peration     | Website:  https://openfoam.org
    \\  /    A nd           | Version:  7
     \\/     M anipulation  |
\*---------------------------------------------------------------------------*/
FoamFile
{
    version     2.0;
    format      ascii;
    class       surfaceScalarField;
    location    "1019.9994734106026";
    object      phi;
}
// * * * * * * * * * * * * * * * * * * * * * * * * * * * * * * * * * * * * * //

dimensions      [0 3 -1 0 0 0 0];

internalField   nonuniform List<scalar> 
8032
(
6.857e-10
2.518e-10
4.804e-10
2.053e-10
3.48e-10
1.324e-10
2.643e-10
8.372e-11
2.101e-10
5.415e-11
1.738e-10
3.636e-11
1.483e-10
2.549e-11
1.296e-10
1.864e-11
1.155e-10
1.412e-11
1.045e-10
1.101e-11
9.573e-11
8.776e-12
8.862e-11
7.11e-12
8.279e-11
5.831e-12
7.797e-11
4.822e-12
7.396e-11
4.008e-12
7.062e-11
3.339e-12
6.784e-11
2.779e-12
6.554e-11
2.303e-12
6.365e-11
1.892e-12
6.211e-11
1.532e-12
6.09e-11
1.211e-12
5.998e-11
9.218e-13
5.932e-11
6.567e-13
5.891e-11
4.101e-13
5.874e-11
1.771e-13
5.878e-11
-4.611e-14
5.905e-11
-2.632e-13
5.952e-11
-4.771e-13
6.021e-11
-6.906e-13
6.112e-11
-9.059e-13
6.225e-11
-1.125e-12
6.36e-11
-1.35e-12
6.518e-11
-1.582e-12
6.7e-11
-1.823e-12
6.908e-11
-2.074e-12
7.141e-11
-2.335e-12
7.402e-11
-2.606e-12
7.69e-11
-2.889e-12
8.009e-11
-3.181e-12
8.357e-11
-3.482e-12
8.736e-11
-3.791e-12
9.146e-11
-4.105e-12
9.588e-11
-4.42e-12
1.006e-10
-4.734e-12
1.057e-10
-5.041e-12
1.11e-10
-5.336e-12
1.166e-10
-5.611e-12
1.225e-10
-5.86e-12
1.285e-10
-6.075e-12
1.348e-10
-6.245e-12
1.411e-10
-6.362e-12
1.476e-10
-6.416e-12
1.54e-10
-6.399e-12
1.603e-10
-6.3e-12
1.664e-10
-6.113e-12
1.722e-10
-5.832e-12
1.777e-10
-5.453e-12
1.826e-10
-4.976e-12
1.87e-10
-4.403e-12
1.908e-10
-3.741e-12
1.938e-10
-3e-12
1.96e-10
-2.196e-12
1.973e-10
-1.346e-12
1.978e-10
-4.711e-13
1.974e-10
4.074e-13
1.961e-10
1.268e-12
1.94e-10
2.09e-12
1.912e-10
2.857e-12
1.876e-10
3.556e-12
1.834e-10
4.178e-12
1.787e-10
4.715e-12
1.736e-10
5.165e-12
1.68e-10
5.529e-12
1.622e-10
5.807e-12
1.562e-10
6.004e-12
1.501e-10
6.124e-12
1.439e-10
6.173e-12
1.378e-10
6.158e-12
1.317e-10
6.086e-12
1.257e-10
5.965e-12
1.199e-10
5.801e-12
1.143e-10
5.602e-12
1.089e-10
5.375e-12
1.038e-10
5.127e-12
9.894e-11
4.864e-12
9.435e-11
4.592e-12
9.004e-11
4.315e-12
8.6e-11
4.037e-12
8.224e-11
3.762e-12
7.874e-11
3.493e-12
7.551e-11
3.232e-12
7.253e-11
2.981e-12
6.979e-11
2.742e-12
6.728e-11
2.515e-12
6.497e-11
2.301e-12
6.287e-11
2.1e-12
6.096e-11
1.912e-12
5.922e-11
1.738e-12
5.765e-11
1.576e-12
5.622e-11
1.427e-12
5.493e-11
1.289e-12
5.377e-11
1.163e-12
5.272e-11
1.047e-12
5.178e-11
9.413e-13
5.094e-11
8.449e-13
5.018e-11
7.572e-13
4.95e-11
6.776e-13
4.89e-11
6.055e-13
4.836e-11
5.402e-13
4.788e-11
4.814e-13
4.745e-11
4.283e-13
4.707e-11
3.807e-13
4.673e-11
3.381e-13
4.643e-11
3.001e-13
4.616e-11
2.665e-13
4.592e-11
2.37e-13
4.571e-11
2.114e-13
4.552e-11
1.897e-13
4.535e-11
1.719e-13
4.519e-11
1.58e-13
4.505e-11
1.485e-13
4.49e-11
1.441e-13
4.476e-11
1.46e-13
4.46e-11
1.567e-13
4.442e-11
1.806e-13
4.419e-11
2.253e-13
4.389e-11
2.993e-13
3.89e-13
9.523e-10
2.37e-10
8.501e-10
3.075e-10
7.275e-10
2.55e-10
6.183e-10
1.929e-10
5.294e-10
1.43e-10
4.593e-10
1.065e-10
4.043e-10
8.05e-11
3.608e-10
6.21e-11
3.261e-10
4.886e-11
2.98e-10
3.911e-11
2.75e-10
3.176e-11
2.56e-10
2.609e-11
2.403e-10
2.161e-11
2.271e-10
1.801e-11
2.16e-10
1.507e-11
2.067e-10
1.261e-11
1.99e-10
1.054e-11
1.925e-10
8.765e-12
1.872e-10
7.221e-12
1.829e-10
5.86e-12
1.794e-10
4.645e-12
1.768e-10
3.544e-12
1.749e-10
2.532e-12
1.737e-10
1.589e-12
1.732e-10
6.968e-13
1.733e-10
-1.587e-13
1.741e-10
-9.904e-13
1.754e-10
-1.81e-12
1.773e-10
-2.626e-12
1.799e-10
-3.448e-12
1.83e-10
-4.283e-12
1.868e-10
-5.139e-12
1.913e-10
-6.019e-12
1.964e-10
-6.93e-12
2.022e-10
-7.874e-12
2.087e-10
-8.854e-12
2.159e-10
-9.871e-12
2.24e-10
-1.092e-11
2.328e-10
-1.201e-11
2.425e-10
-1.313e-11
2.529e-10
-1.427e-11
2.643e-10
-1.542e-11
2.764e-10
-1.658e-11
2.894e-10
-1.772e-11
3.032e-10
-1.883e-11
3.177e-10
-1.989e-11
3.33e-10
-2.088e-11
3.489e-10
-2.176e-11
3.653e-10
-2.251e-11
3.822e-10
-2.31e-11
3.993e-10
-2.349e-11
4.166e-10
-2.364e-11
4.337e-10
-2.354e-11
4.505e-10
-2.313e-11
4.668e-10
-2.241e-11
4.823e-10
-2.135e-11
4.968e-10
-1.994e-11
5.1e-10
-1.817e-11
5.217e-10
-1.607e-11
5.316e-10
-1.365e-11
5.396e-10
-1.095e-11
5.454e-10
-8.032e-12
5.49e-10
-4.948e-12
5.503e-10
-1.775e-12
5.493e-10
1.413e-12
5.46e-10
4.538e-12
5.406e-10
7.533e-12
5.331e-10
1.034e-11
5.238e-10
1.29e-11
5.127e-10
1.519e-11
5.003e-10
1.718e-11
4.866e-10
1.887e-11
4.719e-10
2.024e-11
4.564e-10
2.13e-11
4.403e-10
2.206e-11
4.239e-10
2.255e-11
4.073e-10
2.278e-11
3.907e-10
2.277e-11
3.742e-10
2.255e-11
3.58e-10
2.214e-11
3.422e-10
2.158e-11
3.27e-10
2.088e-11
3.123e-10
2.008e-11
2.982e-10
1.919e-11
2.848e-10
1.825e-11
2.722e-10
1.726e-11
2.602e-10
1.625e-11
2.49e-10
1.523e-11
2.386e-10
1.422e-11
2.288e-10
1.323e-11
2.198e-10
1.227e-11
2.114e-10
1.134e-11
2.037e-10
1.045e-11
1.966e-10
9.602e-12
1.901e-10
8.801e-12
1.842e-10
8.048e-12
1.788e-10
7.343e-12
1.738e-10
6.685e-12
1.693e-10
6.074e-12
1.652e-10
5.509e-12
1.615e-10
4.987e-12
1.582e-10
4.507e-12
1.552e-10
4.066e-12
1.524e-10
3.663e-12
1.5e-10
3.294e-12
1.478e-10
2.958e-12
1.458e-10
2.653e-12
1.44e-10
2.376e-12
1.425e-10
2.124e-12
1.411e-10
1.897e-12
1.398e-10
1.692e-12
1.387e-10
1.508e-12
1.377e-10
1.343e-12
1.368e-10
1.195e-12
1.36e-10
1.064e-12
1.352e-10
9.493e-13
1.346e-10
8.493e-13
1.34e-10
7.639e-13
1.335e-10
6.931e-13
1.33e-10
6.372e-13
1.326e-10
5.972e-13
1.322e-10
5.745e-13
1.317e-10
5.718e-13
1.313e-10
5.932e-13
1.308e-10
6.444e-13
1.303e-10
7.322e-13
1.298e-10
8.554e-13
9.717e-13
9.779e-10
1.966e-10
9.637e-10
3.217e-10
9.013e-10
3.174e-10
8.212e-10
2.73e-10
7.41e-10
2.232e-10
6.681e-10
1.794e-10
6.048e-10
1.438e-10
5.51e-10
1.159e-10
5.056e-10
9.424e-11
4.674e-10
7.731e-11
4.352e-10
6.396e-11
4.08e-10
5.328e-11
3.85e-10
4.463e-11
3.655e-10
3.752e-11
3.489e-10
3.16e-11
3.35e-10
2.66e-11
3.232e-10
2.233e-11
3.133e-10
1.864e-11
3.051e-10
1.54e-11
2.984e-10
1.253e-11
2.931e-10
9.949e-12
2.891e-10
7.601e-12
2.862e-10
5.435e-12
2.844e-10
3.411e-12
2.836e-10
1.492e-12
2.838e-10
-3.517e-13
2.849e-10
-2.146e-12
2.87e-10
-3.913e-12
2.901e-10
-5.674e-12
2.941e-10
-7.446e-12
2.99e-10
-9.245e-12
3.05e-10
-1.108e-11
3.119e-10
-1.298e-11
3.199e-10
-1.493e-11
3.29e-10
-1.695e-11
3.392e-10
-1.904e-11
3.505e-10
-2.121e-11
3.631e-10
-2.345e-11
3.768e-10
-2.575e-11
3.918e-10
-2.812e-11
4.08e-10
-3.053e-11
4.256e-10
-3.296e-11
4.444e-10
-3.538e-11
4.645e-10
-3.778e-11
4.857e-10
-4.01e-11
5.081e-10
-4.231e-11
5.316e-10
-4.436e-11
5.56e-10
-4.618e-11
5.812e-10
-4.772e-11
6.071e-10
-4.891e-11
6.332e-10
-4.967e-11
6.595e-10
-4.995e-11
6.857e-10
-4.967e-11
7.113e-10
-4.878e-11
7.361e-10
-4.722e-11
7.597e-10
-4.495e-11
7.818e-10
-4.195e-11
8.018e-10
-3.822e-11
8.195e-10
-3.379e-11
8.346e-10
-2.871e-11
8.467e-10
-2.305e-11
8.556e-10
-1.692e-11
8.611e-10
-1.046e-11
8.631e-10
-3.814e-12
8.617e-10
2.865e-12
8.568e-10
9.419e-12
8.486e-10
1.571e-11
8.374e-10
2.16e-11
8.233e-10
2.7e-11
8.066e-10
3.184e-11
7.877e-10
3.606e-11
7.669e-10
3.964e-11
7.446e-10
4.258e-11
7.21e-10
4.487e-11
6.966e-10
4.654e-11
6.715e-10
4.762e-11
6.461e-10
4.816e-11
6.207e-10
4.82e-11
5.954e-10
4.78e-11
5.706e-10
4.7e-11
5.463e-10
4.586e-11
5.227e-10
4.444e-11
5e-10
4.278e-11
4.783e-10
4.095e-11
4.575e-10
3.898e-11
4.379e-10
3.692e-11
4.193e-10
3.48e-11
4.019e-10
3.267e-11
3.856e-10
3.055e-11
3.704e-10
2.845e-11
3.562e-10
2.642e-11
3.431e-10
2.445e-11
3.31e-10
2.256e-11
3.198e-10
2.076e-11
3.096e-10
1.905e-11
3.002e-10
1.744e-11
2.916e-10
1.593e-11
2.838e-10
1.453e-11
2.766e-10
1.322e-11
2.701e-10
1.2e-11
2.642e-10
1.088e-11
2.589e-10
9.845e-12
2.541e-10
8.894e-12
2.497e-10
8.023e-12
2.458e-10
7.226e-12
2.422e-10
6.498e-12
2.391e-10
5.836e-12
2.362e-10
5.234e-12
2.336e-10
4.687e-12
2.313e-10
4.193e-12
2.293e-10
3.746e-12
2.275e-10
3.344e-12
2.258e-10
2.983e-12
2.243e-10
2.66e-12
2.23e-10
2.373e-12
2.219e-10
2.12e-12
2.208e-10
1.899e-12
2.199e-10
1.71e-12
2.19e-10
1.551e-12
2.182e-10
1.423e-12
2.175e-10
1.328e-12
2.168e-10
1.267e-12
2.161e-10
1.242e-12
2.155e-10
1.258e-12
2.148e-10
1.317e-12
2.141e-10
1.42e-12
2.134e-10
1.552e-12
1.66e-12
9.752e-10
1.589e-10
9.93e-10
3.038e-10
9.728e-10
3.376e-10
9.269e-10
3.189e-10
8.691e-10
2.81e-10
8.087e-10
2.399e-10
7.506e-10
2.018e-10
6.976e-10
1.69e-10
6.502e-10
1.416e-10
6.086e-10
1.189e-10
5.724e-10
1.002e-10
5.409e-10
8.472e-11
5.138e-10
7.18e-11
4.904e-10
6.093e-11
4.703e-10
5.171e-11
4.531e-10
4.38e-11
4.384e-10
3.696e-11
4.261e-10
3.097e-11
4.158e-10
2.567e-11
4.074e-10
2.094e-11
4.007e-10
1.665e-11
3.956e-10
1.273e-11
3.919e-10
9.096e-12
3.897e-10
5.684e-12
3.887e-10
2.44e-12
3.89e-10
-6.837e-13
3.906e-10
-3.729e-12
3.934e-10
-6.732e-12
3.975e-10
-9.725e-12
4.028e-10
-1.274e-11
4.093e-10
-1.58e-11
4.172e-10
-1.892e-11
4.263e-10
-2.213e-11
4.368e-10
-2.544e-11
4.487e-10
-2.885e-11
4.621e-10
-3.239e-11
4.769e-10
-3.604e-11
4.933e-10
-3.981e-11
5.112e-10
-4.369e-11
5.308e-10
-4.766e-11
5.519e-10
-5.169e-11
5.747e-10
-5.575e-11
5.991e-10
-5.98e-11
6.251e-10
-6.379e-11
6.527e-10
-6.765e-11
6.817e-10
-7.131e-11
7.12e-10
-7.468e-11
7.435e-10
-7.768e-11
7.76e-10
-8.019e-11
8.092e-10
-8.212e-11
8.428e-10
-8.334e-11
8.766e-10
-8.375e-11
9.102e-10
-8.323e-11
9.431e-10
-8.168e-11
9.749e-10
-7.902e-11
1.005e-09
-7.52e-11
1.033e-09
-7.016e-11
1.059e-09
-6.391e-11
1.082e-09
-5.65e-11
1.101e-09
-4.801e-11
1.117e-09
-3.856e-11
1.128e-09
-2.835e-11
1.135e-09
-1.757e-11
1.138e-09
-6.488e-12
1.136e-09
4.649e-12
1.13e-09
1.558e-11
1.119e-09
2.608e-11
1.105e-09
3.593e-11
1.087e-09
4.497e-11
1.066e-09
5.308e-11
1.042e-09
6.017e-11
1.015e-09
6.62e-11
9.867e-10
7.116e-11
9.565e-10
7.505e-11
9.251e-10
7.792e-11
8.929e-10
7.981e-11
8.603e-10
8.079e-11
8.275e-10
8.094e-11
7.95e-10
8.034e-11
7.629e-10
7.907e-11
7.315e-10
7.723e-11
7.011e-10
7.491e-11
6.716e-10
7.22e-11
6.434e-10
6.918e-11
6.165e-10
6.592e-11
5.909e-10
6.25e-11
5.667e-10
5.899e-11
5.439e-10
5.543e-11
5.226e-10
5.189e-11
5.027e-10
4.839e-11
4.841e-10
4.497e-11
4.669e-10
4.166e-11
4.51e-10
3.849e-11
4.363e-10
3.545e-11
4.227e-10
3.258e-11
4.103e-10
2.986e-11
3.989e-10
2.731e-11
3.885e-10
2.492e-11
3.79e-10
2.27e-11
3.704e-10
2.064e-11
3.626e-10
1.873e-11
3.554e-10
1.697e-11
3.49e-10
1.535e-11
3.431e-10
1.386e-11
3.379e-10
1.25e-11
3.331e-10
1.125e-11
3.288e-10
1.012e-11
3.25e-10
9.087e-12
3.215e-10
8.148e-12
3.184e-10
7.298e-12
3.156e-10
6.529e-12
3.131e-10
5.836e-12
3.109e-10
5.213e-12
3.089e-10
4.655e-12
3.071e-10
4.158e-12
3.055e-10
3.719e-12
3.041e-10
3.334e-12
3.028e-10
3.002e-12
3.016e-10
2.721e-12
3.006e-10
2.491e-12
2.996e-10
2.313e-12
2.987e-10
2.187e-12
2.978e-10
2.116e-12
2.969e-10
2.101e-12
2.961e-10
2.141e-12
2.953e-10
2.23e-12
2.945e-10
2.347e-12
2.436e-12
9.668e-10
1.296e-10
9.945e-10
2.762e-10
9.979e-10
3.342e-10
9.782e-10
3.386e-10
9.427e-10
3.165e-10
8.989e-10
2.836e-10
8.523e-10
2.485e-10
8.062e-10
2.151e-10
7.626e-10
1.851e-10
7.226e-10
1.589e-10
6.865e-10
1.363e-10
6.542e-10
1.17e-10
6.257e-10
1.003e-10
6.007e-10
8.596e-11
5.788e-10
7.354e-11
5.599e-10
6.27e-11
5.437e-10
5.319e-11
5.299e-10
4.476e-11
5.184e-10
3.723e-11
5.089e-10
3.044e-11
5.013e-10
2.424e-11
4.955e-10
1.853e-11
4.914e-10
1.321e-11
4.888e-10
8.192e-12
4.879e-10
3.401e-12
4.884e-10
-1.226e-12
4.904e-10
-5.747e-12
4.939e-10
-1.021e-11
4.989e-10
-1.467e-11
5.053e-10
-1.916e-11
5.132e-10
-2.371e-11
5.226e-10
-2.836e-11
5.337e-10
-3.314e-11
5.463e-10
-3.805e-11
5.605e-10
-4.313e-11
5.765e-10
-4.838e-11
5.943e-10
-5.379e-11
6.138e-10
-5.937e-11
6.352e-10
-6.51e-11
6.585e-10
-7.095e-11
6.837e-10
-7.688e-11
7.108e-10
-8.286e-11
7.399e-10
-8.881e-11
7.707e-10
-9.466e-11
8.034e-10
-1.003e-10
8.377e-10
-1.057e-10
8.736e-10
-1.106e-10
9.109e-10
-1.149e-10
9.493e-10
-1.186e-10
9.885e-10
-1.214e-10
1.028e-09
-1.231e-10
1.068e-09
-1.236e-10
1.108e-09
-1.228e-10
1.147e-09
-1.205e-10
1.184e-09
-1.165e-10
1.22e-09
-1.109e-10
1.253e-09
-1.034e-10
1.283e-09
-9.422e-11
1.31e-09
-8.33e-11
1.333e-09
-7.08e-11
1.351e-09
-5.69e-11
1.365e-09
-4.186e-11
1.373e-09
-2.601e-11
1.376e-09
-9.699e-12
1.374e-09
6.694e-12
1.367e-09
2.279e-11
1.355e-09
3.824e-11
1.338e-09
5.275e-11
1.317e-09
6.607e-11
1.292e-09
7.803e-11
1.264e-09
8.851e-11
1.233e-09
9.744e-11
1.199e-09
1.048e-10
1.163e-09
1.106e-10
1.126e-09
1.149e-10
1.088e-09
1.178e-10
1.05e-09
1.193e-10
1.011e-09
1.196e-10
9.727e-10
1.188e-10
9.347e-10
1.17e-10
8.976e-10
1.144e-10
8.614e-10
1.111e-10
8.265e-10
1.071e-10
7.929e-10
1.027e-10
7.609e-10
9.798e-11
7.304e-10
9.299e-11
7.015e-10
8.784e-11
6.744e-10
8.262e-11
6.488e-10
7.741e-11
6.25e-10
7.225e-11
6.027e-10
6.722e-11
5.821e-10
6.233e-11
5.629e-10
5.764e-11
5.452e-10
5.315e-11
5.289e-10
4.888e-11
5.139e-10
4.485e-11
5.002e-10
4.106e-11
4.876e-10
3.751e-11
4.761e-10
3.42e-11
4.656e-10
3.112e-11
4.561e-10
2.828e-11
4.474e-10
2.564e-11
4.395e-10
2.322e-11
4.324e-10
2.099e-11
4.259e-10
1.895e-11
4.201e-10
1.708e-11
4.149e-10
1.537e-11
4.101e-10
1.382e-11
4.059e-10
1.241e-11
4.02e-10
1.112e-11
3.986e-10
9.964e-12
3.955e-10
8.916e-12
3.928e-10
7.973e-12
3.903e-10
7.127e-12
3.881e-10
6.373e-12
3.861e-10
5.704e-12
3.843e-10
5.116e-12
3.827e-10
4.605e-12
3.813e-10
4.17e-12
3.8e-10
3.808e-12
3.787e-10
3.518e-12
3.776e-10
3.301e-12
3.766e-10
3.157e-12
3.756e-10
3.084e-12
3.747e-10
3.08e-12
3.738e-10
3.131e-12
3.729e-10
3.215e-12
3.282e-12
9.592e-10
1.079e-10
9.876e-10
2.478e-10
1.003e-09
3.189e-10
1e-09
3.411e-10
9.828e-10
3.34e-10
9.549e-10
3.116e-10
9.21e-10
2.824e-10
8.844e-10
2.516e-10
8.478e-10
2.218e-10
8.124e-10
1.943e-10
7.792e-10
1.695e-10
7.487e-10
1.474e-10
7.211e-10
1.279e-10
6.964e-10
1.107e-10
6.745e-10
9.546e-11
6.552e-10
8.195e-11
6.385e-10
6.989e-11
6.242e-10
5.908e-11
6.121e-10
4.93e-11
6.022e-10
4.04e-11
5.942e-10
3.221e-11
5.881e-10
2.461e-11
5.839e-10
1.747e-11
5.814e-10
1.071e-11
5.805e-10
4.232e-12
5.813e-10
-2.05e-12
5.838e-10
-8.206e-12
5.879e-10
-1.43e-11
5.936e-10
-2.039e-11
6.01e-10
-2.653e-11
6.1e-10
-3.276e-11
6.208e-10
-3.912e-11
6.333e-10
-4.565e-11
6.476e-10
-5.237e-11
6.638e-10
-5.931e-11
6.819e-10
-6.647e-11
7.02e-10
-7.386e-11
7.241e-10
-8.146e-11
7.482e-10
-8.925e-11
7.745e-10
-9.721e-11
8.029e-10
-1.053e-10
8.334e-10
-1.134e-10
8.66e-10
-1.214e-10
9.007e-10
-1.294e-10
9.374e-10
-1.37e-10
9.76e-10
-1.442e-10
1.016e-09
-1.509e-10
1.058e-09
-1.567e-10
1.101e-09
-1.616e-10
1.145e-09
-1.653e-10
1.19e-09
-1.677e-10
1.234e-09
-1.684e-10
1.279e-09
-1.672e-10
1.322e-09
-1.64e-10
1.364e-09
-1.586e-10
1.404e-09
-1.509e-10
1.442e-09
-1.408e-10
1.476e-09
-1.283e-10
1.506e-09
-1.134e-10
1.532e-09
-9.645e-11
1.552e-09
-7.755e-11
1.568e-09
-5.711e-11
1.577e-09
-3.554e-11
1.581e-09
-1.334e-11
1.578e-09
8.958e-12
1.57e-09
3.085e-11
1.557e-09
5.187e-11
1.538e-09
7.159e-11
1.514e-09
8.971e-11
1.486e-09
1.06e-10
1.455e-09
1.202e-10
1.42e-09
1.324e-10
1.382e-09
1.425e-10
1.342e-09
1.504e-10
1.301e-09
1.563e-10
1.258e-09
1.603e-10
1.215e-09
1.625e-10
1.172e-09
1.63e-10
1.128e-09
1.62e-10
1.086e-09
1.597e-10
1.044e-09
1.562e-10
1.003e-09
1.517e-10
9.642e-10
1.464e-10
9.264e-10
1.405e-10
8.903e-10
1.341e-10
8.559e-10
1.274e-10
8.233e-10
1.204e-10
7.926e-10
1.133e-10
7.637e-10
1.063e-10
7.367e-10
9.927e-11
7.115e-10
9.243e-11
6.881e-10
8.578e-11
6.663e-10
7.938e-11
6.462e-10
7.326e-11
6.276e-10
6.744e-11
6.105e-10
6.193e-11
5.949e-10
5.675e-11
5.805e-10
5.189e-11
5.673e-10
4.735e-11
5.553e-10
4.313e-11
5.444e-10
3.922e-11
5.344e-10
3.56e-11
5.254e-10
3.226e-11
5.172e-10
2.92e-11
5.097e-10
2.638e-11
5.03e-10
2.38e-11
4.969e-10
2.144e-11
4.915e-10
1.929e-11
4.865e-10
1.734e-11
4.821e-10
1.556e-11
4.781e-10
1.395e-11
4.745e-10
1.25e-11
4.713e-10
1.119e-11
4.684e-10
1.001e-11
4.658e-10
8.957e-12
4.635e-10
8.021e-12
4.614e-10
7.196e-12
4.596e-10
6.475e-12
4.579e-10
5.855e-12
4.564e-10
5.333e-12
4.55e-10
4.906e-12
4.537e-10
4.573e-12
4.525e-10
4.331e-12
4.514e-10
4.177e-12
4.504e-10
4.104e-12
4.494e-10
4.1e-12
4.485e-10
4.139e-12
4.18e-12
9.536e-10
9.181e-11
9.795e-10
2.218e-10
9.997e-10
2.987e-10
1.008e-09
3.331e-10
1.003e-09
3.386e-10
9.883e-10
3.264e-10
9.662e-10
3.045e-10
9.396e-10
2.781e-10
9.11e-10
2.505e-10
8.818e-10
2.234e-10
8.534e-10
1.98e-10
8.263e-10
1.745e-10
8.012e-10
1.531e-10
7.782e-10
1.337e-10
7.575e-10
1.162e-10
7.39e-10
1.004e-10
7.228e-10
8.61e-11
7.088e-10
7.309e-11
6.969e-10
6.119e-11
6.871e-10
5.024e-11
6.792e-10
4.008e-11
6.732e-10
3.058e-11
6.691e-10
2.16e-11
6.668e-10
1.305e-11
6.662e-10
4.802e-12
6.674e-10
-3.219e-12
6.703e-10
-1.11e-11
6.749e-10
-1.893e-11
6.813e-10
-2.676e-11
6.894e-10
-3.466e-11
6.993e-10
-4.269e-11
7.111e-10
-5.09e-11
7.248e-10
-5.932e-11
7.404e-10
-6.799e-11
7.58e-10
-7.693e-11
7.777e-10
-8.615e-11
7.995e-10
-9.566e-11
8.235e-10
-1.054e-10
8.497e-10
-1.155e-10
8.781e-10
-1.257e-10
9.089e-10
-1.36e-10
9.419e-10
-1.464e-10
9.772e-10
-1.568e-10
1.015e-09
-1.669e-10
1.054e-09
-1.767e-10
1.096e-09
-1.859e-10
1.14e-09
-1.944e-10
1.185e-09
-2.019e-10
1.231e-09
-2.082e-10
1.279e-09
-2.129e-10
1.327e-09
-2.159e-10
1.376e-09
-2.168e-10
1.424e-09
-2.153e-10
1.471e-09
-2.112e-10
1.517e-09
-2.043e-10
1.56e-09
-1.944e-10
1.601e-09
-1.814e-10
1.638e-09
-1.653e-10
1.671e-09
-1.463e-10
1.699e-09
-1.244e-10
1.721e-09
-1.001e-10
1.738e-09
-7.373e-11
1.748e-09
-4.594e-11
1.752e-09
-1.732e-11
1.75e-09
1.143e-11
1.741e-09
3.964e-11
1.726e-09
6.669e-11
1.706e-09
9.208e-11
1.68e-09
1.154e-10
1.65e-09
1.363e-10
1.615e-09
1.546e-10
1.577e-09
1.703e-10
1.537e-09
1.832e-10
1.493e-09
1.935e-10
1.449e-09
2.011e-10
1.403e-09
2.063e-10
1.356e-09
2.092e-10
1.309e-09
2.099e-10
1.262e-09
2.087e-10
1.216e-09
2.058e-10
1.171e-09
2.014e-10
1.127e-09
1.957e-10
1.084e-09
1.89e-10
1.043e-09
1.815e-10
1.004e-09
1.733e-10
9.669e-10
1.647e-10
9.316e-10
1.558e-10
8.982e-10
1.467e-10
8.668e-10
1.376e-10
8.374e-10
1.287e-10
8.1e-10
1.199e-10
7.844e-10
1.113e-10
7.607e-10
1.031e-10
7.387e-10
9.522e-11
7.185e-10
8.772e-11
6.998e-10
8.062e-11
6.826e-10
7.393e-11
6.668e-10
6.765e-11
6.524e-10
6.178e-11
6.392e-10
5.632e-11
6.272e-10
5.125e-11
6.162e-10
4.656e-11
6.063e-10
4.223e-11
5.972e-10
3.825e-11
5.89e-10
3.459e-11
5.816e-10
3.123e-11
5.748e-10
2.816e-11
5.688e-10
2.536e-11
5.633e-10
2.281e-11
5.584e-10
2.049e-11
5.539e-10
1.839e-11
5.499e-10
1.649e-11
5.464e-10
1.477e-11
5.431e-10
1.323e-11
5.403e-10
1.184e-11
5.377e-10
1.061e-11
5.353e-10
9.517e-12
5.333e-10
8.56e-12
5.314e-10
7.731e-12
5.297e-10
7.025e-12
5.282e-10
6.438e-12
5.268e-10
5.965e-12
5.255e-10
5.604e-12
5.243e-10
5.348e-12
5.232e-10
5.19e-12
5.222e-10
5.115e-12
5.213e-10
5.101e-12
5.113e-12
9.498e-10
7.952e-11
9.725e-10
1.991e-10
9.94e-10
2.772e-10
1.008e-09
3.193e-10
1.012e-09
3.344e-10
1.007e-09
3.313e-10
9.951e-10
3.167e-10
9.778e-10
2.955e-10
9.571e-10
2.712e-10
9.347e-10
2.459e-10
9.117e-10
2.209e-10
8.891e-10
1.971e-10
8.675e-10
1.747e-10
8.472e-10
1.539e-10
8.286e-10
1.348e-10
8.118e-10
1.172e-10
7.969e-10
1.01e-10
7.838e-10
8.613e-11
7.727e-10
7.232e-11
7.635e-10
5.948e-11
7.561e-10
4.746e-11
7.505e-10
3.613e-11
7.468e-10
2.535e-11
7.448e-10
1.501e-11
7.446e-10
5.003e-12
7.462e-10
-4.778e-12
7.495e-10
-1.442e-11
7.546e-10
-2.402e-11
7.615e-10
-3.365e-11
7.702e-10
-4.338e-11
7.808e-10
-5.328e-11
7.933e-10
-6.34e-11
8.077e-10
-7.379e-11
8.242e-10
-8.448e-11
8.428e-10
-9.551e-11
8.635e-10
-1.069e-10
8.865e-10
-1.186e-10
9.117e-10
-1.307e-10
9.393e-10
-1.43e-10
9.692e-10
-1.556e-10
1.001e-09
-1.683e-10
1.036e-09
-1.811e-10
1.073e-09
-1.938e-10
1.113e-09
-2.063e-10
1.154e-09
-2.184e-10
1.198e-09
-2.297e-10
1.244e-09
-2.402e-10
1.291e-09
-2.494e-10
1.34e-09
-2.572e-10
1.391e-09
-2.63e-10
1.441e-09
-2.667e-10
1.492e-09
-2.678e-10
1.543e-09
-2.66e-10
1.593e-09
-2.61e-10
1.641e-09
-2.526e-10
1.687e-09
-2.404e-10
1.73e-09
-2.245e-10
1.77e-09
-2.047e-10
1.804e-09
-1.811e-10
1.834e-09
-1.541e-10
1.858e-09
-1.241e-10
1.876e-09
-9.144e-11
1.887e-09
-5.7e-11
1.891e-09
-2.153e-11
1.888e-09
1.41e-11
1.879e-09
4.903e-11
1.863e-09
8.249e-11
1.842e-09
1.138e-10
1.814e-09
1.426e-10
1.782e-09
1.684e-10
1.746e-09
1.91e-10
1.706e-09
2.103e-10
1.663e-09
2.262e-10
1.618e-09
2.389e-10
1.57e-09
2.483e-10
1.522e-09
2.548e-10
1.473e-09
2.583e-10
1.423e-09
2.593e-10
1.374e-09
2.579e-10
1.326e-09
2.543e-10
1.278e-09
2.49e-10
1.232e-09
2.42e-10
1.187e-09
2.338e-10
1.144e-09
2.246e-10
1.103e-09
2.145e-10
1.063e-09
2.04e-10
1.026e-09
1.93e-10
9.909e-10
1.819e-10
9.578e-10
1.707e-10
9.268e-10
1.597e-10
8.978e-10
1.488e-10
8.708e-10
1.383e-10
8.458e-10
1.282e-10
8.226e-10
1.184e-10
8.011e-10
1.092e-10
7.813e-10
1.004e-10
7.631e-10
9.213e-11
7.464e-10
8.436e-11
7.311e-10
7.71e-11
7.171e-10
7.034e-11
7.043e-10
6.405e-11
6.926e-10
5.823e-11
6.82e-10
5.286e-11
6.723e-10
4.79e-11
6.636e-10
4.335e-11
6.556e-10
3.918e-11
6.484e-10
3.536e-11
6.419e-10
3.187e-11
6.361e-10
2.868e-11
6.308e-10
2.579e-11
6.26e-10
2.316e-11
6.217e-10
2.078e-11
6.178e-10
1.863e-11
6.144e-10
1.669e-11
6.113e-10
1.495e-11
6.085e-10
1.34e-11
6.06e-10
1.202e-11
6.037e-10
1.081e-11
6.017e-10
9.748e-12
5.999e-10
8.839e-12
5.983e-10
8.072e-12
5.968e-10
7.443e-12
5.954e-10
6.945e-12
5.942e-10
6.572e-12
5.931e-10
6.314e-12
5.921e-10
6.157e-12
5.911e-10
6.083e-12
6.063e-12
9.472e-10
6.983e-11
9.669e-10
1.794e-10
9.88e-10
2.561e-10
1.005e-09
3.024e-10
1.015e-09
3.245e-10
1.017e-09
3.288e-10
1.013e-09
3.208e-10
1.004e-09
3.049e-10
9.903e-10
2.845e-10
9.744e-10
2.617e-10
9.571e-10
2.382e-10
9.394e-10
2.148e-10
9.218e-10
1.923e-10
9.048e-10
1.709e-10
8.89e-10
1.507e-10
8.744e-10
1.318e-10
8.612e-10
1.142e-10
8.497e-10
9.769e-11
8.397e-10
8.225e-11
8.315e-10
6.774e-11
8.249e-10
5.404e-11
8.2e-10
4.1e-11
8.169e-10
2.852e-11
8.154e-10
1.648e-11
8.156e-10
4.758e-12
8.176e-10
-6.746e-12
8.213e-10
-1.813e-11
8.268e-10
-2.95e-11
8.341e-10
-4.092e-11
8.432e-10
-5.249e-11
8.542e-10
-6.426e-11
8.671e-10
-7.632e-11
8.82e-10
-8.87e-11
8.989e-10
-1.014e-10
9.18e-10
-1.146e-10
9.393e-10
-1.282e-10
9.628e-10
-1.421e-10
9.887e-10
-1.565e-10
1.017e-09
-1.712e-10
1.048e-09
-1.862e-10
1.081e-09
-2.014e-10
1.116e-09
-2.167e-10
1.154e-09
-2.318e-10
1.194e-09
-2.467e-10
1.237e-09
-2.611e-10
1.282e-09
-2.747e-10
1.329e-09
-2.871e-10
1.378e-09
-2.982e-10
1.428e-09
-3.075e-10
1.48e-09
-3.145e-10
1.532e-09
-3.19e-10
1.585e-09
-3.204e-10
1.637e-09
-3.184e-10
1.688e-09
-3.125e-10
1.738e-09
-3.025e-10
1.786e-09
-2.881e-10
1.831e-09
-2.692e-10
1.872e-09
-2.456e-10
1.908e-09
-2.175e-10
1.939e-09
-1.852e-10
1.964e-09
-1.491e-10
1.983e-09
-1.099e-10
1.994e-09
-6.85e-11
1.998e-09
-2.584e-11
1.996e-09
1.7e-11
1.986e-09
5.894e-11
1.969e-09
9.906e-11
1.946e-09
1.366e-10
1.918e-09
1.709e-10
1.885e-09
2.017e-10
1.847e-09
2.286e-10
1.806e-09
2.516e-10
1.761e-09
2.706e-10
1.715e-09
2.857e-10
1.666e-09
2.969e-10
1.616e-09
3.046e-10
1.566e-09
3.089e-10
1.515e-09
3.101e-10
1.464e-09
3.084e-10
1.414e-09
3.042e-10
1.365e-09
2.979e-10
1.318e-09
2.896e-10
1.272e-09
2.799e-10
1.228e-09
2.689e-10
1.185e-09
2.569e-10
1.145e-09
2.443e-10
1.107e-09
2.313e-10
1.07e-09
2.18e-10
1.037e-09
2.047e-10
1.005e-09
1.915e-10
9.749e-10
1.786e-10
9.471e-10
1.661e-10
9.214e-10
1.539e-10
8.975e-10
1.423e-10
8.754e-10
1.313e-10
8.55e-10
1.208e-10
8.362e-10
1.109e-10
8.19e-10
1.016e-10
8.032e-10
9.292e-11
7.887e-10
8.481e-11
7.755e-10
7.728e-11
7.634e-10
7.031e-11
7.524e-10
6.386e-11
7.424e-10
5.791e-11
7.333e-10
5.245e-11
7.25e-10
4.743e-11
7.176e-10
4.283e-11
7.108e-10
3.863e-11
7.047e-10
3.48e-11
6.992e-10
3.131e-11
6.942e-10
2.814e-11
6.897e-10
2.526e-11
6.857e-10
2.266e-11
6.821e-10
2.031e-11
6.788e-10
1.82e-11
6.759e-10
1.632e-11
6.733e-10
1.464e-11
6.709e-10
1.315e-11
6.688e-10
1.185e-11
6.669e-10
1.073e-11
6.652e-10
9.768e-12
6.637e-10
8.969e-12
6.623e-10
8.322e-12
6.611e-10
7.819e-12
6.6e-10
7.451e-12
6.589e-10
7.205e-12
6.579e-10
7.066e-12
7.014e-12
9.454e-10
6.197e-11
9.625e-10
1.622e-10
9.826e-10
2.36e-10
1.001e-09
2.844e-10
1.014e-09
3.112e-10
1.022e-09
3.212e-10
1.024e-09
3.188e-10
1.021e-09
3.079e-10
1.014e-09
2.914e-10
1.004e-09
2.716e-10
9.92e-10
2.5e-10
9.791e-10
2.278e-10
9.657e-10
2.057e-10
9.524e-10
1.842e-10
9.396e-10
1.635e-10
9.276e-10
1.438e-10
9.166e-10
1.251e-10
9.069e-10
1.074e-10
8.985e-10
9.067e-11
8.915e-10
7.474e-11
8.859e-10
5.956e-11
8.819e-10
4.501e-11
8.795e-10
3.098e-11
8.786e-10
1.735e-11
8.793e-10
4.024e-12
8.817e-10
-9.117e-12
8.857e-10
-2.217e-11
8.915e-10
-3.524e-11
8.99e-10
-4.841e-11
9.083e-10
-6.177e-11
9.194e-10
-7.539e-11
9.324e-10
-8.935e-11
9.474e-10
-1.037e-10
9.644e-10
-1.185e-10
9.836e-10
-1.337e-10
1.005e-09
-1.495e-10
1.028e-09
-1.657e-10
1.054e-09
-1.823e-10
1.082e-09
-1.994e-10
1.113e-09
-2.168e-10
1.146e-09
-2.345e-10
1.182e-09
-2.522e-10
1.22e-09
-2.698e-10
1.26e-09
-2.871e-10
1.303e-09
-3.039e-10
1.348e-09
-3.197e-10
1.395e-09
-3.343e-10
1.444e-09
-3.472e-10
1.495e-09
-3.581e-10
1.547e-09
-3.664e-10
1.599e-09
-3.717e-10
1.652e-09
-3.735e-10
1.705e-09
-3.713e-10
1.758e-09
-3.647e-10
1.808e-09
-3.533e-10
1.857e-09
-3.367e-10
1.903e-09
-3.147e-10
1.944e-09
-2.874e-10
1.981e-09
-2.547e-10
2.013e-09
-2.169e-10
2.039e-09
-1.747e-10
2.058e-09
-1.288e-10
2.07e-09
-8.023e-11
2.074e-09
-3.012e-11
2.071e-09
2.015e-11
2.06e-09
6.93e-11
2.043e-09
1.162e-10
2.02e-09
1.599e-10
1.991e-09
1.998e-10
1.957e-09
2.355e-10
1.919e-09
2.668e-10
1.877e-09
2.934e-10
1.832e-09
3.154e-10
1.785e-09
3.329e-10
1.736e-09
3.46e-10
1.686e-09
3.549e-10
1.635e-09
3.599e-10
1.584e-09
3.612e-10
1.533e-09
3.593e-10
1.482e-09
3.544e-10
1.433e-09
3.47e-10
1.385e-09
3.375e-10
1.339e-09
3.261e-10
1.295e-09
3.133e-10
1.252e-09
2.995e-10
1.212e-09
2.848e-10
1.173e-09
2.696e-10
1.137e-09
2.542e-10
1.103e-09
2.388e-10
1.071e-09
2.235e-10
1.041e-09
2.085e-10
1.013e-09
1.939e-10
9.874e-10
1.798e-10
9.634e-10
1.663e-10
9.412e-10
1.535e-10
9.207e-10
1.413e-10
9.019e-10
1.298e-10
8.845e-10
1.189e-10
8.686e-10
1.088e-10
8.54e-10
9.939e-11
8.407e-10
9.062e-11
8.285e-10
8.248e-11
8.174e-10
7.496e-11
8.073e-10
6.802e-11
7.981e-10
6.164e-11
7.898e-10
5.578e-11
7.822e-10
5.04e-11
7.753e-10
4.549e-11
7.691e-10
4.1e-11
7.635e-10
3.691e-11
7.585e-10
3.319e-11
7.539e-10
2.981e-11
7.498e-10
2.676e-11
7.461e-10
2.4e-11
7.428e-10
2.152e-11
7.399e-10
1.929e-11
7.372e-10
1.73e-11
7.348e-10
1.554e-11
7.327e-10
1.399e-11
7.308e-10
1.264e-11
7.29e-10
1.148e-11
7.275e-10
1.05e-11
7.261e-10
9.701e-12
7.249e-10
9.062e-12
7.238e-10
8.578e-12
7.227e-10
8.239e-12
7.218e-10
8.033e-12
7.946e-12
9.441e-10
5.542e-11
9.591e-10
1.472e-10
9.778e-10
2.173e-10
9.962e-10
2.66e-10
1.012e-09
2.957e-10
1.023e-09
3.1e-10
1.029e-09
3.123e-10
1.032e-09
3.058e-10
1.03e-09
2.93e-10
1.025e-09
2.762e-10
1.019e-09
2.569e-10
1.01e-09
2.362e-10
1.001e-09
2.15e-10
9.912e-10
1.938e-10
9.816e-10
1.731e-10
9.724e-10
1.53e-10
9.638e-10
1.337e-10
9.56e-10
1.152e-10
9.493e-10
9.737e-11
9.438e-10
8.031e-11
9.394e-10
6.39e-11
9.364e-10
4.804e-11
9.348e-10
3.264e-11
9.345e-10
1.759e-11
9.357e-10
2.797e-12
9.385e-10
-1.186e-11
9.428e-10
-2.647e-11
9.487e-10
-4.114e-11
9.562e-10
-5.596e-11
9.655e-10
-7.102e-11
9.765e-10
-8.641e-11
9.893e-10
-1.022e-10
1.004e-09
-1.184e-10
1.021e-09
-1.352e-10
1.039e-09
-1.525e-10
1.06e-09
-1.703e-10
1.083e-09
-1.887e-10
1.109e-09
-2.076e-10
1.136e-09
-2.27e-10
1.166e-09
-2.468e-10
1.198e-09
-2.668e-10
1.233e-09
-2.87e-10
1.27e-09
-3.07e-10
1.31e-09
-3.267e-10
1.352e-09
-3.458e-10
1.396e-09
-3.639e-10
1.443e-09
-3.806e-10
1.491e-09
-3.954e-10
1.541e-09
-4.079e-10
1.592e-09
-4.176e-10
1.644e-09
-4.238e-10
1.696e-09
-4.261e-10
1.749e-09
-4.238e-10
1.801e-09
-4.166e-10
1.851e-09
-4.038e-10
1.9e-09
-3.851e-10
1.945e-09
-3.603e-10
1.987e-09
-3.292e-10
2.024e-09
-2.92e-10
2.056e-09
-2.489e-10
2.082e-09
-2.006e-10
2.101e-09
-1.478e-10
2.113e-09
-9.192e-11
2.117e-09
-3.424e-11
2.113e-09
2.359e-11
2.103e-09
7.999e-11
2.085e-09
1.336e-10
2.062e-09
1.835e-10
2.033e-09
2.289e-10
1.999e-09
2.694e-10
1.961e-09
3.047e-10
1.92e-09
3.349e-10
1.875e-09
3.598e-10
1.828e-09
3.796e-10
1.78e-09
3.944e-10
1.73e-09
4.045e-10
1.68e-09
4.102e-10
1.63e-09
4.117e-10
1.58e-09
4.095e-10
1.53e-09
4.039e-10
1.482e-09
3.955e-10
1.435e-09
3.846e-10
1.389e-09
3.716e-10
1.345e-09
3.571e-10
1.304e-09
3.412e-10
1.264e-09
3.246e-10
1.226e-09
3.073e-10
1.191e-09
2.898e-10
1.157e-09
2.722e-10
1.126e-09
2.548e-10
1.096e-09
2.378e-10
1.069e-09
2.212e-10
1.044e-09
2.052e-10
1.02e-09
1.898e-10
9.985e-10
1.752e-10
9.785e-10
1.613e-10
9.6e-10
1.483e-10
9.429e-10
1.36e-10
9.273e-10
1.245e-10
9.13e-10
1.137e-10
8.999e-10
1.037e-10
8.879e-10
9.446e-11
8.77e-10
8.589e-11
8.67e-10
7.798e-11
8.58e-10
7.07e-11
8.497e-10
6.401e-11
8.423e-10
5.787e-11
8.355e-10
5.226e-11
8.294e-10
4.713e-11
8.238e-10
4.245e-11
8.188e-10
3.819e-11
8.143e-10
3.433e-11
8.102e-10
3.082e-11
8.066e-10
2.766e-11
8.033e-10
2.48e-11
8.004e-10
2.224e-11
7.977e-10
1.994e-11
7.953e-10
1.791e-11
7.932e-10
1.611e-11
7.913e-10
1.453e-11
7.896e-10
1.317e-11
7.881e-10
1.201e-11
7.868e-10
1.105e-11
7.856e-10
1.027e-11
7.845e-10
9.671e-12
7.835e-10
9.237e-12
7.826e-10
8.963e-12
8.842e-12
9.431e-10
4.984e-11
9.564e-10
1.338e-10
9.738e-10
1.999e-10
9.92e-10
2.478e-10
1.009e-09
2.792e-10
1.022e-09
2.965e-10
1.032e-09
3.024e-10
1.038e-09
2.996e-10
1.041e-09
2.902e-10
1.041e-09
2.763e-10
1.038e-09
2.593e-10
1.034e-09
2.404e-10
1.029e-09
2.204e-10
1.023e-09
2e-10
1.016e-09
1.796e-10
1.01e-09
1.595e-10
1.004e-09
1.399e-10
9.979e-10
1.208e-10
9.93e-10
1.023e-10
9.889e-10
8.436e-11
9.859e-10
6.696e-11
9.839e-10
5.003e-11
9.83e-10
3.347e-11
9.834e-10
1.719e-11
9.851e-10
1.104e-12
9.882e-10
-1.49e-11
9.926e-10
-3.091e-11
9.985e-10
-4.705e-11
1.006e-09
-6.339e-11
1.015e-09
-8.003e-11
1.026e-09
-9.706e-11
1.038e-09
-1.145e-10
1.052e-09
-1.326e-10
1.068e-09
-1.512e-10
1.086e-09
-1.704e-10
1.106e-09
-1.902e-10
1.128e-09
-2.107e-10
1.152e-09
-2.317e-10
1.178e-09
-2.533e-10
1.207e-09
-2.754e-10
1.238e-09
-2.977e-10
1.271e-09
-3.202e-10
1.306e-09
-3.426e-10
1.344e-09
-3.647e-10
1.385e-09
-3.86e-10
1.427e-09
-4.063e-10
1.471e-09
-4.25e-10
1.518e-09
-4.418e-10
1.566e-09
-4.559e-10
1.615e-09
-4.669e-10
1.666e-09
-4.742e-10
1.717e-09
-4.77e-10
1.767e-09
-4.748e-10
1.818e-09
-4.669e-10
1.867e-09
-4.529e-10