/*--------------------------------*- C++ -*----------------------------------*\
  =========                 |
  \\      /  F ield         | OpenFOAM: The Open Source CFD Toolbox
   \\    /   O peration     | Website:  https://openfoam.org
    \\  /    A nd           | Version:  7
     \\/     M anipulation  |
\*---------------------------------------------------------------------------*/
FoamFile
{
    version     2.0;
    format      ascii;
    class       volVectorField;
    location    "1019.9994734106026";
    object      U;
}
// * * * * * * * * * * * * * * * * * * * * * * * * * * * * * * * * * * * * * //

dimensions      [0 1 -1 0 0 0 0];

internalField   nonuniform List<vector> 
4096
(
(0.001039 0.0001611 0)
(0.0007463 0.0001314 0)
(0.0005302 8.474e-05 0)
(0.0003919 5.358e-05 0)
(0.0003036 3.466e-05 0)
(0.0002457 2.327e-05 0)
(0.0002061 1.632e-05 0)
(0.0001779 1.193e-05 0)
(0.0001569 9.038e-06 0)
(0.0001408 7.047e-06 0)
(0.0001282 5.616e-06 0)
(0.000118 4.551e-06 0)
(0.0001097 3.732e-06 0)
(0.0001029 3.086e-06 0)
(9.723e-05 2.565e-06 0)
(9.253e-05 2.137e-06 0)
(8.861e-05 1.779e-06 0)
(8.536e-05 1.474e-06 0)
(8.268e-05 1.211e-06 0)
(8.049e-05 9.802e-07 0)
(7.873e-05 7.751e-07 0)
(7.737e-05 5.899e-07 0)
(7.636e-05 4.203e-07 0)
(7.567e-05 2.624e-07 0)
(7.53e-05 1.134e-07 0)
(7.521e-05 -2.951e-08 0)
(7.541e-05 -1.684e-07 0)
(7.588e-05 -3.054e-07 0)
(7.663e-05 -4.42e-07 0)
(7.765e-05 -5.798e-07 0)
(7.895e-05 -7.201e-07 0)
(8.054e-05 -8.641e-07 0)
(8.241e-05 -1.013e-06 0)
(8.459e-05 -1.167e-06 0)
(8.709e-05 -1.327e-06 0)
(8.991e-05 -1.494e-06 0)
(9.307e-05 -1.668e-06 0)
(9.659e-05 -1.849e-06 0)
(0.0001005 -2.036e-06 0)
(0.0001047 -2.229e-06 0)
(0.0001094 -2.426e-06 0)
(0.0001144 -2.627e-06 0)
(0.0001199 -2.829e-06 0)
(0.0001258 -3.03e-06 0)
(0.000132 -3.226e-06 0)
(0.0001387 -3.415e-06 0)
(0.0001457 -3.591e-06 0)
(0.000153 -3.751e-06 0)
(0.0001606 -3.888e-06 0)
(0.0001685 -3.997e-06 0)
(0.0001766 -4.072e-06 0)
(0.0001848 -4.106e-06 0)
(0.000193 -4.095e-06 0)
(0.0002011 -4.032e-06 0)
(0.000209 -3.912e-06 0)
(0.0002167 -3.732e-06 0)
(0.0002239 -3.49e-06 0)
(0.0002306 -3.185e-06 0)
(0.0002366 -2.818e-06 0)
(0.0002418 -2.394e-06 0)
(0.0002461 -1.92e-06 0)
(0.0002494 -1.406e-06 0)
(0.0002517 -8.616e-07 0)
(0.0002529 -3.015e-07 0)
(0.0002529 2.608e-07 0)
(0.0002518 8.114e-07 0)
(0.0002497 1.338e-06 0)
(0.0002465 1.829e-06 0)
(0.0002424 2.276e-06 0)
(0.0002375 2.674e-06 0)
(0.0002318 3.017e-06 0)
(0.0002255 3.306e-06 0)
(0.0002186 3.538e-06 0)
(0.0002114 3.717e-06 0)
(0.0002038 3.843e-06 0)
(0.000196 3.919e-06 0)
(0.0001882 3.951e-06 0)
(0.0001803 3.941e-06 0)
(0.0001724 3.895e-06 0)
(0.0001647 3.817e-06 0)
(0.0001572 3.712e-06 0)
(0.0001499 3.585e-06 0)
(0.0001429 3.44e-06 0)
(0.0001362 3.282e-06 0)
(0.0001298 3.113e-06 0)
(0.0001237 2.939e-06 0)
(0.000118 2.761e-06 0)
(0.0001127 2.583e-06 0)
(0.0001077 2.407e-06 0)
(0.000103 2.235e-06 0)
(9.872e-05 2.068e-06 0)
(9.475e-05 1.908e-06 0)
(9.109e-05 1.755e-06 0)
(8.772e-05 1.609e-06 0)
(8.464e-05 1.472e-06 0)
(8.182e-05 1.344e-06 0)
(7.926e-05 1.224e-06 0)
(7.692e-05 1.112e-06 0)
(7.48e-05 1.009e-06 0)
(7.288e-05 9.13e-07 0)
(7.114e-05 8.25e-07 0)
(6.957e-05 7.441e-07 0)
(6.816e-05 6.701e-07 0)
(6.688e-05 6.024e-07 0)
(6.574e-05 5.407e-07 0)
(6.472e-05 4.846e-07 0)
(6.38e-05 4.337e-07 0)
(6.298e-05 3.875e-07 0)
(6.224e-05 3.458e-07 0)
(6.159e-05 3.081e-07 0)
(6.101e-05 2.741e-07 0)
(6.049e-05 2.437e-07 0)
(6.003e-05 2.164e-07 0)
(5.962e-05 1.921e-07 0)
(5.926e-05 1.706e-07 0)
(5.894e-05 1.517e-07 0)
(5.865e-05 1.353e-07 0)
(5.839e-05 1.214e-07 0)
(5.816e-05 1.1e-07 0)
(5.795e-05 1.011e-07 0)
(5.775e-05 9.507e-08 0)
(5.757e-05 9.224e-08 0)
(5.738e-05 9.346e-08 0)
(5.719e-05 1.003e-07 0)
(5.697e-05 1.156e-07 0)
(5.671e-05 1.442e-07 0)
(5.637e-05 1.916e-07 0)
(5.593e-05 2.489e-07 0)
(0.001209 0.0003128 0)
(0.001154 0.0003282 0)
(0.00101 0.000248 0)
(0.0008613 0.000177 0)
(0.0007345 0.0001262 0)
(0.0006328 9.141e-05 0)
(0.0005527 6.784e-05 0)
(0.0004897 5.167e-05 0)
(0.0004396 4.031e-05 0)
(0.0003994 3.208e-05 0)
(0.0003667 2.594e-05 0)
(0.0003399 2.125e-05 0)
(0.0003176 1.756e-05 0)
(0.0002991 1.461e-05 0)
(0.0002836 1.221e-05 0)
(0.0002706 1.021e-05 0)
(0.0002597 8.525e-06 0)
(0.0002506 7.083e-06 0)
(0.000243 5.832e-06 0)
(0.0002368 4.731e-06 0)
(0.0002319 3.748e-06 0)
(0.000228 2.858e-06 0)
(0.0002251 2.041e-06 0)
(0.0002231 1.279e-06 0)
(0.0002221 5.593e-07 0)
(0.0002218 -1.311e-07 0)
(0.0002223 -8.023e-07 0)
(0.0002237 -1.464e-06 0)
(0.0002257 -2.123e-06 0)
(0.0002286 -2.786e-06 0)
(0.0002323 -3.461e-06 0)
(0.0002367 -4.153e-06 0)
(0.000242 -4.865e-06 0)
(0.0002481 -5.602e-06 0)
(0.0002551 -6.367e-06 0)
(0.0002629 -7.161e-06 0)
(0.0002718 -7.985e-06 0)
(0.0002816 -8.84e-06 0)
(0.0002924 -9.723e-06 0)
(0.0003042 -1.063e-05 0)
(0.0003171 -1.156e-05 0)
(0.000331 -1.25e-05 0)
(0.000346 -1.344e-05 0)
(0.0003621 -1.437e-05 0)
(0.0003792 -1.528e-05 0)
(0.0003974 -1.615e-05 0)
(0.0004165 -1.695e-05 0)
(0.0004364 -1.768e-05 0)
(0.0004571 -1.83e-05 0)
(0.0004784 -1.878e-05 0)
(0.0005002 -1.91e-05 0)
(0.0005222 -1.924e-05 0)
(0.0005442 -1.916e-05 0)
(0.0005659 -1.884e-05 0)
(0.0005871 -1.826e-05 0)
(0.0006075 -1.74e-05 0)
(0.0006267 -1.625e-05 0)
(0.0006444 -1.482e-05 0)
(0.0006603 -1.31e-05 0)
(0.0006741 -1.113e-05 0)
(0.0006855 -8.931e-06 0)
(0.0006944 -6.546e-06 0)
(0.0007004 -4.029e-06 0)
(0.0007035 -1.437e-06 0)
(0.0007037 1.165e-06 0)
(0.000701 3.716e-06 0)
(0.0006954 6.159e-06 0)
(0.0006872 8.444e-06 0)
(0.0006764 1.053e-05 0)
(0.0006634 1.24e-05 0)
(0.0006483 1.401e-05 0)
(0.0006316 1.538e-05 0)
(0.0006134 1.649e-05 0)
(0.0005941 1.735e-05 0)
(0.0005739 1.796e-05 0)
(0.0005531 1.835e-05 0)
(0.0005319 1.853e-05 0)
(0.0005107 1.851e-05 0)
(0.0004895 1.833e-05 0)
(0.0004686 1.799e-05 0)
(0.0004482 1.752e-05 0)
(0.0004283 1.695e-05 0)
(0.0004091 1.629e-05 0)
(0.0003907 1.556e-05 0)
(0.0003731 1.479e-05 0)
(0.0003565 1.398e-05 0)
(0.0003407 1.316e-05 0)
(0.0003259 1.233e-05 0)
(0.0003121 1.151e-05 0)
(0.0002991 1.07e-05 0)
(0.0002871 9.92e-06 0)
(0.000276 9.164e-06 0)
(0.0002657 8.442e-06 0)
(0.0002562 7.754e-06 0)
(0.0002475 7.105e-06 0)
(0.0002396 6.494e-06 0)
(0.0002323 5.923e-06 0)
(0.0002256 5.39e-06 0)
(0.0002196 4.896e-06 0)
(0.0002141 4.439e-06 0)
(0.0002091 4.017e-06 0)
(0.0002046 3.628e-06 0)
(0.0002005 3.272e-06 0)
(0.0001969 2.947e-06 0)
(0.0001936 2.649e-06 0)
(0.0001906 2.378e-06 0)
(0.0001879 2.132e-06 0)
(0.0001855 1.908e-06 0)
(0.0001834 1.705e-06 0)
(0.0001815 1.522e-06 0)
(0.0001797 1.357e-06 0)
(0.0001782 1.209e-06 0)
(0.0001768 1.076e-06 0)
(0.0001756 9.57e-07 0)
(0.0001745 8.518e-07 0)
(0.0001736 7.593e-07 0)
(0.0001727 6.789e-07 0)
(0.0001719 6.103e-07 0)
(0.0001712 5.536e-07 0)
(0.0001706 5.09e-07 0)
(0.00017 4.773e-07 0)
(0.0001694 4.599e-07 0)
(0.0001689 4.594e-07 0)
(0.0001683 4.799e-07 0)
(0.0001678 5.28e-07 0)
(0.0001671 6.128e-07 0)
(0.0001665 7.39e-07 0)
(0.0001657 8.708e-07 0)
(0.001226 0.0002775 0)
(0.001243 0.0004027 0)
(0.001194 0.0003664 0)
(0.001102 0.0002982 0)
(0.0009999 0.0002344 0)
(0.0009018 0.0001829 0)
(0.0008147 0.0001436 0)
(0.0007397 0.0001139 0)
(0.0006762 9.158e-05 0)
(0.0006227 7.451e-05 0)
(0.0005777 6.126e-05 0)
(0.0005397 5.08e-05 0)
(0.0005075 4.24e-05 0)
(0.0004803 3.554e-05 0)
(0.0004572 2.987e-05 0)
(0.0004377 2.51e-05 0)
(0.0004212 2.104e-05 0)
(0.0004073 1.754e-05 0)
(0.0003958 1.448e-05 0)
(0.0003863 1.177e-05 0)
(0.0003786 9.34e-06 0)
(0.0003726 7.133e-06 0)
(0.0003682 5.099e-06 0)
(0.0003651 3.2e-06 0)
(0.0003635 1.401e-06 0)
(0.0003631 -3.267e-07 0)
(0.000364 -2.007e-06 0)
(0.000366 -3.662e-06 0)
(0.0003693 -5.312e-06 0)
(0.0003738 -6.972e-06 0)
(0.0003796 -8.658e-06 0)
(0.0003866 -1.038e-05 0)
(0.0003948 -1.216e-05 0)
(0.0004044 -1.399e-05 0)
(0.0004153 -1.589e-05 0)
(0.0004276 -1.785e-05 0)
(0.0004414 -1.989e-05 0)
(0.0004567 -2.2e-05 0)
(0.0004735 -2.417e-05 0)
(0.0004919 -2.64e-05 0)
(0.0005119 -2.867e-05 0)
(0.0005335 -3.096e-05 0)
(0.0005568 -3.325e-05 0)
(0.0005817 -3.552e-05 0)
(0.0006081 -3.772e-05 0)
(0.0006361 -3.981e-05 0)
(0.0006655 -4.175e-05 0)
(0.0006961 -4.348e-05 0)
(0.0007279 -4.495e-05 0)
(0.0007605 -4.608e-05 0)
(0.0007938 -4.682e-05 0)
(0.0008274 -4.71e-05 0)
(0.000861 -4.685e-05 0)
(0.0008941 -4.603e-05 0)
(0.0009264 -4.456e-05 0)
(0.0009574 -4.243e-05 0)
(0.0009866 -3.961e-05 0)
(0.001013 -3.61e-05 0)
(0.001038 -3.191e-05 0)
(0.001059 -2.711e-05 0)
(0.001076 -2.176e-05 0)
(0.001089 -1.597e-05 0)
(0.001099 -9.862e-06 0)
(0.001103 -3.577e-06 0)
(0.001104 2.738e-06 0)
(0.0011 8.933e-06 0)
(0.001091 1.487e-05 0)
(0.001079 2.044e-05 0)
(0.001063 2.554e-05 0)
(0.001043 3.01e-05 0)
(0.00102 3.408e-05 0)
(0.000995 3.745e-05 0)
(0.0009674 4.02e-05 0)
(0.000938 4.234e-05 0)
(0.0009073 4.391e-05 0)
(0.0008756 4.491e-05 0)
(0.0008433 4.54e-05 0)
(0.0008107 4.542e-05 0)
(0.0007783 4.502e-05 0)
(0.0007462 4.425e-05 0)
(0.0007148 4.316e-05 0)
(0.0006842 4.18e-05 0)
(0.0006546 4.023e-05 0)
(0.0006261 3.849e-05 0)
(0.0005989 3.662e-05 0)
(0.0005731 3.467e-05 0)
(0.0005486 3.267e-05 0)
(0.0005256 3.066e-05 0)
(0.000504 2.865e-05 0)
(0.0004838 2.668e-05 0)
(0.000465 2.476e-05 0)
(0.0004476 2.29e-05 0)
(0.0004314 2.112e-05 0)
(0.0004165 1.943e-05 0)
(0.0004028 1.782e-05 0)
(0.0003903 1.631e-05 0)
(0.0003788 1.49e-05 0)
(0.0003682 1.357e-05 0)
(0.0003586 1.235e-05 0)
(0.0003499 1.121e-05 0)
(0.000342 1.015e-05 0)
(0.0003348 9.185e-06 0)
(0.0003283 8.295e-06 0)
(0.0003224 7.479e-06 0)
(0.0003171 6.733e-06 0)
(0.0003123 6.052e-06 0)
(0.000308 5.433e-06 0)
(0.0003042 4.87e-06 0)
(0.0003007 4.359e-06 0)
(0.0002976 3.897e-06 0)
(0.0002948 3.48e-06 0)
(0.0002923 3.105e-06 0)
(0.0002901 2.768e-06 0)
(0.0002881 2.467e-06 0)
(0.0002863 2.2e-06 0)
(0.0002847 1.964e-06 0)
(0.0002833 1.759e-06 0)
(0.000282 1.583e-06 0)
(0.0002809 1.436e-06 0)
(0.0002798 1.319e-06 0)
(0.0002789 1.232e-06 0)
(0.000278 1.178e-06 0)
(0.0002771 1.161e-06 0)
(0.0002762 1.185e-06 0)
(0.0002754 1.255e-06 0)
(0.0002745 1.377e-06 0)
(0.0002736 1.541e-06 0)
(0.0002727 1.684e-06 0)
(0.001224 0.0002275 0)
(0.00126 0.0004003 0)
(0.001258 0.0004193 0)
(0.001216 0.0003788 0)
(0.00115 0.0003227 0)
(0.001074 0.0002683 0)
(0.000998 0.0002212 0)
(0.0009269 0.0001824 0)
(0.0008626 0.0001509 0)
(0.0008057 0.0001256 0)
(0.0007558 0.0001051 0)
(0.0007125 8.832e-05 0)
(0.000675 7.452e-05 0)
(0.0006427 6.301e-05 0)
(0.0006148 5.332e-05 0)
(0.0005909 4.506e-05 0)
(0.0005706 3.795e-05 0)
(0.0005533 3.175e-05 0)
(0.0005388 2.629e-05 0)
(0.0005269 2.142e-05 0)
(0.0005172 1.702e-05 0)
(0.0005096 1.301e-05 0)
(0.000504 9.3e-06 0)
(0.0005002 5.821e-06 0)
(0.0004981 2.516e-06 0)
(0.0004978 -6.627e-07 0)
(0.000499 -3.76e-06 0)
(0.0005018 -6.813e-06 0)
(0.0005062 -9.856e-06 0)
(0.0005122 -1.292e-05 0)
(0.0005198 -1.603e-05 0)
(0.000529 -1.92e-05 0)
(0.0005398 -2.247e-05 0)
(0.0005524 -2.583e-05 0)
(0.0005668 -2.931e-05 0)
(0.0005829 -3.292e-05 0)
(0.000601 -3.664e-05 0)
(0.0006209 -4.049e-05 0)
(0.0006429 -4.445e-05 0)
(0.0006669 -4.85e-05 0)
(0.0006929 -5.262e-05 0)
(0.000721 -5.677e-05 0)
(0.0007513 -6.092e-05 0)
(0.0007835 -6.5e-05 0)
(0.0008178 -6.896e-05 0)
(0.000854 -7.272e-05 0)
(0.0008919 -7.619e-05 0)
(0.0009315 -7.927e-05 0)
(0.0009724 -8.186e-05 0)
(0.001014 -8.386e-05 0)
(0.001057 -8.513e-05 0)
(0.0011 -8.557e-05 0)
(0.001144 -8.506e-05 0)
(0.001186 -8.35e-05 0)
(0.001227 -8.08e-05 0)
(0.001267 -7.689e-05 0)
(0.001305 -7.175e-05 0)
(0.001339 -6.537e-05 0)
(0.00137 -5.779e-05 0)
(0.001397 -4.91e-05 0)
(0.001419 -3.943e-05 0)
(0.001436 -2.897e-05 0)
(0.001448 -1.794e-05 0)
(0.001455 -6.593e-06 0)
(0.001455 4.809e-06 0)
(0.00145 1.6e-05 0)
(0.00144 2.674e-05 0)
(0.001424 3.682e-05 0)
(0.001403 4.606e-05 0)
(0.001378 5.435e-05 0)
(0.001349 6.159e-05 0)
(0.001316 6.774e-05 0)
(0.001281 7.279e-05 0)
(0.001244 7.675e-05 0)
(0.001204 7.965e-05 0)
(0.001164 8.156e-05 0)
(0.001122 8.253e-05 0)
(0.00108 8.265e-05 0)
(0.001038 8.201e-05 0)
(0.0009971 8.068e-05 0)
(0.0009564 7.878e-05 0)
(0.0009169 7.638e-05 0)
(0.0008785 7.359e-05 0)
(0.0008416 7.048e-05 0)
(0.0008063 6.713e-05 0)
(0.0007727 6.363e-05 0)
(0.0007408 6.003e-05 0)
(0.0007108 5.639e-05 0)
(0.0006826 5.276e-05 0)
(0.0006562 4.918e-05 0)
(0.0006315 4.569e-05 0)
(0.0006086 4.231e-05 0)
(0.0005874 3.907e-05 0)
(0.0005678 3.597e-05 0)
(0.0005497 3.304e-05 0)
(0.0005331 3.027e-05 0)
(0.0005179 2.768e-05 0)
(0.000504 2.525e-05 0)
(0.0004913 2.299e-05 0)
(0.0004797 2.089e-05 0)
(0.0004691 1.895e-05 0)
(0.0004595 1.716e-05 0)
(0.0004508 1.552e-05 0)
(0.000443 1.401e-05 0)
(0.0004358 1.262e-05 0)
(0.0004294 1.136e-05 0)
(0.0004236 1.021e-05 0)
(0.0004184 9.165e-06 0)
(0.0004138 8.215e-06 0)
(0.0004096 7.354e-06 0)
(0.0004058 6.576e-06 0)
(0.0004024 5.875e-06 0)
(0.0003994 5.245e-06 0)
(0.0003967 4.681e-06 0)
(0.0003943 4.18e-06 0)
(0.0003921 3.737e-06 0)
(0.0003902 3.349e-06 0)
(0.0003884 3.015e-06 0)
(0.0003868 2.734e-06 0)
(0.0003854 2.506e-06 0)
(0.0003841 2.33e-06 0)
(0.0003829 2.211e-06 0)
(0.0003817 2.149e-06 0)
(0.0003806 2.15e-06 0)
(0.0003795 2.213e-06 0)
(0.0003785 2.336e-06 0)
(0.0003775 2.495e-06 0)
(0.0003765 2.621e-06 0)
(0.001219 0.0001846 0)
(0.001255 0.0003712 0)
(0.001275 0.00043 0)
(0.001265 0.0004208 0)
(0.001229 0.0003824 0)
(0.001179 0.000335 0)
(0.001121 0.0002882 0)
(0.001061 0.0002458 0)
(0.001004 0.0002091 0)
(0.0009505 0.0001778 0)
(0.0009018 0.0001514 0)
(0.000858 0.0001291 0)
(0.0008191 0.0001101 0)
(0.0007849 9.401e-05 0)
(0.0007549 8.016e-05 0)
(0.0007288 6.817e-05 0)
(0.0007063 5.769e-05 0)
(0.0006871 4.847e-05 0)
(0.0006709 4.026e-05 0)
(0.0006574 3.288e-05 0)
(0.0006465 2.617e-05 0)
(0.0006379 2.001e-05 0)
(0.0006316 1.428e-05 0)
(0.0006273 8.88e-06 0)
(0.0006251 3.738e-06 0)
(0.0006248 -1.222e-06 0)
(0.0006265 -6.064e-06 0)
(0.00063 -1.084e-05 0)
(0.0006354 -1.561e-05 0)
(0.0006427 -2.041e-05 0)
(0.0006518 -2.528e-05 0)
(0.0006629 -3.026e-05 0)
(0.000676 -3.537e-05 0)
(0.0006912 -4.063e-05 0)
(0.0007084 -4.607e-05 0)
(0.0007277 -5.169e-05 0)
(0.0007493 -5.749e-05 0)
(0.0007732 -6.348e-05 0)
(0.0007994 -6.962e-05 0)
(0.000828 -7.591e-05 0)
(0.000859 -8.229e-05 0)
(0.0008925 -8.871e-05 0)
(0.0009284 -9.511e-05 0)
(0.0009668 -0.0001014 0)
(0.001007 -0.0001075 0)
(0.00105 -0.0001133 0)
(0.001095 -0.0001186 0)
(0.001142 -0.0001233 0)
(0.00119 -0.0001272 0)
(0.00124 -0.0001302 0)
(0.001291 -0.0001321 0)
(0.001342 -0.0001327 0)
(0.001393 -0.0001319 0)
(0.001443 -0.0001294 0)
(0.001492 -0.0001252 0)
(0.001538 -0.0001191 0)
(0.001583 -0.0001111 0)
(0.001623 -0.0001012 0)
(0.00166 -8.947e-05 0)
(0.001691 -7.603e-05 0)
(0.001718 -6.109e-05 0)
(0.001738 -4.493e-05 0)
(0.001752 -2.789e-05 0)
(0.00176 -1.036e-05 0)
(0.00176 7.26e-06 0)
(0.001755 2.456e-05 0)
(0.001742 4.116e-05 0)
(0.001724 5.675e-05 0)
(0.001699 7.107e-05 0)
(0.00167 8.391e-05 0)
(0.001636 9.515e-05 0)
(0.001598 0.0001047 0)
(0.001556 0.0001126 0)
(0.001512 0.0001188 0)
(0.001465 0.0001234 0)
(0.001417 0.0001265 0)
(0.001368 0.0001281 0)
(0.001319 0.0001284 0)
(0.00127 0.0001275 0)
(0.001221 0.0001255 0)
(0.001173 0.0001226 0)
(0.001126 0.000119 0)
(0.00108 0.0001148 0)
(0.001036 0.00011 0)
(0.0009944 0.0001049 0)
(0.0009544 9.951e-05 0)
(0.0009164 9.397e-05 0)
(0.0008806 8.835e-05 0)
(0.0008469 8.275e-05 0)
(0.0008152 7.721e-05 0)
(0.0007857 7.18e-05 0)
(0.0007583 6.656e-05 0)
(0.0007328 6.152e-05 0)
(0.0007092 5.67e-05 0)
(0.0006874 5.213e-05 0)
(0.0006674 4.781e-05 0)
(0.000649 4.376e-05 0)
(0.0006322 3.996e-05 0)
(0.0006168 3.642e-05 0)
(0.0006027 3.313e-05 0)
(0.0005899 3.008e-05 0)
(0.0005782 2.727e-05 0)
(0.0005676 2.468e-05 0)
(0.000558 2.23e-05 0)
(0.0005493 2.013e-05 0)
(0.0005415 1.813e-05 0)
(0.0005344 1.632e-05 0)
(0.000528 1.466e-05 0)
(0.0005222 1.315e-05 0)
(0.0005171 1.179e-05 0)
(0.0005124 1.056e-05 0)
(0.0005083 9.441e-06 0)
(0.0005045 8.439e-06 0)
(0.0005012 7.541e-06 0)
(0.0004982 6.74e-06 0)
(0.0004955 6.03e-06 0)
(0.0004931 5.408e-06 0)
(0.0004909 4.869e-06 0)
(0.000489 4.41e-06 0)
(0.0004872 4.031e-06 0)
(0.0004856 3.732e-06 0)
(0.0004841 3.513e-06 0)
(0.0004827 3.375e-06 0)
(0.0004814 3.319e-06 0)
(0.0004802 3.341e-06 0)
(0.000479 3.431e-06 0)
(0.0004779 3.56e-06 0)
(0.0004768 3.66e-06 0)
(0.001214 0.000152 0)
(0.001246 0.0003353 0)
(0.001274 0.000418 0)
(0.001282 0.000435 0)
(0.001269 0.0004163 0)
(0.00124 0.0003809 0)
(0.001201 0.0003398 0)
(0.001155 0.0002987 0)
(0.001109 0.0002604 0)
(0.001062 0.0002261 0)
(0.001019 0.0001957 0)
(0.0009779 0.0001692 0)
(0.0009407 0.0001461 0)
(0.0009072 0.0001259 0)
(0.0008774 0.0001082 0)
(0.000851 9.258e-05 0)
(0.000828 7.877e-05 0)
(0.0008081 6.646e-05 0)
(0.0007913 5.538e-05 0)
(0.0007772 4.533e-05 0)
(0.0007657 3.613e-05 0)
(0.0007567 2.761e-05 0)
(0.0007501 1.964e-05 0)
(0.0007457 1.21e-05 0)
(0.0007436 4.885e-06 0)
(0.0007436 -2.097e-06 0)
(0.0007457 -8.93e-06 0)
(0.0007499 -1.569e-05 0)
(0.0007562 -2.244e-05 0)
(0.0007645 -2.924e-05 0)
(0.000775 -3.614e-05 0)
(0.0007877 -4.319e-05 0)
(0.0008026 -5.042e-05 0)
(0.0008198 -5.787e-05 0)
(0.0008393 -6.556e-05 0)
(0.0008612 -7.35e-05 0)
(0.0008857 -8.169e-05 0)
(0.0009127 -9.013e-05 0)
(0.0009422 -9.878e-05 0)
(0.0009745 -0.0001076 0)
(0.001009 -0.0001166 0)
(0.001047 -0.0001256 0)
(0.001088 -0.0001346 0)
(0.001131 -0.0001434 0)
(0.001176 -0.0001519 0)
(0.001225 -0.0001599 0)
(0.001275 -0.0001673 0)
(0.001328 -0.0001739 0)
(0.001382 -0.0001793 0)
(0.001438 -0.0001835 0)
(0.001494 -0.0001861 0)
(0.001551 -0.0001869 0)
(0.001608 -0.0001856 0)
(0.001665 -0.0001821 0)
(0.001719 -0.0001761 0)
(0.001772 -0.0001675 0)
(0.001822 -0.0001563 0)
(0.001867 -0.0001424 0)
(0.001908 -0.0001259 0)
(0.001944 -0.000107 0)
(0.001974 -8.605e-05 0)
(0.001997 -6.334e-05 0)
(0.002013 -3.939e-05 0)
(0.002021 -1.475e-05 0)
(0.002022 1.002e-05 0)
(0.002015 3.433e-05 0)
(0.002001 5.767e-05 0)
(0.001981 7.958e-05 0)
(0.001953 9.97e-05 0)
(0.00192 0.0001178 0)
(0.001882 0.0001336 0)
(0.00184 0.0001471 0)
(0.001793 0.0001582 0)
(0.001743 0.000167 0)
(0.001691 0.0001736 0)
(0.001638 0.000178 0)
(0.001583 0.0001803 0)
(0.001527 0.0001809 0)
(0.001472 0.0001797 0)
(0.001417 0.0001771 0)
(0.001363 0.0001732 0)
(0.00131 0.0001682 0)
(0.001259 0.0001623 0)
(0.00121 0.0001557 0)
(0.001163 0.0001485 0)
(0.001118 0.000141 0)
(0.001075 0.0001333 0)
(0.001034 0.0001254 0)
(0.0009961 0.0001176 0)
(0.0009603 0.0001098 0)
(0.0009269 0.0001022 0)
(0.0008957 9.48e-05 0)
(0.0008668 8.769e-05 0)
(0.00084 8.09e-05 0)
(0.0008152 7.444e-05 0)
(0.0007924 6.834e-05 0)
(0.0007715 6.26e-05 0)
(0.0007522 5.722e-05 0)
(0.0007346 5.22e-05 0)
(0.0007185 4.753e-05 0)
(0.0007038 4.32e-05 0)
(0.0006904 3.92e-05 0)
(0.0006783 3.551e-05 0)
(0.0006672 3.212e-05 0)
(0.0006572 2.901e-05 0)
(0.0006481 2.616e-05 0)
(0.00064 2.356e-05 0)
(0.0006326 2.119e-05 0)
(0.0006259 1.904e-05 0)
(0.0006199 1.708e-05 0)
(0.0006145 1.531e-05 0)
(0.0006097 1.371e-05 0)
(0.0006053 1.226e-05 0)
(0.0006014 1.097e-05 0)
(0.0005979 9.811e-06 0)
(0.0005948 8.784e-06 0)
(0.000592 7.879e-06 0)
(0.0005894 7.091e-06 0)
(0.0005872 6.416e-06 0)
(0.0005851 5.85e-06 0)
(0.0005832 5.392e-06 0)
(0.0005815 5.039e-06 0)
(0.00058 4.792e-06 0)
(0.0005785 4.647e-06 0)
(0.0005772 4.598e-06 0)
(0.0005759 4.628e-06 0)
(0.0005747 4.707e-06 0)
(0.0005735 4.775e-06 0)
(0.00121 0.0001278 0)
(0.001237 0.0003006 0)
(0.001267 0.0003953 0)
(0.001285 0.0004315 0)
(0.001287 0.0004305 0)
(0.001274 0.0004083 0)
(0.001251 0.0003757 0)
(0.00122 0.000339 0)
(0.001184 0.0003023 0)
(0.001147 0.0002674 0)
(0.001111 0.0002352 0)
(0.001075 0.000206 0)
(0.001042 0.0001798 0)
(0.001011 0.0001564 0)
(0.0009828 0.0001355 0)
(0.0009578 0.0001167 0)
(0.0009356 9.983e-05 0)
(0.0009162 8.459e-05 0)
(0.0008997 7.072e-05 0)
(0.0008857 5.801e-05 0)
(0.0008744 4.627e-05 0)
(0.0008655 3.532e-05 0)
(0.0008591 2.501e-05 0)
(0.0008549 1.521e-05 0)
(0.0008531 5.782e-06 0)
(0.0008535 -3.373e-06 0)
(0.0008561 -1.236e-05 0)
(0.0008609 -2.127e-05 0)
(0.0008679 -3.018e-05 0)
(0.0008772 -3.916e-05 0)
(0.0008888 -4.829e-05 0)
(0.0009027 -5.761e-05 0)
(0.000919 -6.718e-05 0)
(0.0009377 -7.703e-05 0)
(0.000959 -8.719e-05 0)
(0.0009828 -9.768e-05 0)
(0.001009 -0.0001085 0)
(0.001039 -0.0001196 0)
(0.001071 -0.000131 0)
(0.001106 -0.0001426 0)
(0.001144 -0.0001544 0)
(0.001184 -0.0001663 0)
(0.001228 -0.000178 0)
(0.001275 -0.0001896 0)
(0.001324 -0.0002008 0)
(0.001376 -0.0002113 0)
(0.001431 -0.000221 0)
(0.001488 -0.0002295 0)
(0.001546 -0.0002367 0)
(0.001607 -0.0002421 0)
(0.001668 -0.0002455 0)
(0.00173 -0.0002465 0)
(0.001792 -0.0002448 0)
(0.001853 -0.0002401 0)
(0.001912 -0.0002323 0)
(0.001969 -0.000221 0)
(0.002023 -0.0002062 0)
(0.002073 -0.0001879 0)
(0.002117 -0.0001662 0)
(0.002156 -0.0001413 0)
(0.002189 -0.0001137 0)
(0.002214 -8.374e-05 0)
(0.002231 -5.215e-05 0)
(0.00224 -1.963e-05 0)
(0.002241 1.305e-05 0)
(0.002234 4.511e-05 0)
(0.002219 7.588e-05 0)
(0.002196 0.0001047 0)
(0.002167 0.0001313 0)
(0.002131 0.0001551 0)
(0.002089 0.0001759 0)
(0.002043 0.0001937 0)
(0.001993 0.0002084 0)
(0.001939 0.0002201 0)
(0.001883 0.0002288 0)
(0.001825 0.0002346 0)
(0.001766 0.0002379 0)
(0.001706 0.0002387 0)
(0.001646 0.0002372 0)
(0.001586 0.0002339 0)
(0.001528 0.0002288 0)
(0.001471 0.0002223 0)
(0.001415 0.0002147 0)
(0.001362 0.0002061 0)
(0.00131 0.0001967 0)
(0.001262 0.0001869 0)
(0.001215 0.0001767 0)
(0.001171 0.0001664 0)
(0.00113 0.0001561 0)
(0.001091 0.0001459 0)
(0.001054 0.0001359 0)
(0.00102 0.0001262 0)
(0.0009889 0.0001168 0)
(0.0009596 0.0001078 0)
(0.0009326 9.93e-05 0)
(0.0009077 9.123e-05 0)
(0.0008847 8.363e-05 0)
(0.0008636 7.651e-05 0)
(0.0008443 6.985e-05 0)
(0.0008266 6.365e-05 0)
(0.0008105 5.79e-05 0)
(0.0007958 5.259e-05 0)
(0.0007824 4.768e-05 0)
(0.0007702 4.316e-05 0)
(0.0007592 3.902e-05 0)
(0.0007492 3.522e-05 0)
(0.0007401 3.175e-05 0)
(0.0007319 2.858e-05 0)
(0.0007245 2.57e-05 0)
(0.0007179 2.308e-05 0)
(0.0007119 2.07e-05 0)
(0.0007065 1.855e-05 0)
(0.0007016 1.661e-05 0)
(0.0006973 1.487e-05 0)
(0.0006934 1.331e-05 0)
(0.0006899 1.192e-05 0)
(0.0006867 1.07e-05 0)
(0.0006839 9.623e-06 0)
(0.0006814 8.695e-06 0)
(0.0006791 7.909e-06 0)
(0.000677 7.26e-06 0)
(0.0006752 6.744e-06 0)
(0.0006734 6.358e-06 0)
(0.0006719 6.096e-06 0)
(0.0006704 5.948e-06 0)
(0.0006691 5.898e-06 0)
(0.0006678 5.914e-06 0)
(0.0006666 5.947e-06 0)
(0.001208 0.0001096 0)
(0.00123 0.0002694 0)
(0.001259 0.0003686 0)
(0.001281 0.0004175 0)
(0.001293 0.0004307 0)
(0.001292 0.0004209 0)
(0.001281 0.0003976 0)
(0.001263 0.0003671 0)
(0.001238 0.0003339 0)
(0.001211 0.0003004 0)
(0.001182 0.0002681 0)
(0.001153 0.0002378 0)
(0.001124 0.0002098 0)
(0.001097 0.0001841 0)
(0.001073 0.0001607 0)
(0.00105 0.0001393 0)
(0.00103 0.0001198 0)
(0.001012 0.0001019 0)
(0.0009962 8.545e-05 0)
(0.0009831 7.022e-05 0)
(0.0009725 5.603e-05 0)
(0.0009642 4.269e-05 0)
(0.0009583 3.005e-05 0)
(0.0009546 1.796e-05 0)
(0.0009532 6.276e-06 0)
(0.0009541 -5.118e-06 0)
(0.0009572 -1.634e-05 0)
(0.0009626 -2.749e-05 0)
(0.0009703 -3.866e-05 0)
(0.0009803 -4.995e-05 0)
(0.0009926 -6.142e-05 0)
(0.001007 -7.315e-05 0)
(0.001025 -8.519e-05 0)
(0.001044 -9.758e-05 0)
(0.001067 -0.0001104 0)
(0.001092 -0.0001235 0)
(0.00112 -0.0001371 0)
(0.001151 -0.0001511 0)
(0.001185 -0.0001654 0)
(0.001221 -0.00018 0)
(0.001261 -0.0001948 0)
(0.001304 -0.0002096 0)
(0.00135 -0.0002244 0)
(0.001399 -0.0002389 0)
(0.001451 -0.0002528 0)
(0.001506 -0.000266 0)
(0.001563 -0.0002782 0)
(0.001623 -0.0002889 0)
(0.001684 -0.0002978 0)
(0.001748 -0.0003046 0)
(0.001812 -0.0003088 0)
(0.001878 -0.0003101 0)
(0.001943 -0.000308 0)
(0.002007 -0.0003022 0)
(0.00207 -0.0002924 0)
(0.00213 -0.0002783 0)
(0.002187 -0.0002598 0)
(0.00224 -0.0002368 0)
(0.002287 -0.0002095 0)
(0.002329 -0.0001783 0)
(0.002363 -0.0001434 0)
(0.00239 -0.0001057 0)
(0.002408 -6.588e-05 0)
(0.002418 -2.486e-05 0)
(0.002419 1.634e-05 0)
(0.002411 5.675e-05 0)
(0.002395 9.548e-05 0)
(0.002371 0.0001318 0)
(0.00234 0.0001651 0)
(0.002302 0.000195 0)
(0.002258 0.0002212 0)
(0.002209 0.0002435 0)
(0.002156 0.000262 0)
(0.0021 0.0002767 0)
(0.00204 0.0002877 0)
(0.001979 0.0002951 0)
(0.001917 0.0002992 0)
(0.001854 0.0003003 0)
(0.00179 0.0002986 0)
(0.001728 0.0002945 0)
(0.001666 0.0002882 0)
(0.001606 0.0002802 0)
(0.001548 0.0002706 0)
(0.001492 0.0002599 0)
(0.001438 0.0002482 0)
(0.001386 0.0002359 0)
(0.001337 0.0002232 0)
(0.001291 0.0002103 0)
(0.001247 0.0001974 0)
(0.001206 0.0001845 0)
(0.001168 0.000172 0)
(0.001132 0.0001598 0)
(0.001099 0.000148 0)
(0.001068 0.0001367 0)
(0.001039 0.000126 0)
(0.001013 0.0001159 0)
(0.0009884 0.0001063 0)
(0.0009661 9.729e-05 0)
(0.0009456 8.889e-05 0)
(0.0009268 8.106e-05 0)
(0.0009097 7.38e-05 0)
(0.000894 6.707e-05 0)
(0.0008797 6.086e-05 0)
(0.0008668 5.514e-05 0)
(0.000855 4.988e-05 0)
(0.0008443 4.506e-05 0)
(0.0008346 4.065e-05 0)
(0.0008258 3.663e-05 0)
(0.0008179 3.296e-05 0)
(0.0008108 2.962e-05 0)
(0.0008043 2.659e-05 0)
(0.0007985 2.385e-05 0)
(0.0007933 2.137e-05 0)
(0.0007886 1.915e-05 0)
(0.0007844 1.715e-05 0)
(0.0007806 1.536e-05 0)
(0.0007773 1.378e-05 0)
(0.0007742 1.239e-05 0)
(0.0007715 1.119e-05 0)
(0.000769 1.015e-05 0)
(0.0007668 9.287e-06 0)
(0.0007648 8.582e-06 0)
(0.000763 8.032e-06 0)
(0.0007614 7.629e-06 0)
(0.0007599 7.362e-06 0)
(0.0007585 7.214e-06 0)
(0.0007572 7.158e-06 0)
(0.000756 7.152e-06 0)
(0.001206 9.558e-05 0)
(0.001225 0.0002422 0)
(0.001251 0.0003413 0)
(0.001275 0.0003979 0)
(0.001293 0.0004217 0)
(0.0013 0.0004225 0)
(0.001299 0.000408 0)
(0.001291 0.0003843 0)
(0.001276 0.0003556 0)
(0.001257 0.0003249 0)
(0.001236 0.0002938 0)
(0.001214 0.0002636 0)
(0.001191 0.0002349 0)
(0.001169 0.0002079 0)
(0.001148 0.0001827 0)
(0.001129 0.0001594 0)
(0.001111 0.0001377 0)
(0.001095 0.0001176 0)
(0.001081 9.893e-05 0)
(0.00107 8.143e-05 0)
(0.00106 6.496e-05 0)
(0.001053 4.937e-05 0)
(0.001048 3.448e-05 0)
(0.001045 2.016e-05 0)
(0.001044 6.247e-06 0)
(0.001045 -7.376e-06 0)
(0.001049 -2.084e-05 0)
(0.001055 -3.425e-05 0)
(0.001063 -4.773e-05 0)
(0.001073 -6.136e-05 0)
(0.001086 -7.523e-05 0)
(0.001102 -8.942e-05 0)
(0.001119 -0.000104 0)
(0.00114 -0.000119 0)
(0.001163 -0.0001345 0)
(0.001189 -0.0001504 0)
(0.001217 -0.0001669 0)
(0.001249 -0.0001838 0)
(0.001284 -0.0002011 0)
(0.001321 -0.0002188 0)
(0.001362 -0.0002366 0)
(0.001406 -0.0002546 0)
(0.001453 -0.0002724 0)
(0.001503 -0.0002899 0)
(0.001556 -0.0003068 0)
(0.001612 -0.0003228 0)
(0.001671 -0.0003375 0)
(0.001732 -0.0003505 0)
(0.001796 -0.0003614 0)
(0.001861 -0.0003696 0)
(0.001927 -0.0003748 0)
(0.001995 -0.0003764 0)
(0.002062 -0.000374 0)
(0.002128 -0.0003671 0)
(0.002193 -0.0003553 0)
(0.002256 -0.0003383 0)
(0.002315 -0.0003159 0)
(0.00237 -0.0002882 0)
(0.002419 -0.0002551 0)
(0.002462 -0.0002172 0)
(0.002498 -0.0001748 0)
(0.002526 -0.0001289 0)
(0.002545 -8.032e-05 0)
(0.002555 -3.031e-05 0)
(0.002556 1.99e-05 0)
(0.002548 6.91e-05 0)
(0.002531 0.0001162 0)
(0.002506 0.0001603 0)
(0.002473 0.0002006 0)
(0.002434 0.0002368 0)
(0.002388 0.0002685 0)
(0.002338 0.0002956 0)
(0.002283 0.0003179 0)
(0.002225 0.0003357 0)
(0.002164 0.000349 0)
(0.002101 0.000358 0)
(0.002036 0.000363 0)
(0.001971 0.0003644 0)
(0.001907 0.0003624 0)
(0.001842 0.0003575 0)
(0.001779 0.00035 0)
(0.001717 0.0003403 0)
(0.001657 0.0003288 0)
(0.0016 0.0003158 0)
(0.001544 0.0003017 0)
(0.001491 0.0002869 0)
(0.001441 0.0002715 0)
(0.001393 0.0002559 0)
(0.001348 0.0002403 0)
(0.001306 0.0002248 0)
(0.001267 0.0002096 0)
(0.00123 0.0001948 0)
(0.001196 0.0001806 0)
(0.001164 0.0001669 0)
(0.001135 0.0001539 0)
(0.001107 0.0001416 0)
(0.001082 0.0001299 0)
(0.001059 0.000119 0)
(0.001038 0.0001088 0)
(0.001019 9.93e-05 0)
(0.001001 9.046e-05 0)
(0.0009849 8.227e-05 0)
(0.0009701 7.47e-05 0)
(0.0009567 6.772e-05 0)
(0.0009444 6.131e-05 0)
(0.0009333 5.543e-05 0)
(0.0009233 5.004e-05 0)
(0.0009142 4.512e-05 0)
(0.0009059 4.063e-05 0)
(0.0008985 3.654e-05 0)
(0.0008918 3.283e-05 0)
(0.0008857 2.946e-05 0)
(0.0008803 2.642e-05 0)
(0.0008754 2.368e-05 0)
(0.000871 2.122e-05 0)
(0.000867 1.902e-05 0)
(0.0008635 1.706e-05 0)
(0.0008603 1.533e-05 0)
(0.0008574 1.382e-05 0)
(0.0008549 1.252e-05 0)
(0.0008526 1.142e-05 0)
(0.0008505 1.05e-05 0)
(0.0008487 9.771e-06 0)
(0.000847 9.21e-06 0)
(0.0008455 8.809e-06 0)
(0.0008441 8.552e-06 0)
(0.0008428 8.415e-06 0)
(0.0008415 8.369e-06 0)
(0.001205 8.436e-05 0)
(0.001221 0.0002186 0)
(0.001245 0.000315 0)
(0.001269 0.0003756 0)
(0.001289 0.0004069 0)
(0.001303 0.000416 0)
(0.001309 0.0004094 0)
(0.001308 0.0003922 0)
(0.001302 0.0003686 0)
(0.001291 0.0003413 0)
(0.001277 0.0003124 0)
(0.001262 0.0002833 0)
(0.001245 0.0002547 0)
(0.001228 0.0002272 0)
(0.001211 0.0002011 0)
(0.001195 0.0001764 0)
(0.00118 0.0001531 0)
(0.001167 0.0001313 0)
(0.001155 0.0001107 0)
(0.001146 9.119e-05 0)
(0.001138 7.27e-05 0)
(0.001131 5.505e-05 0)
(0.001127 3.808e-05 0)
(0.001125 2.165e-05 0)
(0.001125 5.621e-06 0)
(0.001127 -1.015e-05 0)
(0.001131 -2.58e-05 0)
(0.001137 -4.143e-05 0)
(0.001146 -5.717e-05 0)
(0.001157 -7.312e-05 0)
(0.00117 -8.938e-05 0)
(0.001185 -0.000106 0)
(0.001203 -0.0001231 0)
(0.001224 -0.0001407 0)
(0.001247 -0.0001589 0)
(0.001273 -0.0001777 0)
(0.001301 -0.000197 0)
(0.001333 -0.0002169 0)
(0.001368 -0.0002372 0)
(0.001405 -0.000258 0)
(0.001446 -0.000279 0)
(0.00149 -0.0003001 0)
(0.001537 -0.0003211 0)
(0.001587 -0.0003417 0)
(0.00164 -0.0003616 0)
(0.001697 -0.0003804 0)
(0.001756 -0.0003977 0)
(0.001817 -0.0004131 0)
(0.001881 -0.0004259 0)
(0.001946 -0.0004358 0)
(0.002013 -0.000442 0)
(0.002081 -0.0004441 0)
(0.002149 -0.0004414 0)
(0.002216 -0.0004334 0)
(0.002282 -0.0004197 0)
(0.002346 -0.0003999 0)
(0.002406 -0.0003737 0)
(0.002462 -0.0003411 0)
(0.002512 -0.0003022 0)
(0.002557 -0.0002574 0)
(0.002593 -0.0002073 0)
(0.002622 -0.0001528 0)
(0.002642 -9.519e-05 0)
(0.002652 -3.582e-05 0)
(0.002653 2.377e-05 0)
(0.002644 8.207e-05 0)
(0.002626 0.0001378 0)
(0.0026 0.0001897 0)
(0.002567 0.0002373 0)
(0.002527 0.0002798 0)
(0.002481 0.000317 0)
(0.002429 0.0003488 0)
(0.002374 0.000375 0)
(0.002315 0.0003959 0)
(0.002253 0.0004115 0)
(0.00219 0.0004221 0)
(0.002125 0.000428 0)
(0.00206 0.0004296 0)
(0.001994 0.0004273 0)
(0.00193 0.0004216 0)
(0.001866 0.0004127 0)
(0.001804 0.0004013 0)
(0.001744 0.0003878 0)
(0.001686 0.0003726 0)
(0.00163 0.0003561 0)