/*--------------------------------*- C++ -*----------------------------------*\
  =========                 |
  \\      /  F ield         | OpenFOAM: The Open Source CFD Toolbox
   \\    /   O peration     | Website:  https://openfoam.org
    \\  /    A nd           | Version:  7
     \\/     M anipulation  |
\*---------------------------------------------------------------------------*/
FoamFile
{
    version     2.0;
    format      ascii;
    class       volScalarField;
    location    "1019.9994734106026";
    object      Y.K;
}
// * * * * * * * * * * * * * * * * * * * * * * * * * * * * * * * * * * * * * //

dimensions      [0 0 0 0 0 0 0];

internalField   nonuniform List<scalar> 
4096
(
2.534e-70
2.26e-68
-7.81e-69
1.088e-68
-3.66e-69
-8.352e-69
3.584e-69
2.516e-69
-5.724e-70
-1.491e-68
1.508e-67
-2.232e-66
3.38e-65
-4.554e-64
6.071e-63
-7.592e-62
9.139e-61
-1.081e-59
1.201e-58
-1.33e-57
1.427e-56
-1.482e-55
1.503e-54
-1.473e-53
1.393e-52
-1.258e-51
1.062e-50
-8.819e-50
7.161e-49
-5.641e-48
4.267e-47
-3.056e-46
2.027e-45
-1.187e-44
5.498e-44
-1.146e-43
-1.762e-42
3.052e-41
-3.503e-40
3.179e-39
-2.567e-38
1.837e-37
-1.192e-36
7.029e-36
-3.737e-35
1.755e-34
-7.099e-34
2.304e-33
-4.883e-33
-4.825e-33
1.357e-31
-5.045e-31
3.468e-30
1.492e-29
-4.65e-29
1.01e-27
-1.551e-27
1.866e-26
3.663e-26
4.108e-25
1.551e-24
1.45e-23
4.927e-23
1.541e-22
1.113e-21
3.353e-21
1.117e-20
1.372e-19
1.891e-18
5.53e-18
1.197e-17
2.302e-17
4.154e-17
7.185e-17
1.203e-16
1.961e-16
3.119e-16
4.851e-16
7.392e-16
1.105e-15
1.621e-15
2.337e-15
3.315e-15
4.631e-15
6.377e-15
8.66e-15
1.161e-14
1.538e-14
2.015e-14
2.612e-14
3.352e-14
4.262e-14
5.373e-14
6.72e-14
8.341e-14
1.028e-13
1.259e-13
1.533e-13
1.855e-13
2.233e-13
2.674e-13
3.188e-13
3.785e-13
4.474e-13
5.269e-13
6.182e-13
7.229e-13
8.426e-13
9.791e-13
1.134e-12
1.311e-12
1.511e-12
1.736e-12
1.991e-12
2.279e-12
2.602e-12
2.964e-12
3.371e-12
3.826e-12
4.334e-12
4.9e-12
5.529e-12
6.226e-12
6.994e-12
7.827e-12
8.705e-12
9.565e-12
1.024e-11
-7.521e-68
3.971e-67
-5.114e-67
7.869e-68
3.593e-67
-3.158e-67
9.357e-69
1.711e-67
1.89e-68
-9.072e-67
8.261e-66
-1.244e-64
1.836e-63
-2.548e-62
3.344e-61
-4.179e-60
5.005e-59
-5.785e-58
6.485e-57
-7.074e-56
7.52e-55
-7.791e-54
7.852e-53
-7.667e-52
7.22e-51
-6.49e-50
5.481e-49
-4.556e-48
3.702e-47
-2.917e-46
2.209e-45
-1.586e-44
1.056e-43
-6.26e-43
2.999e-42
-7.68e-42
-7.078e-41
1.421e-39
-1.687e-38
1.508e-37
-1.223e-36
8.755e-36
-5.674e-35
3.352e-34
-1.785e-33
8.519e-33
-3.478e-32
1.156e-31
-2.744e-31
-1.7e-32
5.698e-30
-2.133e-29
1.936e-28
7.012e-28
-8.208e-28
4.607e-26
-3.887e-26
8.615e-25
2.29e-24
1.979e-23
8.343e-23
6.526e-22
2.212e-21
6.817e-21
4.22e-20
1.261e-19
3.385e-19
1.951e-18
5.404e-18
1.156e-17
2.219e-17
4.004e-17
6.918e-17
1.156e-16
1.876e-16
2.969e-16
4.593e-16
6.956e-16
1.033e-15
1.506e-15
2.16e-15
3.047e-15
4.234e-15
5.803e-15
7.848e-15
1.049e-14
1.385e-14
1.81e-14
2.341e-14
3.001e-14
3.812e-14
4.803e-14
6.005e-14
7.454e-14
9.191e-14
1.126e-13
1.372e-13
1.661e-13
2.002e-13
2.401e-13
2.866e-13
3.406e-13
4.032e-13
4.754e-13
5.586e-13
6.541e-13
7.635e-13
8.884e-13
1.031e-12
1.193e-12
1.376e-12
1.584e-12
1.82e-12
2.085e-12
2.384e-12
2.719e-12
3.096e-12
3.518e-12
3.99e-12
4.517e-12
5.105e-12
5.759e-12
6.484e-12
7.285e-12
8.164e-12
9.114e-12
1.011e-11
1.104e-11
1.686e-66
-1.175e-65
2.96e-65
-3.999e-65
2.821e-65
-4.753e-66
-9.425e-66
8.248e-66
4.262e-66
-5.353e-65
4.406e-64
-6.557e-63
9.621e-62
-1.326e-60
1.725e-59
-2.135e-58
2.534e-57
-2.903e-56
3.226e-55
-3.492e-54
3.686e-53
-3.795e-52
3.802e-51
-3.694e-50
3.464e-49
-3.102e-48
2.626e-47
-2.188e-46
1.782e-45
-1.409e-44
1.071e-43
-7.743e-43
5.218e-42
-3.167e-41
1.606e-40
-5.333e-40
-1.781e-39
5.454e-38
-6.986e-37
6.353e-36
-5.251e-35
3.787e-34
-2.468e-33
1.47e-32
-7.914e-32
3.843e-31
-1.602e-30
5.6e-30
-1.507e-29
1.212e-29
1.998e-28
-7.527e-28
1.095e-26
3.097e-26
5.881e-26
1.97e-24
6.79e-25
3.705e-23
1.422e-22
9.767e-22
4.371e-21
2.812e-20
9.376e-20
2.706e-19
1.298e-18
3.654e-18
8.049e-18
1.613e-17
3.045e-17
5.488e-17
9.511e-17
1.592e-16
2.583e-16
4.073e-16
6.255e-16
9.375e-16
1.374e-15
1.972e-15
2.778e-15
3.845e-15
5.237e-15
7.029e-15
9.31e-15
1.218e-14
1.576e-14
2.019e-14
2.562e-14
3.225e-14
4.028e-14
4.997e-14
6.158e-14
7.545e-14
9.193e-14
1.114e-13
1.344e-13
1.615e-13
1.932e-13
2.301e-13
2.732e-13
3.231e-13
3.809e-13
4.476e-13
5.244e-13
6.126e-13
7.137e-13
8.292e-13
9.609e-13
1.111e-12
1.281e-12
1.474e-12
1.693e-12
1.94e-12
2.218e-12
2.531e-12
2.883e-12
3.278e-12
3.721e-12
4.215e-12
4.767e-12
5.383e-12
6.067e-12
6.828e-12
7.671e-12
8.604e-12
9.633e-12
1.076e-11
1.199e-11
1.336e-11
-2.765e-65
2.198e-64
-7.767e-64
1.688e-63
-2.397e-63
2.247e-63
-1.28e-63
2.686e-64
2.903e-64
-3.009e-63
2.221e-62
-3.235e-61
4.694e-60
-6.381e-59
8.179e-58
-9.973e-57
1.166e-55
-1.317e-54
1.446e-53
-1.547e-52
1.616e-51
-1.648e-50
1.639e-49
-1.583e-48
1.478e-47
-1.32e-46
1.122e-45
-9.384e-45
7.68e-44
-6.108e-43
4.684e-42
-3.427e-41
2.355e-40
-1.481e-39
8.055e-39
-3.37e-38
2.346e-38
1.493e-36
-2.326e-35
2.216e-34
-1.914e-33
1.407e-32
-9.287e-32
5.636e-31
-3.101e-30
1.552e-29
-6.681e-29
2.499e-28
-7.739e-28
1.327e-27
4.202e-27
-1.426e-26
6.074e-25
1.191e-24
8.069e-24
7.702e-23
1.323e-22
1.835e-21
7.695e-21
4.509e-20
1.943e-19
9.559e-19
2.947e-18
7.166e-18
1.572e-17
3.22e-17
6.249e-17
1.157e-16
2.051e-16
3.496e-16
5.746e-16
9.127e-16
1.405e-15
2.1e-15
3.055e-15
4.336e-15
6.014e-15
8.169e-15
1.089e-14
1.426e-14
1.84e-14
2.341e-14
2.942e-14
3.657e-14
4.503e-14
5.497e-14
6.663e-14
8.024e-14
9.608e-14
1.145e-13
1.359e-13
1.606e-13
1.892e-13
2.223e-13
2.604e-13
3.044e-13
3.549e-13
4.13e-13
4.796e-13
5.56e-13
6.433e-13
7.431e-13
8.569e-13
9.865e-13
1.134e-12
1.301e-12
1.49e-12
1.705e-12
1.947e-12
2.22e-12
2.528e-12
2.874e-12
3.263e-12
3.698e-12
4.186e-12
4.731e-12
5.339e-12
6.017e-12
6.771e-12
7.609e-12
8.538e-12
9.567e-12
1.07e-11
1.196e-11
1.334e-11
1.486e-11
1.654e-11
1.864e-11
3.917e-64
-3.383e-63
1.48e-62
-4.302e-62
8.769e-62
-1.296e-61
1.395e-61
-1.053e-61
5.016e-62
-1.56e-61
1.065e-60
-1.491e-59
2.119e-58
-2.814e-57
3.519e-56
-4.188e-55
4.785e-54
-5.292e-53
5.698e-52
-5.992e-51
6.168e-50
-6.214e-49
6.116e-48
-5.862e-47
5.448e-46
-4.859e-45
4.156e-44
-3.5e-43
2.887e-42
-2.318e-41
1.8e-40
-1.34e-39
9.452e-39
-6.206e-38
3.668e-37
-1.844e-36
6.004e-36
1.106e-35
-5.183e-34
5.797e-33
-5.56e-32
4.267e-31
-2.881e-30
1.811e-29
-1.034e-28
5.427e-28
-2.427e-27
9.82e-27
-3.344e-26
9.252e-26
-3.625e-26
2.935e-25
2.453e-23
4.853e-23
5.58e-22
2.771e-21
1.098e-20
8.13e-20
3.477e-19
1.681e-18
5.507e-18
1.437e-17
3.377e-17
7.39e-17
1.523e-16
2.973e-16
5.519e-16
9.774e-16
1.656e-15
2.693e-15
4.213e-15
6.359e-15
9.284e-15
1.315e-14
1.81e-14
2.428e-14
3.183e-14
4.086e-14
5.148e-14
6.377e-14
7.785e-14
9.382e-14
1.118e-13
1.32e-13
1.547e-13
1.799e-13
2.082e-13
2.399e-13
2.754e-13
3.152e-13
3.599e-13
4.103e-13
4.672e-13
5.314e-13
6.04e-13
6.861e-13
7.79e-13
8.842e-13
1.003e-12
1.138e-12
1.291e-12
1.463e-12
1.658e-12
1.878e-12
2.126e-12
2.406e-12
2.721e-12
3.075e-12
3.473e-12
3.919e-12
4.419e-12
4.978e-12
5.602e-12
6.3e-12
7.076e-12
7.941e-12
8.902e-12
9.968e-12
1.115e-11
1.246e-11
1.39e-11
1.549e-11
1.725e-11
1.917e-11
2.129e-11
2.36e-11
2.616e-11
2.96e-11
-5.096e-63
4.645e-62
-2.356e-61
8.428e-61
-2.214e-60
4.412e-60
-6.751e-60
7.82e-60
-6.435e-60
-4.108e-60
4.782e-59
-6.363e-58
8.73e-57
-1.116e-55
1.343e-54
-1.541e-53
1.701e-52
-1.824e-51
1.91e-50
-1.962e-49
1.979e-48
-1.96e-47
1.904e-46
-1.808e-45
1.673e-44
-1.493e-43
1.288e-42
-1.096e-41
9.137e-41
-7.434e-40
5.871e-39
-4.47e-38
3.253e-37
-2.238e-36
1.431e-35
-8.225e-35
4.09e-34
-1.29e-33
-5.106e-34
6.971e-32
-1.097e-30
9.612e-30
-6.776e-29
4.566e-28
-2.791e-27
1.576e-26
-7.299e-26
3.176e-25
-1.212e-24
4.385e-24
-7.375e-24
4.701e-23
5.038e-22
3.396e-21
2.889e-20
1.357e-19
5.713e-19
2.852e-18
1.003e-17
2.856e-17
7.348e-17
1.757e-16
3.936e-16
8.295e-16
1.649e-15
3.102e-15
5.531e-15
9.383e-15
1.518e-14
2.352e-14
3.496e-14
5.004e-14
6.916e-14
9.259e-14
1.204e-13
1.525e-13
1.886e-13
2.285e-13
2.717e-13
3.178e-13
3.668e-13
4.183e-13
4.726e-13
5.297e-13
5.9e-13
6.541e-13
7.226e-13
7.963e-13
8.762e-13
9.633e-13
1.059e-12
1.165e-12
1.282e-12
1.412e-12
1.557e-12
1.719e-12
1.901e-12
2.105e-12
2.334e-12
2.592e-12
2.881e-12
3.205e-12
3.569e-12
3.977e-12
4.435e-12
4.948e-12
5.523e-12
6.165e-12
6.883e-12
7.684e-12
8.577e-12
9.572e-12
1.068e-11
1.191e-11
1.327e-11
1.479e-11
1.646e-11
1.831e-11
2.035e-11
2.26e-11
2.508e-11
2.78e-11
3.078e-11
3.404e-11
3.76e-11
4.149e-11
4.575e-11
5.175e-11
6.265e-62
-5.918e-61
3.344e-60
-1.4e-59
4.472e-59
-1.12e-58
2.227e-58
-3.492e-58
4.184e-58
-4.986e-58
1.999e-57
-2.461e-56
3.196e-55
-3.854e-54
4.377e-53
-4.758e-52
5e-51
-5.136e-50
5.182e-49
-5.153e-48
5.058e-47
-4.903e-46
4.687e-45
-4.406e-44
4.058e-43
-3.635e-42
3.177e-41
-2.739e-40
2.319e-39
-1.92e-38
1.549e-37
-1.211e-36
9.121e-36
-6.575e-35
4.496e-34
-2.881e-33
1.699e-32
-8.724e-32
4.969e-31
-9.88e-31
-3.793e-30
7.669e-29
-8.288e-28
7.493e-27
-5.404e-26
3.462e-25
-1.704e-24
7.775e-24
-3.126e-23
1.41e-22
-1.456e-22
2.827e-21
2.48e-20
1.77e-19
1.126e-18
4.752e-18
1.636e-17
5.084e-17
1.461e-16
3.905e-16
9.74e-16
2.27e-15
4.951e-15
1.013e-14
1.946e-14
3.523e-14
6.027e-14
9.772e-14
1.507e-13
2.218e-13
3.127e-13
4.237e-13
5.534e-13
6.994e-13
8.577e-13
1.024e-12
1.194e-12
1.363e-12
1.528e-12
1.687e-12
1.84e-12
1.986e-12
2.126e-12
2.262e-12
2.397e-12
2.532e-12
2.671e-12
2.817e-12
2.972e-12
3.14e-12
3.323e-12
3.526e-12
3.752e-12
4.005e-12
4.287e-12
4.605e-12
4.961e-12
5.361e-12
5.81e-12
6.315e-12
6.88e-12
7.514e-12
8.225e-12
9.019e-12
9.908e-12
1.09e-11
1.201e-11
1.324e-11
1.461e-11
1.614e-11
1.784e-11
1.972e-11
2.181e-11
2.412e-11
2.667e-11
2.949e-11
3.26e-11
3.603e-11
3.979e-11
4.392e-11
4.845e-11
5.341e-11
5.883e-11
6.473e-11
7.116e-11
7.815e-11
8.571e-11
9.673e-11
-7.367e-61
7.126e-60
-4.368e-59
2.069e-58
-7.744e-58
2.338e-57
-5.762e-57
1.151e-56
-1.777e-56
1.01e-56
7.31e-56
-8.432e-55
9.92e-54
-1.091e-52
1.136e-51
-1.145e-50
1.123e-49
-1.09e-48
1.047e-47
-9.987e-47
9.468e-46
-8.93e-45
8.37e-44
-7.777e-43
7.142e-42
-6.452e-41
5.744e-40
-5.049e-39
4.368e-38
-3.701e-37
3.068e-36
-2.476e-35
1.937e-34
-1.464e-33
1.063e-32
-7.382e-32
4.871e-31
-3.026e-30
1.751e-29
-9.23e-29
4.565e-28
-1.604e-27
2.329e-27
2.294e-26
-2.973e-25
2.37e-24
-1.502e-23
9.484e-23
-3.792e-22
2.964e-21
4.239e-21
1.205e-19
1.014e-18
5.013e-18
2.009e-17
7.242e-17
2.402e-16
7.376e-16
2.099e-15
5.545e-15
1.36e-14
3.102e-14
6.589e-14
1.306e-13
2.42e-13
4.207e-13
6.885e-13
1.064e-12
1.561e-12
2.179e-12
2.907e-12
3.721e-12
4.587e-12
5.463e-12
6.312e-12
7.095e-12
7.787e-12
8.377e-12
8.853e-12
9.226e-12
9.51e-12
9.719e-12
9.869e-12
9.978e-12
1.006e-11
1.014e-11
1.022e-11
1.033e-11
1.046e-11
1.062e-11
1.084e-11
1.111e-11
1.144e-11
1.184e-11
1.231e-11
1.287e-11
1.352e-11
1.426e-11
1.512e-11
1.609e-11
1.72e-11
1.844e-11
1.985e-11
2.143e-11
2.319e-11
2.517e-11
2.737e-11
2.982e-11
3.254e-11
3.557e-11
3.892e-11
4.263e-11
4.673e-11
5.125e-11
5.624e-11
6.173e-11
6.776e-11
7.438e-11
8.164e-11
8.958e-11
9.825e-11
1.077e-10
1.18e-10
1.292e-10
1.413e-10
1.545e-10
1.686e-10
1.896e-10
8.302e-60
-8.158e-59
5.324e-58
-2.789e-57
1.191e-56
-4.22e-56
1.252e-55
-3.105e-55
6.315e-55
-1.063e-54
3.067e-54
-2.187e-53
2.323e-52
-2.233e-51
2.046e-50
-1.86e-49
1.667e-48
-1.512e-47
1.367e-46
-1.234e-45
1.114e-44
-1.009e-43
9.192e-43
-8.39e-42
7.681e-41
-7.034e-40
6.42e-39
-5.803e-38
5.186e-37
-4.542e-36
3.929e-35
-3.318e-34
2.729e-33
-2.178e-32
1.684e-31
-1.257e-30
9.034e-30
-6.224e-29
4.106e-28
-2.598e-27
1.484e-26
-8.014e-26
4.025e-25
-1.74e-24
7.082e-24
-2.204e-23
4.393e-23
2.499e-22
9.589e-22
5.844e-20
4.528e-19
3.443e-18
1.796e-17
7.758e-17
3.033e-16
1.091e-15
3.618e-15
1.107e-14
3.127e-14
8.153e-14
1.963e-13
4.373e-13
9.023e-13
1.728e-12
3.079e-12
5.126e-12
8.003e-12
1.177e-11
1.636e-11
2.162e-11
2.724e-11
3.289e-11
3.821e-11
4.283e-11
4.657e-11
4.922e-11
5.085e-11
5.158e-11
5.133e-11
5.06e-11
4.939e-11
4.786e-11
4.615e-11
4.439e-11
4.268e-11
4.107e-11
3.964e-11
3.84e-11
3.738e-11
3.658e-11
3.604e-11
3.566e-11
3.567e-11
3.584e-11
3.624e-11
3.69e-11
3.782e-11
3.901e-11
4.048e-11
4.224e-11
4.43e-11
4.669e-11
4.944e-11
5.256e-11
5.608e-11
6.005e-11
6.449e-11
6.945e-11
7.497e-11
8.11e-11
8.788e-11
9.538e-11
1.037e-10
1.128e-10
1.228e-10
1.338e-10
1.459e-10
1.591e-10
1.735e-10
1.893e-10
2.064e-10
2.251e-10
2.453e-10
2.672e-10
2.91e-10
3.166e-10
3.437e-10
3.851e-10
-8.923e-59
8.856e-58
-6.073e-57
3.458e-56
-1.653e-55
6.734e-55
-2.356e-54
7.055e-54
-1.744e-53
3.049e-53
2.463e-53
-4.306e-52
3.415e-51
-2.374e-50
1.821e-49
-1.562e-48
1.312e-47
-1.172e-46
1.003e-45
-8.28e-45
6.596e-44
-5.247e-43
4.208e-42
-3.353e-41
2.844e-40
-2.533e-39
2.343e-38
-2.191e-37
2.077e-36
-1.902e-35
1.788e-34
-1.633e-33
1.44e-32
-1.215e-31
9.872e-31
-7.725e-30
5.82e-29
-4.19e-28
2.909e-27
-1.93e-26
1.199e-25
-7.338e-25
4.153e-24
-2.332e-23
1.235e-22
-5.941e-22
3.592e-21
8.513e-22
1.772e-19
1.856e-18
1.149e-17
5.9e-17
2.744e-16
1.173e-15
4.61e-15
1.666e-14
5.532e-14
1.686e-13
4.717e-13
1.211e-12
2.858e-12
6.2e-12
1.239e-11
2.286e-11
3.904e-11
6.205e-11
9.214e-11
1.285e-10
1.691e-10
2.109e-10
2.506e-10
2.851e-10
3.114e-10
3.28e-10
3.353e-10
3.325e-10
3.241e-10
3.104e-10
2.928e-10
2.73e-10
2.524e-10
2.321e-10
2.129e-10
1.952e-10
1.792e-10
1.651e-10
1.529e-10
1.424e-10
1.335e-10
1.262e-10
1.202e-10
1.154e-10
1.119e-10
1.093e-10
1.077e-10
1.071e-10
1.074e-10
1.084e-10
1.102e-10
1.128e-10
1.163e-10
1.205e-10
1.256e-10
1.317e-10
1.386e-10
1.465e-10
1.555e-10
1.656e-10
1.769e-10
1.894e-10
2.034e-10
2.188e-10
2.358e-10
2.546e-10
2.751e-10
2.977e-10
3.224e-10
3.493e-10
3.787e-10
4.107e-10
4.454e-10
4.831e-10
5.239e-10
5.679e-10
6.154e-10
6.665e-10
7.203e-10
8.033e-10
9.043e-58
-9.021e-57
6.434e-56
-3.93e-55
2.073e-54
-9.561e-54
3.894e-53
-1.407e-52
4.471e-52
-1.203e-51
2.399e-51
5.431e-52
-1.583e-50
3.796e-50
1.103e-48
-2.101e-47
2.222e-46
-2.09e-45
1.76e-44
-1.347e-43
9.259e-43
-6.124e-42
3.73e-41
-9.978e-41
-3.762e-40
1.158e-38
-1.443e-37
1.486e-36
-1.289e-35
1.139e-34
-9.116e-34
6.969e-33
-5.276e-32
3.814e-31
-2.629e-30
1.724e-29
-1.053e-28
6.586e-28
-3.242e-27
1.611e-26
-5.213e-26
7.593e-26
9.567e-25
-1.27e-23
1.378e-22
-1.7e-22
4.365e-20
4.435e-19
4.422e-18
2.955e-17
1.669e-16
8.582e-16
4.053e-15
1.756e-14
6.972e-14
2.532e-13
8.403e-13
2.546e-12
7.041e-12
1.777e-11
4.096e-11
8.63e-11
1.665e-10
2.949e-10
4.812e-10
7.274e-10
1.024e-09
1.351e-09
1.678e-09
1.971e-09
2.209e-09
2.36e-09
2.416e-09
2.384e-09
2.297e-09
2.159e-09
1.986e-09
1.796e-09
1.602e-09
1.416e-09
1.243e-09
1.088e-09
9.519e-10
8.341e-10
7.336e-10
6.489e-10
5.779e-10
5.188e-10
4.7e-10
4.299e-10
3.971e-10
3.706e-10
3.494e-10
3.329e-10
3.203e-10
3.112e-10
3.054e-10
3.017e-10
3.019e-10
3.038e-10
3.079e-10
3.143e-10
3.23e-10
3.339e-10
3.471e-10
3.626e-10
3.805e-10
4.009e-10
4.24e-10
4.499e-10
4.788e-10
5.108e-10
5.462e-10
5.852e-10
6.28e-10
6.749e-10
7.261e-10
7.82e-10
8.428e-10
9.088e-10
9.804e-10
1.058e-09
1.141e-09
1.232e-09
1.328e-09
1.433e-09
1.541e-09
1.711e-09
-8.476e-57
8.465e-56
-6.228e-55
4.035e-54
-2.316e-53
1.19e-52
-5.534e-52
2.345e-51
-9.081e-51
3.175e-50
-9.457e-50
1.784e-49
9.158e-49
-1.332e-47
1.321e-46
-1.212e-45
1.033e-44
-8.391e-44
6.535e-43
-4.891e-42
3.524e-41
-2.449e-40
1.647e-39
-1.065e-38
6.849e-38
-4.196e-37
2.657e-36
-1.559e-35
1.153e-34
-5.175e-34
2.249e-33
-5.521e-33
-3.746e-32
8.189e-31
-9.588e-30
9.196e-29
-7.89e-28
6.258e-27
-4.65e-26
3.281e-25
-2.166e-24
1.387e-23
-8.31e-23
5.137e-22
-1.779e-21
8.939e-20
1.212e-18
9.677e-18
6.56e-17
4.067e-16
2.321e-15
1.218e-14
5.85e-14
2.568e-13
1.028e-12
3.745e-12
1.24e-11
3.727e-11
1.016e-10
2.514e-10
5.644e-10
1.151e-09
2.137e-09
3.618e-09
5.617e-09
8.048e-09
1.071e-08
1.332e-08
1.561e-08
1.722e-08
1.819e-08
1.804e-08
1.741e-08
1.629e-08
1.48e-08
1.312e-08
1.141e-08
9.768e-09
8.269e-09
6.947e-09
5.812e-09
4.857e-09
4.065e-09
3.416e-09
2.888e-09
2.46e-09
2.115e-09
1.837e-09
1.612e-09
1.431e-09
1.286e-09
1.169e-09
1.076e-09
1.001e-09
9.43e-10
8.978e-10
8.64e-10
8.397e-10
8.245e-10
8.155e-10
8.165e-10
8.221e-10
8.337e-10
8.512e-10
8.745e-10
9.036e-10
9.385e-10
9.793e-10
1.026e-09
1.079e-09
1.139e-09
1.206e-09
1.28e-09
1.362e-09
1.451e-09
1.55e-09
1.657e-09
1.774e-09
1.902e-09
2.04e-09
2.189e-09
2.351e-09
2.524e-09
2.711e-09
2.911e-09
3.127e-09
3.349e-09
3.699e-09
7.163e-56
-7.134e-55
5.376e-54
-3.659e-53
2.258e-52
-1.275e-51
6.648e-51
-3.235e-50
1.484e-49
-6.519e-49
2.82e-48
-1.265e-47
6.815e-47
-4.039e-46
2.834e-45
-2.299e-44
1.844e-43
-1.437e-42
1.078e-41
-7.77e-41
5.386e-40
-3.596e-39
2.328e-38
-1.432e-37
9.743e-37
-5.969e-36
3.836e-35
-2.613e-34
1.855e-33
-1.352e-32
1.003e-31
-7.479e-31
5.555e-30
-4.075e-29
2.934e-28
-2.064e-27
1.413e-26
-9.392e-26
6.051e-25
-3.745e-24
2.295e-23
-1.29e-22
7.654e-22
-2.931e-21
1.218e-19
1.811e-18
1.589e-17
1.199e-16
8.296e-16
5.286e-15
3.092e-14
1.656e-13
8.083e-13
3.589e-12
1.445e-11
5.269e-11
1.736e-10
5.162e-10
1.384e-09
3.345e-09
7.288e-09
1.433e-08
2.548e-08
4.108e-08
6.041e-08
8.171e-08
1.024e-07
1.203e-07
1.323e-07
1.366e-07
1.339e-07
1.266e-07
1.154e-07
1.018e-07
8.735e-08
7.329e-08
6.042e-08
4.915e-08
3.962e-08
3.177e-08
2.542e-08
2.037e-08
1.638e-08
1.326e-08
1.081e-08
8.908e-09
7.42e-09
6.254e-09
5.339e-09
4.618e-09
4.048e-09
3.597e-09
3.238e-09
2.954e-09
2.729e-09
2.552e-09
2.415e-09
2.311e-09
2.235e-09
2.182e-09
2.151e-09
2.14e-09
2.147e-09
2.168e-09
2.204e-09
2.255e-09
2.32e-09
2.4e-09
2.494e-09
2.602e-09
2.726e-09
2.865e-09
3.02e-09
3.191e-09
3.38e-09
3.588e-09
3.815e-09
4.062e-09
4.331e-09
4.622e-09
4.936e-09
5.275e-09
5.64e-09
6.031e-09
6.449e-09
6.898e-09
7.359e-09
8.089e-09
-5.255e-55
5.201e-54
-3.988e-53
2.827e-52
-1.854e-51
1.133e-50
-6.5e-50
3.518e-49
-1.801e-48
8.657e-48
-3.805e-47
1.435e-46
-2.163e-47
-2.92e-45
3.371e-44
-3.398e-43
2.933e-42
-2.301e-41
1.692e-40
-1.181e-39
7.867e-39
-4.987e-38
3.003e-37
-1.583e-36
1.142e-35
-5.657e-35
1.368e-34
2.336e-35
-5.573e-33
7.207e-32
-6.978e-31
5.95e-30
-4.698e-29
3.509e-28
-2.507e-27
1.723e-26
-1.142e-25
7.315e-25
-4.52e-24
2.734e-23
-1.5e-22
9.195e-22
-3.68e-21
1.36e-19
2.221e-18
2.145e-17
1.8e-16
1.39e-15
9.897e-15
6.473e-14
3.873e-13
2.111e-12
1.045e-11
4.678e-11
1.89e-10
6.875e-10
2.247e-09
6.586e-09
1.729e-08
4.066e-08
8.557e-08
1.614e-07
2.737e-07
4.18e-07
5.8e-07
7.375e-07
8.713e-07
9.675e-07
9.795e-07
9.519e-07
8.863e-07
7.916e-07
6.816e-07
5.691e-07
4.633e-07
3.696e-07
2.903e-07
2.255e-07
1.74e-07
1.338e-07
1.029e-07
7.943e-08
6.167e-08
4.828e-08
3.818e-08
3.055e-08
2.475e-08
2.034e-08
1.695e-08
1.433e-08
1.23e-08
1.072e-08
9.47e-09
8.49e-09
7.716e-09
7.106e-09
6.628e-09
6.257e-09
5.974e-09
5.764e-09
5.618e-09
5.527e-09
5.479e-09
5.49e-09
5.531e-09
5.61e-09
5.724e-09
5.874e-09
6.058e-09
6.276e-09
6.529e-09
6.817e-09
7.141e-09
7.502e-09
7.902e-09
8.341e-09
8.822e-09
9.346e-09
9.915e-09
1.053e-08
1.12e-08
1.191e-08
1.268e-08
1.351e-08
1.439e-08
1.533e-08
1.629e-08
1.782e-08
3.182e-54
-3.108e-53
2.409e-52
-1.765e-51
1.222e-50
-8.038e-50
5.076e-49
-3.114e-48
1.885e-47
-1.145e-46
7.095e-46
-4.546e-45
3.011e-44
-1.956e-43
1.35e-42
-9.375e-42
6.493e-41
-4.461e-40
3.031e-39
-2.034e-38
1.349e-37
-8.835e-37
5.731e-36
-3.69e-35
2.366e-34
-1.516e-33
9.758e-33
-6.257e-32
4.006e-31
-2.557e-30
1.625e-29
-1.025e-28
6.415e-28
-3.97e-27
2.425e-26
-1.459e-25
8.631e-25
-5.004e-24
2.85e-23
-1.544e-22
9.594e-22
-3.553e-21
1.226e-19
2.199e-18
2.338e-17
2.179e-16
1.875e-15
1.492e-14
1.091e-13
7.309e-13
4.459e-12
2.467e-11
1.233e-10
5.544e-10
2.238e-09
8.083e-09
2.607e-08
7.494e-08
1.917e-07
4.357e-07
8.807e-07
1.585e-06
2.549e-06
3.674e-06
4.79e-06
5.713e-06
6.442e-06
6.472e-06
6.26e-06
5.772e-06
5.084e-06
4.301e-06
3.518e-06
2.796e-06
2.173e-06
1.658e-06
1.248e-06
9.318e-07
6.921e-07
5.136e-07
3.82e-07
2.856e-07
2.152e-07
1.639e-07
1.262e-07
9.856e-08
7.806e-08
6.278e-08
5.129e-08
4.257e-08
3.591e-08
3.077e-08
2.678e-08
2.366e-08
2.122e-08
1.93e-08
1.778e-08
1.66e-08
1.568e-08
1.498e-08
1.446e-08
1.41e-08
1.387e-08
1.374e-08
1.376e-08
1.386e-08
1.404e-08
1.431e-08
1.466e-08
1.509e-08
1.56e-08
1.62e-08
1.687e-08
1.763e-08
1.847e-08
1.94e-08
2.042e-08
2.153e-08
2.274e-08
2.405e-08
2.546e-08
2.698e-08
2.861e-08
3.035e-08
3.221e-08
3.42e-08
3.622e-08
3.944e-08
-1.342e-53
1.321e-52
-1.035e-51
7.716e-51
-5.458e-50
3.651e-49
-2.295e-48
1.342e-47
-7.134e-47
3.283e-46
-1.127e-45
-9.645e-46
4.723e-44
-5.703e-43
5.248e-42
-4.262e-41
3.203e-40
-2.28e-39
1.555e-38
-1.022e-37
6.481e-37
-3.964e-36
2.325e-35
-1.292e-34
6.717e-34
-3.231e-33
1.406e-32
-4.72e-32
3.731e-32
1.316e-30
-1.737e-29
1.609e-28
-1.291e-27
9.541e-27
-6.653e-26
4.435e-25
-2.844e-24
1.764e-23
-1.05e-22
6.452e-22
-1.988e-21
8.706e-20
1.733e-18
2.029e-17
2.096e-16
2.007e-15
1.78e-14
1.455e-13
1.09e-12
7.443e-12
4.609e-11
2.575e-10
1.293e-09
5.806e-09
2.326e-08
8.286e-08
2.618e-07
7.32e-07
1.808e-06
3.94e-06
7.59e-06
1.296e-05
1.967e-05
2.665e-05
3.255e-05
3.699e-05
3.78e-05
3.653e-05
3.357e-05
2.938e-05
2.462e-05
1.989e-05
1.557e-05
1.188e-05
8.885e-06
6.538e-06
4.757e-06
3.437e-06
2.476e-06
1.785e-06
1.292e-06
9.413e-07
6.926e-07
5.156e-07
3.89e-07
2.979e-07
2.317e-07
1.832e-07
1.473e-07
1.205e-07
1.003e-07
8.484e-08
7.296e-08
6.375e-08
5.656e-08
5.092e-08
4.649e-08
4.301e-08
4.028e-08
3.817e-08
3.657e-08
3.539e-08
3.456e-08
3.405e-08
3.38e-08
3.386e-08
3.411e-08
3.456e-08
3.521e-08
3.605e-08
3.708e-08
3.83e-08
3.97e-08
4.129e-08
4.306e-08
4.503e-08
4.719e-08
4.955e-08
5.212e-08
5.49e-08
5.79e-08
6.112e-08
6.457e-08
6.827e-08
7.219e-08
7.639e-08
8.064e-08
8.745e-08
6.259e-53
-5.429e-52
4.077e-51
-3.185e-50
2.536e-49
-2.025e-48
1.599e-47
-1.237e-46
9.335e-46
-6.868e-45
4.933e-44
-3.466e-43
2.389e-42
-1.62e-41
1.084e-40
-7.164e-40
4.688e-39
-3.042e-38
1.959e-37
-1.254e-36
7.98e-36
-5.051e-35
3.179e-34
-1.99e-33
1.238e-32
-7.659e-32
4.704e-31
-2.867e-30
1.734e-29
-1.039e-28
6.175e-28
-3.632e-27
2.113e-26
-1.215e-25
6.899e-25
-3.864e-24
2.134e-23
-1.154e-22
6.328e-22
-2.848e-21
3.417e-20
1.039e-18
1.385e-17
1.587e-16
1.684e-15
1.659e-14
1.511e-13
1.264e-12
9.655e-12
6.691e-11
4.182e-10
2.344e-09
1.173e-08
5.218e-08
2.055e-07
7.142e-07
2.185e-06
5.871e-06
1.382e-05
2.855e-05
5.194e-05
8.355e-05
0.0001193
0.0001514
0.0001755
0.0001847
0.0001794
0.0001657
0.0001455
0.0001221
9.847e-05
7.682e-05
5.825e-05
4.315e-05
3.137e-05
2.247e-05
1.594e-05
1.125e-05
7.919e-06
5.586e-06
3.962e-06
2.833e-06
2.048e-06
1.499e-06
1.114e-06
8.409e-07
6.455e-07
5.042e-07
4.009e-07
3.244e-07
2.673e-07
2.241e-07
1.91e-07
1.656e-07
1.458e-07
1.303e-07
1.181e-07
1.086e-07
1.01e-07
9.517e-08
9.063e-08
8.721e-08
8.472e-08
8.303e-08
8.201e-08
8.166e-08
8.191e-08
8.261e-08
8.377e-08
8.539e-08
8.745e-08
8.993e-08
9.283e-08
9.614e-08
9.987e-08
1.04e-07
1.086e-07
1.136e-07
1.191e-07
1.25e-07
1.313e-07
1.382e-07
1.455e-07
1.533e-07
1.616e-07
1.705e-07
1.794e-07
1.938e-07
4.055e-52
-3.936e-51
3.114e-50
-2.391e-49
1.772e-48
-1.27e-47
8.825e-47
-5.969e-46
3.946e-45
-2.56e-44
1.636e-43
-1.035e-42
6.502e-42
-4.066e-41
2.537e-40
-1.583e-39
9.877e-39
-6.175e-38
3.869e-37
-2.431e-36
1.533e-35
-9.709e-35
6.177e-34
-3.955e-33
2.526e-32
-1.605e-31
1.014e-30
-6.371e-30
3.978e-29
-2.468e-28
1.52e-27
-9.292e-27
5.632e-26
-3.384e-25
2.013e-24
-1.185e-23
6.908e-23
-3.922e-22
2.406e-21
-1.01e-20
3.238e-19
7.153e-18
9.395e-17
1.101e-15
1.2e-14
1.213e-13
1.13e-12
9.627e-12
7.455e-11
5.209e-10
3.263e-09
1.82e-08
8.991e-08
3.914e-07
1.496e-06
4.997e-06
1.457e-05
3.698e-05
8.164e-05
0.0001577
0.0002677
0.0004027
0.000538
0.0006454
0.0007116
0.0006997
0.0006565
0.000585
0.0004977
0.0004066
0.0003205
0.0002451
0.0001825
0.0001329
9.503e-05
6.703e-05
4.684e-05
3.255e-05
2.259e-05
1.572e-05
1.1e-05
7.773e-06
5.554e-06
4.023e-06
2.96e-06
2.214e-06
1.685e-06
1.306e-06
1.031e-06
8.293e-07
6.79e-07
5.66e-07
4.8e-07
4.139e-07
3.627e-07
3.227e-07
2.913e-07
2.665e-07
2.47e-07
2.317e-07
2.198e-07
2.107e-07
2.038e-07
1.99e-07
1.959e-07
1.939e-07
1.941e-07
1.951e-07
1.971e-07
2.002e-07
2.042e-07
2.093e-07
2.153e-07
2.222e-07
2.3e-07
2.387e-07
2.484e-07
2.59e-07
2.706e-07
2.831e-07
2.966e-07
3.111e-07
3.266e-07
3.432e-07
3.607e-07
3.794e-07
3.983e-07
4.286e-07
-8.985e-52
8.733e-51
-6.925e-50
5.331e-49
-3.967e-48
2.854e-47
-1.988e-46
1.343e-45
-8.823e-45
5.65e-44
-3.539e-43
2.176e-42
-1.32e-41
7.935e-41
-4.751e-40
2.848e-39
-1.718e-38
1.048e-37
-6.487e-37
4.081e-36
-2.611e-35
1.697e-34
-1.118e-33
7.457e-33
-4.936e-32
3.231e-31
-2.094e-30
1.344e-29
-8.552e-29
5.395e-28
-3.375e-27
2.094e-26
-1.289e-25
7.874e-25
-4.77e-24
2.868e-23
-1.7e-22
1.051e-21
-3.901e-21
1.291e-19
3.085e-18
4.383e-17
5.616e-16
6.728e-15
7.507e-14
7.748e-13
7.343e-12
6.34e-11
4.948e-10
3.462e-09
2.154e-08
1.184e-07
5.706e-07
2.398e-06
8.745e-06
2.758e-05
7.511e-05
0.0001767
0.0003596
0.0006404
0.001001
0.001397
0.001749
0.002021
0.002065
0.001987
0.001817
0.001586
0.00133
0.001077
0.0008444
0.0006432
0.0004774
0.0003465
0.0002469
0.0001734
0.0001206
8.333e-05
5.751e-05
3.978e-05
2.768e-05
1.944e-05
1.382e-05
9.964e-06
7.298e-06
5.437e-06
4.124e-06
3.187e-06
2.509e-06
2.012e-06
1.643e-06
1.367e-06
1.157e-06
9.954e-07
8.704e-07
7.729e-07
6.962e-07
6.357e-07
5.88e-07
5.503e-07
5.208e-07
4.98e-07
4.808e-07
4.682e-07
4.598e-07
4.545e-07
4.528e-07
4.541e-07
4.576e-07
4.635e-07
4.716e-07
4.819e-07
4.942e-07
5.087e-07
5.251e-07
5.435e-07
5.64e-07
5.864e-07
6.109e-07
6.374e-07
6.66e-07
6.966e-07
7.294e-07
7.644e-07
8.014e-07
8.409e-07
8.804e-07
9.442e-07
2.579e-51
-2.364e-50
1.815e-49
-1.395e-48
1.063e-47
-8.015e-47
5.957e-46
-4.355e-45
3.128e-44
-2.205e-43
1.527e-42
-1.038e-41
6.945e-41
-4.574e-40
2.971e-39
-1.905e-38
1.209e-37
-7.593e-37
4.73e-36
-2.924e-35
1.796e-34
-1.097e-33
6.666e-33
-4.031e-32
2.422e-31
-1.447e-30
8.603e-30
-5.092e-29
3e-28
-1.761e-27
1.03e-26
-6.005e-26
3.49e-25
-2.023e-24
1.17e-23
-6.732e-23
3.982e-22
-1.773e-21
3.102e-20
1.017e-18
1.602e-17
2.239e-16
2.931e-15
3.589e-14
4.084e-13
4.286e-12
4.114e-11
3.58e-10
2.798e-09
1.946e-08
1.193e-07
6.388e-07
2.965e-06
1.184e-05
4.048e-05
0.0001182
0.0002947
0.0006306
0.00117
0.001897
0.002704
0.003479
0.004181
0.004588
0.004507
0.00423
0.003799
0.003301
0.002785
0.002279
0.001809
0.001396
0.001048
0.0007688
0.0005525
0.0003906
0.0002729
0.0001893
0.0001309
9.07e-05
6.319e-05
4.442e-05
3.16e-05
2.28e-05
1.671e-05
1.247e-05
9.466e-06
7.323e-06
5.772e-06
4.635e-06
3.79e-06
3.156e-06
2.673e-06
2.302e-06
2.015e-06
1.79e-06
1.613e-06
1.473e-06
1.362e-06
1.274e-06
1.205e-06
1.152e-06
1.111e-06
1.081e-06
1.06e-06
1.047e-06
1.04e-06
1.042e-06
1.048e-06
1.059e-06
1.076e-06
1.097e-06
1.123e-06
1.153e-06
1.187e-06
1.226e-06
1.269e-06
1.317e-06
1.368e-06
1.424e-06
1.485e-06
1.55e-06
1.619e-06
1.692e-06
1.77e-06
1.853e-06
1.936e-06
2.069e-06
5.552e-51
-5.441e-50
4.375e-49
-3.437e-48
2.624e-47
-1.946e-46
1.404e-45
-9.857e-45
6.749e-44
-4.516e-43
2.961e-42
-1.908e-41
1.211e-40
-7.604e-40
4.733e-39
-2.93e-38
1.809e-37
-1.117e-36
6.903e-36
-4.281e-35
2.666e-34
-1.668e-33
1.049e-32
-6.629e-32
4.182e-31
-2.619e-30
1.631e-29
-1.011e-28
6.236e-28
-3.834e-27
2.35e-26
-1.437e-25
8.774e-25
-5.351e-24
3.264e-23
-1.98e-22
1.266e-21
-4.676e-21
1.694e-19
4.474e-18
7.02e-17
9.993e-16
1.334e-14
1.664e-13
1.924e-12
2.045e-11
1.979e-10
1.726e-09
1.344e-08
9.224e-08
5.523e-07
2.852e-06
1.258e-05
4.701e-05
0.000148
0.0003926
0.0008824
0.001694
0.002871
0.004187
0.005542
0.006541
0.007998
0.009212
0.008691
0.007287
0.006225
0.00547
0.004748
0.003981
0.003238
0.002558
0.001964
0.00147
0.001075
0.000772
0.0005466
0.0003834
0.0002678
0.0001871
0.0001313
9.297e-05
6.657e-05
4.833e-05
3.564e-05
2.674e-05
2.042e-05
1.588e-05
1.258e-05
1.015e-05
8.34e-06
6.974e-06
5.931e-06
5.126e-06
4.501e-06
4.009e-06
3.622e-06
3.315e-06
3.07e-06
2.877e-06
2.724e-06
2.605e-06
2.514e-06
2.446e-06
2.397e-06
2.368e-06
2.35e-06
2.353e-06
2.365e-06
2.388e-06
2.422e-06
2.466e-06
2.52e-06
2.584e-06
2.657e-06
2.739e-06
2.83e-06
2.93e-06
3.039e-06
3.157e-06
3.285e-06
3.421e-06
3.566e-06
3.72e-06
3.883e-06
4.056e-06
4.228e-06
4.506e-06
-1.244e-50
1.14e-49
-8.755e-49
6.726e-48
-5.124e-47
3.858e-46
-2.865e-45
2.095e-44
-1.506e-43
1.063e-42
-7.379e-42
5.031e-41
-3.372e-40
2.224e-39
-1.444e-38
9.243e-38
-5.838e-37
3.644e-36
-2.249e-35
1.374e-34
-8.326e-34
5.004e-33
-2.987e-32
1.773e-31
-1.044e-30
6.125e-30
-3.583e-29
2.092e-28
-1.219e-27
7.108e-27
-4.145e-26
2.42e-25
-1.416e-24
8.318e-24
-4.893e-23
2.964e-22
-1.369e-21
3.01e-20
1.023e-18
1.753e-17
2.694e-16
3.896e-15
5.29e-14
6.696e-13
7.838e-12
8.403e-11
8.167e-10
7.115e-09
5.487e-08
3.696e-07
2.145e-06
1.058e-05
4.385e-05
0.0001511
0.0004318
0.001027
0.002058
0.003539
0.005601
0.007276
0.01
0.01039
0.01006
0.01036
0.0104
0.01006
0.01042
0.009784
0.007541
0.006112
0.005072
0.004103
0.003227
0.002473
0.00185
0.001356
0.0009789
0.0006986
0.0004956
0.0003512
0.0002498
0.000179
0.0001297
9.522e-05
7.098e-05
5.379e-05
4.148e-05
3.256e-05
2.603e-05
2.118e-05
1.754e-05
1.477e-05
1.265e-05
1.1e-05
9.711e-06
8.695e-06
7.89e-06
7.25e-06
6.74e-06
6.334e-06
6.013e-06
5.762e-06
5.57e-06
5.427e-06
5.325e-06
5.263e-06
5.226e-06
5.233e-06
5.259e-06
5.308e-06
5.381e-06
5.475e-06
5.59e-06
5.725e-06
5.88e-06
6.054e-06
6.247e-06
6.458e-06
6.688e-06
6.936e-06
7.202e-06
7.487e-06
7.79e-06
8.111e-06
8.448e-06
8.806e-06
9.159e-06
9.729e-06
-2.912e-50
2.742e-49
-2.15e-48
1.676e-47
-1.289e-46
9.745e-46
-7.237e-45
5.274e-44
-3.769e-43
2.641e-42
-1.816e-41
1.226e-40
-8.139e-40
5.315e-39
-3.42e-38
2.171e-37
-1.361e-36
8.445e-36
-5.19e-35
3.163e-34
-1.914e-33
1.152e-32
-6.896e-32
4.114e-31
-2.448e-30
1.452e-29
-8.592e-29
5.081e-28
-3.005e-27
1.78e-26
-1.057e-25
6.298e-25
-3.773e-24
2.275e-23
-1.378e-22
8.715e-22
-3.955e-21
9.617e-20
3.338e-18
5.791e-17
9.035e-16
1.326e-14
1.826e-13
2.34e-12
2.764e-11
2.981e-10
2.901e-09
2.515e-08
1.914e-07
1.259e-06
7.044e-06
3.294e-05
0.0001269
0.000399
0.001023
0.002172
0.003888
0.006117
0.009478
0.01
0.01074
0.01048
0.01002
0.01045
0.01026
0.009997
0.01082
0.01238
0.01009
0.01008
0.007514
0.00602
0.004818
0.003767
0.002879
0.002157
0.00159
0.001158
0.0008372
0.0006045
0.0004376
0.000319
0.0002349
0.0001751
0.0001325
0.0001019
7.963e-05
6.333e-05
5.125e-05
4.218e-05
3.531e-05
3.004e-05
2.597e-05
2.278e-05
2.027e-05
1.828e-05
1.669e-05
1.543e-05
1.442e-05
1.361e-05
1.297e-05
1.248e-05
1.209e-05
1.181e-05
1.162e-05