/*--------------------------------*- C++ -*----------------------------------*\
  =========                 |
  \\      /  F ield         | OpenFOAM: The Open Source CFD Toolbox
   \\    /   O peration     | Website:  https://openfoam.org
    \\  /    A nd           | Version:  7
     \\/     M anipulation  |
\*---------------------------------------------------------------------------*/
FoamFile
{
    version     2.0;
    format      ascii;
    class       volScalarField;
    location    "839.999473410766313";
    object      p;
}
// * * * * * * * * * * * * * * * * * * * * * * * * * * * * * * * * * * * * * //

dimensions      [0 2 -2 0 0 0 0];

internalField   nonuniform List<scalar> 
4096
(
0.0006374
0.0004665
0.0003823
0.0003401
0.0003168
0.0003029
0.000294
0.0002879
0.0002835
0.0002803
0.0002777
0.0002757
0.0002741
0.0002727
0.0002715
0.0002705
0.0002696
0.0002688
0.0002681
0.0002675
0.0002669
0.0002663
0.0002658
0.0002652
0.0002647
0.0002642
0.0002637
0.0002632
0.0002627
0.0002622
0.0002617
0.0002612
0.0002606
0.00026
0.0002593
0.0002586
0.0002579
0.000257
0.0002561
0.0002551
0.0002539
0.0002526
0.0002511
0.0002494
0.0002475
0.0002454
0.000243
0.0002402
0.0002372
0.0002338
0.0002299
0.0002257
0.000221
0.0002159
0.0002103
0.0002043
0.0001978
0.0001909
0.0001836
0.000176
0.0001681
0.0001599
0.0001515
0.000143
0.0001346
0.0001261
0.0001178
0.0001097
0.0001019
9.434e-05
8.715e-05
8.033e-05
7.391e-05
6.792e-05
6.234e-05
5.72e-05
5.247e-05
4.815e-05
4.423e-05
4.068e-05
3.748e-05
3.461e-05
3.205e-05
2.976e-05
2.772e-05
2.592e-05
2.431e-05
2.288e-05
2.161e-05
2.047e-05
1.946e-05
1.854e-05
1.771e-05
1.695e-05
1.626e-05
1.561e-05
1.5e-05
1.443e-05
1.389e-05
1.337e-05
1.287e-05
1.238e-05
1.19e-05
1.142e-05
1.095e-05
1.049e-05
1.002e-05
9.56e-06
9.096e-06
8.632e-06
8.165e-06
7.696e-06
7.224e-06
6.75e-06
6.272e-06
5.791e-06
5.306e-06
4.818e-06
4.326e-06
3.83e-06
3.332e-06
2.831e-06
2.328e-06
1.827e-06
1.33e-06
8.457e-07
3.896e-07
5.387e-08
0.0004929
0.0004292
0.0003794
0.0003474
0.0003264
0.0003122
0.0003021
0.0002948
0.0002893
0.0002851
0.0002818
0.0002791
0.0002769
0.0002751
0.0002736
0.0002723
0.0002711
0.0002701
0.0002691
0.0002683
0.0002675
0.0002668
0.0002661
0.0002654
0.0002648
0.0002641
0.0002635
0.0002629
0.0002623
0.0002617
0.000261
0.0002603
0.0002596
0.0002589
0.0002581
0.0002573
0.0002564
0.0002554
0.0002543
0.0002531
0.0002518
0.0002503
0.0002487
0.0002468
0.0002448
0.0002425
0.00024
0.0002371
0.000234
0.0002305
0.0002266
0.0002224
0.0002178
0.0002127
0.0002073
0.0002014
0.0001951
0.0001885
0.0001815
0.0001742
0.0001666
0.0001588
0.0001509
0.0001428
0.0001348
0.0001267
0.0001188
0.0001111
0.0001036
9.64e-05
8.948e-05
8.291e-05
7.67e-05
7.086e-05
6.541e-05
6.035e-05
5.567e-05
5.137e-05
4.743e-05
4.384e-05
4.058e-05
3.762e-05
3.496e-05
3.256e-05
3.04e-05
2.846e-05
2.672e-05
2.515e-05
2.374e-05
2.246e-05
2.131e-05
2.026e-05
1.93e-05
1.842e-05
1.761e-05
1.685e-05
1.614e-05
1.548e-05
1.484e-05
1.423e-05
1.365e-05
1.309e-05
1.254e-05
1.2e-05
1.148e-05
1.096e-05
1.045e-05
9.941e-06
9.438e-06
8.937e-06
8.438e-06
7.94e-06
7.442e-06
6.944e-06
6.446e-06
5.946e-06
5.446e-06
4.943e-06
4.44e-06
3.935e-06
3.429e-06
2.922e-06
2.416e-06
1.913e-06
1.414e-06
9.257e-07
4.56e-07
8.137e-08
0.0004094
0.0003878
0.0003623
0.0003416
0.0003261
0.0003144
0.0003054
0.0002984
0.0002928
0.0002883
0.0002847
0.0002817
0.0002792
0.0002771
0.0002753
0.0002737
0.0002724
0.0002711
0.00027
0.000269
0.0002681
0.0002672
0.0002664
0.0002656
0.0002648
0.0002641
0.0002633
0.0002626
0.0002618
0.0002611
0.0002603
0.0002595
0.0002587
0.0002578
0.0002569
0.0002559
0.0002549
0.0002538
0.0002525
0.0002512
0.0002497
0.0002481
0.0002464
0.0002444
0.0002422
0.0002398
0.0002372
0.0002343
0.0002311
0.0002275
0.0002237
0.0002195
0.0002149
0.0002099
0.0002046
0.0001989
0.0001928
0.0001864
0.0001796
0.0001726
0.0001653
0.0001579
0.0001503
0.0001426
0.0001349
0.0001272
0.0001197
0.0001123
0.0001051
9.817e-05
9.151e-05
8.516e-05
7.913e-05
7.345e-05
6.812e-05
6.315e-05
5.853e-05
5.425e-05
5.031e-05
4.67e-05
4.339e-05
4.038e-05
3.763e-05
3.514e-05
3.288e-05
3.083e-05
2.897e-05
2.728e-05
2.575e-05
2.435e-05
2.308e-05
2.191e-05
2.084e-05
1.984e-05
1.892e-05
1.806e-05
1.726e-05
1.65e-05
1.578e-05
1.509e-05
1.443e-05
1.379e-05
1.318e-05
1.258e-05
1.2e-05
1.143e-05
1.088e-05
1.033e-05
9.784e-06
9.248e-06
8.717e-06
8.19e-06
7.666e-06
7.145e-06
6.625e-06
6.107e-06
5.59e-06
5.074e-06
4.558e-06
4.042e-06
3.527e-06
3.013e-06
2.5e-06
1.989e-06
1.483e-06
9.82e-07
4.909e-07
8.574e-08
0.0003647
0.0003576
0.0003443
0.0003311
0.0003203
0.0003115
0.0003044
0.0002985
0.0002936
0.0002895
0.000286
0.0002831
0.0002805
0.0002783
0.0002764
0.0002747
0.0002732
0.0002719
0.0002707
0.0002695
0.0002685
0.0002675
0.0002666
0.0002657
0.0002648
0.000264
0.0002631
0.0002623
0.0002614
0.0002606
0.0002597
0.0002588
0.0002579
0.0002569
0.0002559
0.0002548
0.0002536
0.0002524
0.000251
0.0002496
0.000248
0.0002463
0.0002444
0.0002424
0.0002401
0.0002376
0.0002349
0.000232
0.0002287
0.0002252
0.0002213
0.0002171
0.0002126
0.0002077
0.0002025
0.0001969
0.000191
0.0001847
0.0001782
0.0001714
0.0001643
0.0001571
0.0001498
0.0001424
0.000135
0.0001276
0.0001203
0.0001132
0.0001062
9.952e-05
9.307e-05
8.69e-05
8.104e-05
7.549e-05
7.027e-05
6.538e-05
6.081e-05
5.657e-05
5.265e-05
4.903e-05
4.57e-05
4.264e-05
3.985e-05
3.729e-05
3.496e-05
3.283e-05
3.088e-05
2.91e-05
2.748e-05
2.598e-05
2.461e-05
2.335e-05
2.218e-05
2.11e-05
2.009e-05
1.914e-05
1.825e-05
1.741e-05
1.662e-05
1.586e-05
1.513e-05
1.444e-05
1.377e-05
1.312e-05
1.249e-05
1.187e-05
1.127e-05
1.068e-05
1.011e-05
9.538e-06
8.977e-06
8.424e-06
7.876e-06
7.333e-06
6.794e-06
6.259e-06
5.727e-06
5.197e-06
4.669e-06
4.142e-06
3.618e-06
3.094e-06
2.572e-06
2.052e-06
1.534e-06
1.018e-06
5.068e-07
8.216e-08
0.0003378
0.0003368
0.0003299
0.0003213
0.0003135
0.0003069
0.0003014
0.0002967
0.0002927
0.0002892
0.0002861
0.0002834
0.000281
0.0002789
0.000277
0.0002753
0.0002737
0.0002723
0.0002711
0.0002699
0.0002688
0.0002677
0.0002667
0.0002657
0.0002648
0.0002638
0.0002629
0.000262
0.0002611
0.0002601
0.0002592
0.0002582
0.0002572
0.0002561
0.000255
0.0002538
0.0002526
0.0002512
0.0002498
0.0002483
0.0002466
0.0002448
0.0002428
0.0002407
0.0002384
0.0002359
0.0002331
0.0002301
0.0002269
0.0002233
0.0002195
0.0002153
0.0002108
0.000206
0.0002008
0.0001954
0.0001896
0.0001835
0.0001771
0.0001704
0.0001636
0.0001566
0.0001494
0.0001422
0.000135
0.0001278
0.0001207
0.0001138
0.0001071
0.0001005
9.423e-05
8.821e-05
8.248e-05
7.704e-05
7.191e-05
6.71e-05
6.259e-05
5.838e-05
5.448e-05
5.087e-05
4.753e-05
4.446e-05
4.163e-05
3.904e-05
3.665e-05
3.447e-05
3.246e-05
3.062e-05
2.892e-05
2.736e-05
2.591e-05
2.457e-05
2.333e-05
2.217e-05
2.109e-05
2.007e-05
1.912e-05
1.821e-05
1.735e-05
1.654e-05
1.575e-05
1.501e-05
1.429e-05
1.359e-05
1.292e-05
1.226e-05
1.163e-05
1.1e-05
1.04e-05
9.799e-06
9.212e-06
8.635e-06
8.066e-06
7.504e-06
6.948e-06
6.397e-06
5.851e-06
5.308e-06
4.769e-06
4.232e-06
3.698e-06
3.165e-06
2.633e-06
2.103e-06
1.574e-06
1.045e-06
5.165e-07
7.806e-08
0.0003204
0.000322
0.0003186
0.000313
0.0003073
0.0003022
0.0002979
0.0002941
0.0002908
0.0002879
0.0002853
0.0002829
0.0002807
0.0002788
0.000277
0.0002754
0.0002739
0.0002725
0.0002712
0.00027
0.0002688
0.0002677
0.0002667
0.0002657
0.0002647
0.0002637
0.0002627
0.0002617
0.0002607
0.0002597
0.0002587
0.0002577
0.0002566
0.0002554
0.0002543
0.000253
0.0002517
0.0002503
0.0002488
0.0002472
0.0002455
0.0002436
0.0002416
0.0002394
0.0002371
0.0002345
0.0002317
0.0002287
0.0002254
0.0002219
0.0002181
0.0002139
0.0002095
0.0002047
0.0001996
0.0001942
0.0001885
0.0001825
0.0001762
0.0001697
0.000163
0.0001561
0.0001491
0.000142
0.000135
0.0001279
0.000121
0.0001142
0.0001076
0.0001012
9.505e-05
8.915e-05
8.352e-05
7.817e-05
7.312e-05
6.836e-05
6.39e-05
5.974e-05
5.586e-05
5.226e-05
4.893e-05
4.585e-05
4.301e-05
4.04e-05
3.799e-05
3.577e-05
3.372e-05
3.183e-05
3.008e-05
2.847e-05
2.697e-05
2.558e-05
2.428e-05
2.306e-05
2.192e-05
2.085e-05
1.984e-05
1.888e-05
1.797e-05
1.711e-05
1.628e-05
1.549e-05
1.473e-05
1.399e-05
1.329e-05
1.26e-05
1.193e-05
1.128e-05
1.065e-05
1.002e-05
9.416e-06
8.819e-06
8.232e-06
7.653e-06
7.082e-06
6.518e-06
5.959e-06
5.405e-06
4.856e-06
4.31e-06
3.766e-06
3.225e-06
2.685e-06
2.146e-06
1.606e-06
1.067e-06
5.243e-07
7.509e-08
0.0003085
0.000311
0.0003097
0.0003061
0.0003019
0.0002979
0.0002944
0.0002913
0.0002886
0.0002862
0.000284
0.0002819
0.00028
0.0002783
0.0002767
0.0002752
0.0002737
0.0002724
0.0002711
0.0002699
0.0002688
0.0002677
0.0002666
0.0002656
0.0002645
0.0002635
0.0002625
0.0002615
0.0002605
0.0002594
0.0002583
0.0002572
0.0002561
0.0002549
0.0002537
0.0002524
0.000251
0.0002495
0.000248
0.0002464
0.0002446
0.0002427
0.0002407
0.0002385
0.0002361
0.0002335
0.0002307
0.0002277
0.0002244
0.0002209
0.0002171
0.000213
0.0002086
0.0002039
0.0001988
0.0001935
0.0001878
0.0001819
0.0001757
0.0001692
0.0001626
0.0001558
0.0001489
0.0001419
0.0001349
0.000128
0.0001211
0.0001144
0.0001079
0.0001016
9.556e-05
8.974e-05
8.419e-05
7.891e-05
7.391e-05
6.921e-05
6.479e-05
6.066e-05
5.681e-05
5.323e-05
4.992e-05
4.685e-05
4.401e-05
4.139e-05
3.897e-05
3.673e-05
3.466e-05
3.275e-05
3.097e-05
2.932e-05
2.779e-05
2.636e-05
2.502e-05
2.376e-05
2.258e-05
2.147e-05
2.042e-05
1.942e-05
1.848e-05
1.757e-05
1.671e-05
1.588e-05
1.509e-05
1.432e-05
1.359e-05
1.287e-05
1.218e-05
1.151e-05
1.085e-05
1.021e-05
9.584e-06
8.97e-06
8.368e-06
7.776e-06
7.193e-06
6.617e-06
6.048e-06
5.485e-06
4.927e-06
4.374e-06
3.823e-06
3.274e-06
2.727e-06
2.181e-06
1.634e-06
1.085e-06
5.318e-07
7.387e-08
0.0002999
0.0003026
0.0003025
0.0003003
0.0002973
0.0002942
0.0002913
0.0002887
0.0002864
0.0002844
0.0002825
0.0002807
0.0002791
0.0002775
0.0002761
0.0002747
0.0002734
0.0002721
0.0002709
0.0002698
0.0002686
0.0002675
0.0002665
0.0002654
0.0002644
0.0002634
0.0002623
0.0002613
0.0002602
0.0002591
0.000258
0.0002569
0.0002557
0.0002545
0.0002532
0.0002519
0.0002505
0.000249
0.0002475
0.0002458
0.000244
0.0002421
0.00024
0.0002378
0.0002355
0.0002329
0.0002301
0.0002271
0.0002238
0.0002203
0.0002165
0.0002124
0.0002081
0.0002034
0.0001984
0.000193
0.0001874
0.0001815
0.0001754
0.0001689
0.0001623
0.0001556
0.0001487
0.0001417
0.0001348
0.0001279
0.0001211
0.0001145
0.000108
0.0001018
9.578e-05
9.002e-05
8.451e-05
7.928e-05
7.433e-05
6.966e-05
6.528e-05
6.118e-05
5.736e-05
5.38e-05
5.051e-05
4.746e-05
4.464e-05
4.202e-05
3.961e-05
3.737e-05
3.53e-05
3.338e-05
3.159e-05
2.993e-05
2.837e-05
2.692e-05
2.556e-05
2.428e-05
2.307e-05
2.193e-05
2.085e-05
1.983e-05
1.885e-05
1.792e-05
1.703e-05
1.618e-05
1.536e-05
1.458e-05
1.382e-05
1.308e-05
1.237e-05
1.168e-05
1.101e-05
1.035e-05
9.712e-06
9.086e-06
8.472e-06
7.87e-06
7.277e-06
6.693e-06
6.117e-06
5.547e-06
4.982e-06
4.423e-06
3.866e-06
3.313e-06
2.761e-06
2.209e-06
1.656e-06
1.1e-06
5.397e-07
7.469e-08
0.0002934
0.0002961
0.0002967
0.0002955
0.0002933
0.0002909
0.0002885
0.0002863
0.0002844
0.0002826
0.0002809
0.0002794
0.000278
0.0002766
0.0002753
0.0002741
0.0002729
0.0002717
0.0002706
0.0002695
0.0002684
0.0002673
0.0002663
0.0002653
0.0002642
0.0002632
0.0002621
0.0002611
0.00026
0.0002589
0.0002578
0.0002567
0.0002555
0.0002543
0.000253
0.0002516
0.0002502
0.0002487
0.0002471
0.0002455
0.0002437
0.0002418
0.0002397
0.0002375
0.0002352
0.0002326
0.0002298
0.0002268
0.0002236
0.0002201
0.0002164
0.0002123
0.0002079
0.0002032
0.0001982
0.0001929
0.0001873
0.0001814
0.0001752
0.0001688
0.0001622
0.0001554
0.0001485
0.0001416
0.0001346
0.0001277
0.000121
0.0001143
0.0001079
0.0001017
9.573e-05
8.999e-05
8.451e-05
7.93e-05
7.437e-05
6.973e-05
6.537e-05
6.13e-05
5.751e-05
5.398e-05
5.072e-05
4.77e-05
4.49e-05
4.231e-05
3.992e-05
3.77e-05
3.564e-05
3.373e-05
3.195e-05
3.028e-05
2.873e-05
2.727e-05
2.589e-05
2.46e-05
2.338e-05
2.223e-05
2.113e-05
2.009e-05
1.91e-05
1.815e-05
1.725e-05
1.638e-05
1.555e-05
1.474e-05
1.397e-05
1.322e-05
1.25e-05
1.179e-05
1.111e-05
1.045e-05
9.797e-06
9.163e-06
8.541e-06
7.932e-06
7.333e-06
6.744e-06
6.162e-06
5.588e-06
5.02e-06
4.456e-06
3.897e-06
3.34e-06
2.785e-06
2.23e-06
1.674e-06
1.114e-06
5.485e-07
7.775e-08
0.0002884
0.0002909
0.0002919
0.0002913
0.0002898
0.000288
0.000286
0.0002842
0.0002825
0.0002809
0.0002795
0.0002782
0.0002769
0.0002757
0.0002745
0.0002734
0.0002723
0.0002712
0.0002702
0.0002691
0.0002681
0.0002671
0.0002661
0.0002651
0.0002641
0.000263
0.000262
0.000261
0.0002599
0.0002588
0.0002577
0.0002566
0.0002554
0.0002541
0.0002528
0.0002515
0.0002501
0.0002486
0.000247
0.0002454
0.0002436
0.0002417
0.0002397
0.0002375
0.0002352
0.0002327
0.0002299
0.000227
0.0002238
0.0002203
0.0002166
0.0002125
0.0002082
0.0002035
0.0001985
0.0001932
0.0001875
0.0001816
0.0001754
0.0001689
0.0001622
0.0001554
0.0001484
0.0001414
0.0001344
0.0001275
0.0001207
0.000114
0.0001076
0.0001014
9.539e-05
8.965e-05
8.417e-05
7.896e-05
7.404e-05
6.94e-05
6.507e-05
6.102e-05
5.726e-05
5.378e-05
5.055e-05
4.757e-05
4.481e-05
4.227e-05
3.991e-05
3.772e-05
3.569e-05
3.381e-05
3.204e-05
3.039e-05
2.885e-05
2.74e-05
2.603e-05
2.474e-05
2.352e-05
2.236e-05
2.126e-05
2.022e-05
1.922e-05
1.827e-05
1.736e-05
1.648e-05
1.564e-05
1.483e-05
1.405e-05
1.329e-05
1.256e-05
1.185e-05
1.116e-05
1.049e-05
9.839e-06
9.2e-06
8.575e-06
7.962e-06
7.36e-06
6.768e-06
6.184e-06
5.608e-06
5.039e-06
4.474e-06
3.914e-06
3.356e-06
2.8e-06
2.244e-06
1.687e-06
1.126e-06
5.585e-07
8.319e-08
0.0002843
0.0002867
0.0002878
0.0002877
0.0002868
0.0002854
0.0002838
0.0002823
0.0002808
0.0002794
0.0002782
0.000277
0.0002758
0.0002748
0.0002737
0.0002727
0.0002717
0.0002707
0.0002697
0.0002688
0.0002678
0.0002668
0.0002659
0.0002649
0.0002639
0.0002629
0.0002619
0.0002609
0.0002598
0.0002588
0.0002577
0.0002565
0.0002554
0.0002541
0.0002529
0.0002515
0.0002502
0.0002487
0.0002472
0.0002455
0.0002438
0.0002419
0.0002399
0.0002378
0.0002355
0.000233
0.0002304
0.0002275
0.0002243
0.0002209
0.0002172
0.0002132
0.0002088
0.0002041
0.0001991
0.0001937
0.000188
0.000182
0.0001757
0.0001692
0.0001624
0.0001555
0.0001484
0.0001412
0.0001341
0.0001271
0.0001202
0.0001135
0.0001071
0.0001008
9.476e-05
8.898e-05
8.347e-05
7.824e-05
7.331e-05
6.868e-05
6.436e-05
6.034e-05
5.662e-05
5.318e-05
5e-05
4.708e-05
4.438e-05
4.189e-05
3.958e-05
3.745e-05
3.546e-05
3.362e-05
3.189e-05
3.027e-05
2.875e-05
2.732e-05
2.598e-05
2.47e-05
2.349e-05
2.234e-05
2.125e-05
2.021e-05
1.922e-05
1.827e-05
1.736e-05
1.648e-05
1.564e-05
1.483e-05
1.405e-05
1.329e-05
1.256e-05
1.185e-05
1.116e-05
1.049e-05
9.836e-06
9.197e-06
8.571e-06
7.959e-06
7.357e-06
6.766e-06
6.183e-06
5.608e-06
5.039e-06
4.476e-06
3.917e-06
3.361e-06
2.806e-06
2.252e-06
1.696e-06
1.136e-06
5.697e-07
9.111e-08
0.000281
0.0002832
0.0002845
0.0002847
0.0002841
0.0002831
0.0002819
0.0002806
0.0002793
0.0002781
0.0002769
0.0002759
0.0002749
0.0002739
0.0002729
0.000272
0.0002711
0.0002702
0.0002693
0.0002684
0.0002675
0.0002666
0.0002656
0.0002647
0.0002638
0.0002628
0.0002618
0.0002609
0.0002598
0.0002588
0.0002577
0.0002566
0.0002555
0.0002543
0.000253
0.0002518
0.0002504
0.000249
0.0002475
0.0002459
0.0002442
0.0002424
0.0002405
0.0002384
0.0002362
0.0002338
0.0002312
0.0002283
0.0002252
0.0002219
0.0002182
0.0002142
0.0002099
0.0002052
0.0002001
0.0001947
0.0001889
0.0001828
0.0001764
0.0001697
0.0001628
0.0001557
0.0001484
0.0001411
0.0001338
0.0001267
0.0001197
0.0001129
0.0001063
9.992e-05
9.381e-05
8.796e-05
8.239e-05
7.712e-05
7.216e-05
6.753e-05
6.322e-05
5.924e-05
5.556e-05
5.218e-05
4.907e-05
4.622e-05
4.359e-05
4.118e-05
3.895e-05
3.688e-05
3.496e-05
3.317e-05
3.149e-05
2.992e-05
2.844e-05
2.705e-05
2.573e-05
2.449e-05
2.33e-05
2.217e-05
2.11e-05
2.007e-05
1.909e-05
1.815e-05
1.725e-05
1.639e-05
1.555e-05
1.475e-05
1.397e-05
1.322e-05
1.25e-05
1.179e-05
1.111e-05
1.044e-05
9.788e-06
9.153e-06
8.532e-06
7.923e-06
7.325e-06
6.737e-06
6.158e-06
5.586e-06
5.021e-06
4.462e-06
3.906e-06
3.354e-06
2.804e-06
2.253e-06
1.701e-06
1.145e-06
5.824e-07
1.015e-07
0.0002783
0.0002803
0.0002816
0.000282
0.0002818
0.0002811
0.0002801
0.0002791
0.000278
0.0002769
0.0002759
0.0002749
0.000274
0.0002731
0.0002722
0.0002714
0.0002705
0.0002697
0.0002689
0.000268
0.0002672
0.0002663
0.0002655
0.0002646
0.0002637
0.0002628
0.0002618
0.0002609
0.0002599
0.0002589
0.0002579
0.0002568
0.0002557
0.0002546
0.0002534
0.0002521
0.0002508
0.0002494
0.000248
0.0002465
0.0002448
0.0002431
0.0002413
0.0002393
0.0002372
0.0002348
0.0002323
0.0002296
0.0002266
0.0002233
0.0002197
0.0002157
0.0002114
0.0002067
0.0002016
0.0001961
0.0001902
0.0001839
0.0001774
0.0001705
0.0001634
0.000156
0.0001485
0.000141
0.0001334
0.0001261
0.0001189
0.0001119
0.0001052
9.869e-05
9.246e-05
8.651e-05
8.086e-05
7.553e-05
7.055e-05
6.591e-05
6.162e-05
5.768e-05
5.407e-05
5.077e-05
4.775e-05
4.499e-05
4.246e-05
4.014e-05
3.8e-05
3.602e-05
3.419e-05
3.247e-05
3.086e-05
2.935e-05
2.793e-05
2.659e-05
2.531e-05
2.41e-05
2.295e-05
2.186e-05
2.081e-05
1.981e-05
1.885e-05
1.793e-05
1.705e-05
1.62e-05
1.538e-05
1.459e-05
1.383e-05
1.309e-05
1.237e-05
1.168e-05
1.1e-05
1.034e-05
9.698e-06
9.071e-06
8.457e-06
7.855e-06
7.264e-06
6.682e-06
6.109e-06
5.544e-06
4.985e-06
4.432e-06
3.883e-06
3.337e-06
2.792e-06
2.248e-06
1.702e-06
1.153e-06
5.965e-07
1.145e-07
0.000276
0.0002778
0.0002792
0.0002797
0.0002797
0.0002793
0.0002786
0.0002777
0.0002768
0.0002758
0.0002749
0.000274
0.0002732
0.0002724
0.0002716
0.0002708
0.00027
0.0002693
0.0002685
0.0002677
0.0002669
0.0002661
0.0002653
0.0002645
0.0002636
0.0002628
0.0002619
0.000261
0.0002601
0.0002591
0.0002581
0.0002571
0.0002561
0.000255
0.0002538
0.0002526
0.0002514
0.0002501
0.0002487
0.0002473
0.0002457
0.0002441
0.0002423
0.0002405
0.0002384
0.0002362
0.0002339
0.0002312
0.0002283
0.0002252
0.0002217
0.0002178
0.0002135
0.0002088
0.0002036
0.000198
0.000192
0.0001856
0.0001788
0.0001717
0.0001643
0.0001566
0.0001488
0.0001408
0.000133
0.0001253
0.0001178
0.0001106
0.0001037
9.704e-05
9.064e-05
8.455e-05
7.88e-05
7.342e-05
6.84e-05
6.377e-05
5.953e-05
5.565e-05
5.213e-05
4.893e-05
4.603e-05
4.339e-05
4.099e-05
3.879e-05
3.677e-05
3.49e-05
3.316e-05
3.153e-05
3.001e-05
2.858e-05
2.723e-05
2.594e-05
2.473e-05
2.357e-05
2.246e-05
2.141e-05
2.04e-05
1.943e-05
1.85e-05
1.761e-05
1.675e-05
1.592e-05
1.513e-05
1.435e-05
1.361e-05
1.289e-05
1.219e-05
1.151e-05
1.084e-05
1.02e-05
9.568e-06
8.952e-06
8.348e-06
7.757e-06
7.175e-06
6.603e-06
6.039e-06
5.483e-06
4.933e-06
4.388e-06
3.847e-06
3.309e-06
2.773e-06
2.237e-06
1.7e-06
1.159e-06
6.119e-07
1.298e-07
0.000274
0.0002758
0.0002771
0.0002778
0.0002779
0.0002777
0.0002772
0.0002765
0.0002757
0.0002749
0.0002741
0.0002733
0.0002725
0.0002718
0.000271
0.0002703
0.0002696
0.0002689
0.0002682
0.0002674
0.0002667
0.000266
0.0002652
0.0002644
0.0002637
0.0002628
0.000262
0.0002612
0.0002603
0.0002594
0.0002585
0.0002575
0.0002565
0.0002555
0.0002544
0.0002533
0.0002521
0.0002509
0.0002496
0.0002482
0.0002468
0.0002453
0.0002437
0.0002419
0.00024
0.000238
0.0002357
0.0002333
0.0002305
0.0002275
0.0002241
0.0002204
0.0002162
0.0002115
0.0002063
0.0002007
0.0001945
0.0001879
0.0001808
0.0001734
0.0001656
0.0001576
0.0001492
0.0001408
0.0001325
0.0001243
0.0001165
0.0001089
0.0001017
9.48e-05
8.82e-05
8.196e-05
7.611e-05
7.067e-05
6.565e-05
6.106e-05
5.688e-05
5.311e-05
4.971e-05
4.666e-05
4.391e-05
4.143e-05
3.918e-05
3.713e-05
3.525e-05
3.351e-05
3.189e-05
3.038e-05
2.896e-05
2.761e-05
2.634e-05
2.514e-05
2.398e-05
2.289e-05
2.184e-05
2.083e-05
1.987e-05
1.894e-05
1.805e-05
1.719e-05
1.636e-05
1.557e-05
1.48e-05
1.405e-05
1.333e-05
1.263e-05
1.195e-05
1.129e-05
1.064e-05
1.001e-05
9.4e-06
8.798e-06
8.209e-06
7.63e-06
7.061e-06
6.501e-06
5.949e-06
5.404e-06
4.864e-06
4.33e-06
3.799e-06
3.272e-06
2.746e-06
2.22e-06
1.694e-06
1.164e-06
6.287e-07
1.473e-07
0.0002724
0.000274
0.0002753
0.000276
0.0002763
0.0002762
0.0002759
0.0002754
0.0002747
0.0002741
0.0002733
0.0002726
0.0002719
0.0002712
0.0002706
0.0002699
0.0002692
0.0002686
0.0002679
0.0002672
0.0002666
0.0002659
0.0002652
0.0002645
0.0002637
0.000263
0.0002622
0.0002614
0.0002606
0.0002597
0.0002589
0.000258
0.000257
0.0002561
0.0002551
0.000254
0.000253
0.0002518
0.0002506
0.0002494
0.0002481
0.0002467
0.0002452
0.0002436
0.0002419
0.00024
0.000238
0.0002357
0.0002332
0.0002304
0.0002272
0.0002236
0.0002195
0.0002149
0.0002098
0.0002042
0.0001979
0.0001911
0.0001837
0.0001759
0.0001677
0.0001591
0.00015
0.0001408
0.0001318
0.000123
0.0001145
0.0001065
9.897e-05
9.177e-05
8.495e-05
7.858e-05
7.266e-05
6.72e-05
6.222e-05
5.77e-05
5.365e-05
5.002e-05
4.68e-05
4.394e-05
4.139e-05
3.91e-05
3.704e-05
3.517e-05
3.346e-05
3.188e-05
3.04e-05
2.902e-05
2.771e-05
2.648e-05
2.53e-05
2.418e-05
2.31e-05
2.207e-05
2.109e-05
2.014e-05
1.923e-05
1.835e-05
1.751e-05
1.669e-05
1.59e-05
1.514e-05
1.44e-05
1.369e-05
1.299e-05
1.232e-05
1.167e-05
1.103e-05
1.04e-05
9.794e-06
9.198e-06
8.614e-06
8.041e-06
7.478e-06
6.925e-06
6.379e-06
5.84e-06
5.308e-06
4.781e-06
4.259e-06
3.741e-06
3.226e-06
2.712e-06
2.199e-06
1.685e-06
1.168e-06
6.467e-07
1.668e-07
0.000271
0.0002725
0.0002738
0.0002745
0.0002749
0.000275
0.0002748
0.0002744
0.0002739
0.0002733
0.0002727
0.0002721
0.0002714
0.0002708
0.0002702
0.0002696
0.0002689
0.0002683
0.0002677
0.0002671
0.0002665
0.0002658
0.0002652
0.0002645
0.0002638
0.0002631
0.0002624
0.0002617
0.0002609
0.0002602
0.0002594
0.0002585
0.0002577
0.0002568
0.0002559
0.0002549
0.0002539
0.0002529
0.0002518
0.0002507
0.0002495
0.0002483
0.000247
0.0002455
0.000244
0.0002424
0.0002405
0.0002385
0.0002363
0.0002337
0.0002308
0.0002274
0.0002236
0.0002192
0.0002143
0.0002087
0.0002024
0.0001955
0.0001879
0.0001797
0.000171
0.0001615
0.0001513
0.000141
0.0001308
0.000121
0.0001116
0.0001031
9.511e-05
8.763e-05
8.063e-05
7.418e-05
6.827e-05
6.288e-05
5.801e-05
5.366e-05
4.979e-05
4.639e-05
4.34e-05
4.079e-05
3.848e-05
3.644e-05
3.461e-05
3.295e-05
3.143e-05
3.003e-05
2.872e-05
2.748e-05
2.63e-05
2.518e-05
2.411e-05
2.309e-05
2.21e-05
2.115e-05
2.023e-05
1.935e-05
1.85e-05
1.768e-05
1.688e-05
1.612e-05
1.537e-05
1.465e-05
1.395e-05
1.327e-05
1.261e-05
1.197e-05
1.134e-05
1.073e-05
1.013e-05
9.541e-06
8.967e-06
8.403e-06
7.849e-06
7.305e-06
6.768e-06
6.238e-06
5.715e-06
5.198e-06
4.686e-06
4.178e-06
3.674e-06
3.172e-06
2.672e-06
2.173e-06
1.673e-06
1.171e-06
6.657e-07
1.881e-07
0.0002698
0.0002713
0.0002724
0.0002733
0.0002737
0.0002739
0.0002738
0.0002735
0.0002731
0.0002726
0.0002721
0.0002716
0.000271
0.0002704
0.0002699
0.0002693
0.0002687
0.0002681
0.0002676
0.000267
0.0002664
0.0002658
0.0002652
0.0002646
0.000264
0.0002634
0.0002627
0.000262
0.0002613
0.0002606
0.0002599
0.0002592
0.0002584
0.0002576
0.0002568
0.0002559
0.000255
0.0002541
0.0002531
0.0002522
0.0002511
0.00025
0.0002489
0.0002477
0.0002464
0.000245
0.0002434
0.0002417
0.0002397
0.0002375
0.0002349
0.0002319
0.0002284
0.0002244
0.0002197
0.0002144
0.0002083
0.0002015
0.0001938
0.0001854
0.0001762
0.0001658
0.0001537
0.0001413
0.0001293
0.0001177
0.000107
9.774e-05
8.953e-05
8.195e-05
7.491e-05
6.856e-05
6.282e-05
5.763e-05
5.299e-05
4.89e-05
4.532e-05
4.221e-05
3.954e-05
3.723e-05
3.523e-05
3.347e-05
3.191e-05
3.05e-05
2.92e-05
2.8e-05
2.686e-05
2.578e-05
2.475e-05
2.376e-05
2.281e-05
2.188e-05
2.099e-05
2.013e-05
1.929e-05
1.848e-05
1.77e-05
1.693e-05
1.62e-05
1.548e-05
1.478e-05
1.411e-05
1.345e-05
1.281e-05
1.218e-05
1.157e-05
1.098e-05
1.039e-05
9.821e-06
9.26e-06
8.71e-06
8.169e-06
7.637e-06
7.112e-06
6.594e-06
6.083e-06
5.577e-06
5.076e-06
4.58e-06
4.088e-06
3.598e-06
3.112e-06
2.627e-06
2.143e-06
1.659e-06
1.173e-06
6.855e-07
2.109e-07
0.0002688
0.0002702
0.0002713
0.0002721
0.0002727
0.0002729
0.0002729
0.0002727
0.0002725
0.0002721
0.0002716
0.0002711
0.0002706
0.0002701
0.0002696
0.0002691
0.0002685
0.000268
0.0002675
0.000267
0.0002664
0.0002659
0.0002653
0.0002648
0.0002642
0.0002636
0.000263
0.0002624
0.0002618
0.0002612
0.0002605
0.0002598
0.0002591
0.0002584
0.0002577
0.0002569
0.0002562
0.0002554
0.0002545
0.0002537
0.0002528
0.0002519
0.0002509
0.0002499
0.0002489
0.0002478
0.0002465
0.0002451
0.0002435
0.0002417
0.0002396
0.000237
0.000234
0.0002305
0.0002263
0.0002215
0.0002159
0.0002095
0.0002022
0.0001941
0.000185
0.0001739
0.0001586
0.000142
0.0001262
0.0001115
9.9e-05
8.949e-05
8.145e-05
7.413e-05
6.743e-05
6.153e-05
5.622e-05
5.142e-05
4.716e-05
4.345e-05
4.025e-05
3.754e-05
3.525e-05
3.331e-05
3.167e-05
3.025e-05
2.899e-05
2.785e-05
2.68e-05
2.582e-05
2.488e-05
2.397e-05
2.309e-05
2.224e-05
2.141e-05
2.06e-05
1.98e-05
1.903e-05
1.828e-05
1.754e-05
1.683e-05
1.613e-05
1.545e-05
1.479e-05
1.415e-05
1.352e-05
1.291e-05
1.231e-05
1.172e-05
1.115e-05
1.058e-05
1.003e-05
9.491e-06
8.958e-06
8.434e-06
7.917e-06
7.408e-06
6.905e-06
6.407e-06
5.915e-06
5.428e-06
4.945e-06
4.466e-06
3.99e-06
3.517e-06
3.046e-06
2.577e-06
2.11e-06
1.643e-06
1.175e-06
7.058e-07
2.347e-07
0.000268
0.0002692
0.0002704
0.0002712
0.0002717
0.000272
0.0002721
0.0002721
0.0002719
0.0002716
0.0002712
0.0002708
0.0002703
0.0002699
0.0002694
0.0002689
0.0002684
0.0002679
0.0002675
0.000267
0.0002665
0.000266
0.0002655
0.000265
0.0002645
0.0002639
0.0002634
0.0002629
0.0002623
0.0002617
0.0002612
0.0002606
0.00026
0.0002593
0.0002587
0.000258
0.0002574
0.0002567
0.000256
0.0002553
0.0002546
0.0002539
0.0002531
0.0002523
0.0002515
0.0002507
0.0002498
0.0002488
0.0002476
0.0002462
0.0002446
0.0002426
0.0002402
0.0002373
0.0002338
0.0002298
0.0002252
0.0002199
0.0002139
0.0002066
0.0001982
0.0001875
0.0001671
0.0001424
0.0001208
0.0001016
8.71e-05
7.78e-05
7.032e-05
6.374e-05
5.792e-05
5.298e-05
4.852e-05
4.435e-05
4.062e-05
3.742e-05
3.471e-05
3.246e-05
3.063e-05
2.913e-05
2.789e-05
2.684e-05
2.592e-05
2.508e-05
2.43e-05
2.354e-05
2.28e-05
2.208e-05
2.136e-05
2.065e-05
1.994e-05
1.925e-05
1.856e-05
1.788e-05
1.721e-05
1.656e-05
1.592e-05
1.529e-05
1.468e-05
1.407e-05
1.348e-05
1.29e-05
1.234e-05
1.178e-05
1.124e-05
1.07e-05
1.017e-05
9.655e-06
9.145e-06
8.641e-06
8.144e-06
7.653e-06
7.167e-06
6.687e-06
6.211e-06
5.739e-06
5.271e-06
4.807e-06
4.345e-06
3.887e-06
3.431e-06
2.977e-06
2.525e-06
2.075e-06
1.625e-06
1.176e-06
7.265e-07
2.593e-07
0.0002672
0.0002685
0.0002695
0.0002704
0.0002709
0.0002713
0.0002715
0.0002715
0.0002713
0.0002711
0.0002708
0.0002705
0.0002701
0.0002697
0.0002692
0.0002688
0.0002684
0.0002679
0.0002675
0.000267
0.0002666
0.0002661
0.0002657
0.0002652
0.0002647
0.0002643
0.0002638
0.0002633
0.0002628
0.0002623
0.0002618
0.0002613
0.0002608
0.0002603
0.0002597
0.0002592
0.0002586
0.0002581
0.0002575
0.000257
0.0002564
0.0002558
0.0002553
0.0002547
0.0002542
0.0002537
0.0002531
0.0002525
0.0002518
0.0002509
0.0002498
0.0002484
0.0002467
0.0002445
0.0002419
0.0002389
0.0002357
0.0002323
0.0002268
0.0002215
0.0002171
0.0002067
0.0001537
0.0001351
0.0001294
0.0001067
6.954e-05
6.118e-05
5.828e-05
5.297e-05
4.652e-05
4.316e-05
4e-05
3.666e-05
3.361e-05
3.101e-05
2.885e-05
2.713e-05
2.58e-05
2.478e-05
2.399e-05
2.334e-05
2.277e-05
2.225e-05
2.173e-05
2.122e-05
2.069e-05
2.014e-05
1.959e-05
1.902e-05
1.844e-05
1.786e-05
1.728e-05
1.67e-05
1.612e-05
1.555e-05
1.498e-05
1.442e-05
1.387e-05
1.333e-05
1.28e-05
1.227e-05
1.175e-05
1.124e-05
1.074e-05
1.024e-05
9.752e-06
9.267e-06
8.789e-06
8.315e-06
7.846e-06
7.381e-06
6.92e-06
6.463e-06
6.009e-06
5.558e-06
5.11e-06
4.665e-06
4.222e-06
3.781e-06
3.342e-06
2.906e-06
2.471e-06
2.038e-06
1.607e-06
1.176e-06
7.472e-07
2.841e-07
0.0002666
0.0002678
0.0002688
0.0002696
0.0002703
0.0002707
0.0002709
0.0002709
0.0002709
0.0002707
0.0002705
0.0002702
0.0002699
0.0002695
0.0002691
0.0002687
0.0002683
0.0002679
0.0002675
0.0002671
0.0002667
0.0002663
0.0002659
0.0002655
0.0002651
0.0002646
0.0002642
0.0002638
0.0002634
0.0002629
0.0002625
0.0002621
0.0002616
0.0002612
0.0002608
0.0002603
0.0002599
0.0002594
0.000259
0.0002586
0.0002582
0.0002578
0.0002575
0.0002571
0.0002569
0.0002566
0.0002564
0.0002561
0.0002559
0.0002555
0.000255
0.0002543
0.0002531
0.0002516
0.0002498
0.0002478
0.0002457
0.0002437
0.0002403
0.000216
0.0001678
0.0001727
0.0001296
0.0001295
0.0001395
0.0001298
0.0001021
0.0001056
7.126e-05
4.023e-05
3.473e-05
3.429e-05
3.137e-05
2.888e-05
2.649e-05
2.45e-05
2.29e-05
2.172e-05
2.092e-05
2.04e-05
2.007e-05
1.984e-05
1.963e-05
1.942e-05
1.918e-05
1.89e-05
1.857e-05
1.821e-05
1.781e-05
1.738e-05
1.693e-05
1.647e-05
1.599e-05
1.551e-05
1.502e-05
1.453e-05
1.404e-05
1.355e-05
1.306e-05
1.258e-05
1.21e-05
1.163e-05
1.116e-05
1.07e-05
1.024e-05
9.779e-06
9.326e-06
8.876e-06
8.43e-06
7.986e-06
7.546e-06
7.107e-06
6.671e-06
6.238e-06
5.806e-06
5.376e-06
4.948e-06
4.521e-06
4.097e-06
3.674e-06
3.253e-06
2.834e-06
2.416e-06
2.001e-06
1.588e-06
1.176e-06
7.676e-07
3.089e-07
0.0002661
0.0002672
0.0002682
0.000269
0.0002697
0.0002701
0.0002704
0.0002705
0.0002705
0.0002704
0.0002702
0.00027
0.0002697
0.0002694
0.000269
0.0002687
0.0002683
0.0002679
0.0002676
0.0002672
0.0002668
0.0002665
0.0002661
0.0002657
0.0002654
0.000265
0.0002646
0.0002643
0.0002639
0.0002636
0.0002632
0.0002628
0.0002625
0.0002621
0.0002618
0.0002614
0.0002611
0.0002608
0.0002605
0.0002602
0.0002599
0.0002597
0.0002596
0.0002595
0.0002594
0.0002594
0.0002595
0.0002597
0.0002598
0.00026
0.00026
0.0002597
0.0002591
0.0002581
0.0002567
0.0002551
0.0002541
0.000249
0.0002127
0.0001697
0.0001156
1.254e-05
-3.546e-05
0.0001062
0.0001879
0.0002658
0.0001894
0.0001473
0.0001117
8.062e-05
3.702e-05
2.617e-05
2.468e-05
2.157e-05
1.97e-05
1.823e-05
1.711e-05
1.643e-05
1.615e-05
1.614e-05
1.627e-05
1.645e-05
1.66e-05
1.669e-05
1.67e-05
1.664e-05
1.651e-05
1.632e-05
1.607e-05
1.578e-05
1.545e-05
1.51e-05
1.472e-05
1.433e-05
1.393e-05
1.352e-05
1.31e-05
1.269e-05
1.226e-05
1.184e-05
1.142e-05
1.1e-05
1.058e-05
1.016e-05
9.74e-06
9.322e-06
8.906e-06
8.49e-06
8.076e-06
7.662e-06
7.249e-06
6.837e-06
6.426e-06
6.015e-06
5.605e-06
5.196e-06
4.787e-06
4.38e-06
3.974e-06
3.568e-06
3.164e-06
2.762e-06
2.362e-06
1.964e-06
1.568e-06
1.176e-06
7.874e-07
3.331e-07
0.0002657
0.0002667
0.0002677
0.0002685
0.0002692
0.0002696
0.0002699
0.0002701
0.0002702
0.0002701
0.00027
0.0002698
0.0002696
0.0002693
0.000269
0.0002687
0.0002683