/*--------------------------------*- C++ -*----------------------------------*\
  =========                 |
  \\      /  F ield         | OpenFOAM: The Open Source CFD Toolbox
   \\    /   O peration     | Website:  https://openfoam.org
    \\  /    A nd           | Version:  7
     \\/     M anipulation  |
\*---------------------------------------------------------------------------*/
FoamFile
{
    version     2.0;
    format      ascii;
    class       surfaceScalarField;
    location    "839.999473410766313";
    object      phi;
}
// * * * * * * * * * * * * * * * * * * * * * * * * * * * * * * * * * * * * * //

dimensions      [0 3 -1 0 0 0 0];

internalField   nonuniform List<scalar> 
8032
(
6.857e-10
2.518e-10
4.804e-10
2.053e-10
3.48e-10
1.324e-10
2.643e-10
8.372e-11
2.101e-10
5.415e-11
1.738e-10
3.636e-11
1.483e-10
2.549e-11
1.297e-10
1.863e-11
1.155e-10
1.411e-11
1.045e-10
1.1e-11
9.578e-11
8.764e-12
8.868e-11
7.097e-12
8.287e-11
5.816e-12
7.806e-11
4.805e-12
7.407e-11
3.99e-12
7.075e-11
3.319e-12
6.8e-11
2.757e-12
6.572e-11
2.278e-12
6.385e-11
1.864e-12
6.235e-11
1.501e-12
6.117e-11
1.177e-12
6.029e-11
8.842e-13
5.968e-11
6.15e-13
5.931e-11
3.638e-13
5.919e-11
1.259e-13
5.929e-11
-1.029e-13
5.961e-11
-3.26e-13
6.016e-11
-5.466e-13
6.093e-11
-7.673e-13
6.192e-11
-9.905e-13
6.314e-11
-1.218e-12
6.459e-11
-1.452e-12
6.628e-11
-1.695e-12
6.823e-11
-1.946e-12
7.044e-11
-2.208e-12
7.292e-11
-2.48e-12
7.568e-11
-2.764e-12
7.874e-11
-3.059e-12
8.21e-11
-3.364e-12
8.578e-11
-3.678e-12
8.978e-11
-4e-12
9.411e-11
-4.326e-12
9.876e-11
-4.654e-12
1.037e-10
-4.979e-12
1.09e-10
-5.296e-12
1.146e-10
-5.599e-12
1.205e-10
-5.881e-12
1.267e-10
-6.135e-12
1.33e-10
-6.35e-12
1.395e-10
-6.519e-12
1.462e-10
-6.631e-12
1.528e-10
-6.677e-12
1.595e-10
-6.647e-12
1.66e-10
-6.533e-12
1.723e-10
-6.327e-12
1.784e-10
-6.024e-12
1.84e-10
-5.621e-12
1.891e-10
-5.118e-12
1.936e-10
-4.517e-12
1.974e-10
-3.827e-12
2.005e-10
-3.059e-12
2.027e-10
-2.226e-12
2.041e-10
-1.348e-12
2.045e-10
-4.442e-13
2.041e-10
4.622e-13
2.027e-10
1.35e-12
2.005e-10
2.2e-12
1.975e-10
2.994e-12
1.938e-10
3.719e-12
1.894e-10
4.365e-12
1.845e-10
4.924e-12
1.791e-10
5.394e-12
1.733e-10
5.774e-12
1.673e-10
6.065e-12
1.61e-10
6.271e-12
1.546e-10
6.397e-12
1.482e-10
6.449e-12
1.417e-10
6.433e-12
1.354e-10
6.357e-12
1.291e-10
6.23e-12
1.231e-10
6.058e-12
1.172e-10
5.849e-12
1.116e-10
5.611e-12
1.063e-10
5.351e-12
1.012e-10
5.076e-12
9.64e-11
4.79e-12
9.19e-11
4.499e-12
8.769e-11
4.208e-12
8.377e-11
3.921e-12
8.013e-11
3.639e-12
7.677e-11
3.367e-12
7.366e-11
3.105e-12
7.081e-11
2.855e-12
6.819e-11
2.618e-12
6.579e-11
2.394e-12
6.361e-11
2.185e-12
6.162e-11
1.989e-12
5.981e-11
1.807e-12
5.817e-11
1.639e-12
5.669e-11
1.483e-12
5.535e-11
1.34e-12
5.414e-11
1.208e-12
5.306e-11
1.088e-12
5.208e-11
9.778e-13
5.12e-11
8.776e-13
5.041e-11
7.864e-13
4.971e-11
7.036e-13
4.908e-11
6.286e-13
4.852e-11
5.608e-13
4.802e-11
4.996e-13
4.758e-11
4.445e-13
4.718e-11
3.951e-13
4.683e-11
3.508e-13
4.652e-11
3.114e-13
4.624e-11
2.765e-13
4.6e-11
2.458e-13
4.578e-11
2.193e-13
4.558e-11
1.967e-13
4.54e-11
1.782e-13
4.524e-11
1.638e-13
4.509e-11
1.539e-13
4.494e-11
1.493e-13
4.478e-11
1.512e-13
4.462e-11
1.622e-13
4.444e-11
1.87e-13
4.42e-11
2.332e-13
4.389e-11
3.098e-13
4.026e-13
9.523e-10
2.37e-10
8.501e-10
3.075e-10
7.275e-10
2.55e-10
6.183e-10
1.929e-10
5.294e-10
1.43e-10
4.593e-10
1.064e-10
4.043e-10
8.048e-11
3.609e-10
6.207e-11
3.262e-10
4.882e-11
2.981e-10
3.907e-11
2.752e-10
3.171e-11
2.562e-10
2.603e-11
2.405e-10
2.155e-11
2.274e-10
1.795e-11
2.164e-10
1.499e-11
2.071e-10
1.253e-11
1.994e-10
1.045e-11
1.931e-10
8.668e-12
1.878e-10
7.113e-12
1.836e-10
5.741e-12
1.802e-10
4.513e-12
1.777e-10
3.398e-12
1.76e-10
2.37e-12
1.749e-10
1.41e-12
1.745e-10
4.989e-13
1.748e-10
-3.775e-13
1.757e-10
-1.232e-12
1.773e-10
-2.076e-12
1.794e-10
-2.92e-12
1.822e-10
-3.771e-12
1.856e-10
-4.638e-12
1.897e-10
-5.528e-12
1.944e-10
-6.445e-12
1.999e-10
-7.394e-12
2.061e-10
-8.379e-12
2.13e-10
-9.402e-12
2.207e-10
-1.046e-11
2.292e-10
-1.156e-11
2.385e-10
-1.27e-11
2.487e-10
-1.386e-11
2.597e-10
-1.504e-11
2.716e-10
-1.624e-11
2.844e-10
-1.744e-11
2.981e-10
-1.862e-11
3.126e-10
-1.977e-11
3.278e-10
-2.086e-11
3.438e-10
-2.187e-11
3.604e-10
-2.276e-11
3.776e-10
-2.352e-11
3.952e-10
-2.409e-11
4.13e-10
-2.446e-11
4.309e-10
-2.458e-11
4.487e-10
-2.443e-11
4.661e-10
-2.397e-11
4.83e-10
-2.318e-11
4.99e-10
-2.204e-11
5.139e-10
-2.054e-11
5.275e-10
-1.868e-11
5.394e-10
-1.648e-11
5.496e-10
-1.396e-11
5.577e-10
-1.116e-11
5.636e-10
-8.136e-12
5.672e-10
-4.95e-12
5.684e-10
-1.675e-12
5.673e-10
1.612e-12
5.638e-10
4.838e-12
5.58e-10
7.931e-12
5.502e-10
1.083e-11
5.404e-10
1.349e-11
5.289e-10
1.586e-11
5.159e-10
1.794e-11
5.016e-10
1.969e-11
4.863e-10
2.112e-11
4.701e-10
2.223e-11
4.534e-10
2.303e-11
4.362e-10
2.354e-11
4.189e-10
2.378e-11
4.015e-10
2.377e-11
3.844e-10
2.354e-11
3.675e-10
2.311e-11
3.51e-10
2.252e-11
3.351e-10
2.179e-11
3.197e-10
2.095e-11
3.051e-10
2.002e-11
2.911e-10
1.903e-11
2.779e-10
1.799e-11
2.655e-10
1.694e-11
2.538e-10
1.588e-11
2.429e-10
1.482e-11
2.328e-10
1.378e-11
2.234e-10
1.278e-11
2.147e-10
1.181e-11
2.066e-10
1.088e-11
1.993e-10
9.993e-12
1.925e-10
9.157e-12
1.863e-10
8.372e-12
1.807e-10
7.636e-12
1.755e-10
6.951e-12
1.708e-10
6.315e-12
1.666e-10
5.726e-12
1.628e-10
5.182e-12
1.593e-10
4.683e-12
1.561e-10
4.224e-12
1.533e-10
3.804e-12
1.508e-10
3.421e-12
1.485e-10
3.072e-12
1.464e-10
2.754e-12
1.446e-10
2.466e-12
1.43e-10
2.205e-12
1.415e-10
1.969e-12
1.402e-10
1.756e-12
1.39e-10
1.564e-12
1.38e-10
1.393e-12
1.37e-10
1.24e-12
1.362e-10
1.104e-12
1.355e-10
9.844e-13
1.348e-10
8.806e-13
1.342e-10
7.919e-13
1.337e-10
7.184e-13
1.332e-10
6.604e-13
1.327e-10
6.187e-13
1.323e-10
5.951e-13
1.318e-10
5.922e-13
1.314e-10
6.142e-13
1.309e-10
6.671e-13
1.304e-10
7.579e-13
1.298e-10
8.854e-13
1.006e-12
9.779e-10
1.966e-10
9.637e-10
3.217e-10
9.013e-10
3.174e-10
8.213e-10
2.73e-10
7.411e-10
2.232e-10
6.682e-10
1.793e-10
6.049e-10
1.437e-10
5.511e-10
1.159e-10
5.058e-10
9.416e-11
4.676e-10
7.722e-11
4.355e-10
6.386e-11
4.084e-10
5.317e-11
3.854e-10
4.45e-11
3.66e-10
3.738e-11
3.495e-10
3.144e-11
3.356e-10
2.643e-11
3.239e-10
2.214e-11
3.142e-10
1.842e-11
3.061e-10
1.516e-11
2.996e-10
1.227e-11
2.945e-10
9.661e-12
2.906e-10
7.282e-12
2.879e-10
5.083e-12
2.863e-10
3.021e-12
2.857e-10
1.061e-12
2.861e-10
-8.27e-13
2.876e-10
-2.67e-12
2.9e-10
-4.491e-12
2.934e-10
-6.309e-12
2.978e-10
-8.144e-12
3.031e-10
-1.001e-11
3.095e-10
-1.192e-11
3.17e-10
-1.389e-11
3.255e-10
-1.592e-11
3.352e-10
-1.803e-11
3.46e-10
-2.021e-11
3.58e-10
-2.247e-11
3.712e-10
-2.481e-11
3.857e-10
-2.721e-11
4.016e-10
-2.967e-11
4.187e-10
-3.217e-11
4.371e-10
-3.47e-11
4.569e-10
-3.721e-11
4.78e-10
-3.969e-11
5.003e-10
-4.208e-11
5.238e-10
-4.435e-11
5.483e-10
-4.643e-11
5.738e-10
-4.828e-11
6.001e-10
-4.981e-11
6.27e-10
-5.098e-11
6.543e-10
-5.17e-11
6.816e-10
-5.19e-11
7.087e-10
-5.153e-11
7.352e-10
-5.051e-11
7.609e-10
-4.881e-11
7.852e-10
-4.637e-11
8.078e-10
-4.319e-11
8.284e-10
-3.927e-11
8.466e-10
-3.463e-11
8.62e-10
-2.934e-11
8.743e-10
-2.347e-11
8.833e-10
-1.713e-11
8.888e-10
-1.046e-11
8.907e-10
-3.603e-12
8.89e-10
3.282e-12
8.838e-10
1.004e-11
8.752e-10
1.653e-11
8.634e-10
2.262e-11
8.487e-10
2.822e-11
8.313e-10
3.324e-11
8.116e-10
3.762e-11
7.9e-10
4.135e-11
7.667e-10
4.441e-11
7.421e-10
4.68e-11
7.166e-10
4.855e-11
6.905e-10
4.968e-11
6.64e-10
5.025e-11
6.375e-10
5.029e-11
6.111e-10
4.987e-11
5.852e-10
4.903e-11
5.599e-10
4.784e-11
5.353e-10
4.635e-11
5.117e-10
4.462e-11
4.89e-10
4.269e-11
4.674e-10
4.063e-11
4.469e-10
3.848e-11
4.276e-10
3.627e-11
4.094e-10
3.404e-11
3.924e-10
3.182e-11
3.766e-10
2.963e-11
3.619e-10
2.75e-11
3.482e-10
2.545e-11
3.356e-10
2.347e-11
3.24e-10
2.159e-11
3.134e-10
1.982e-11
3.036e-10
1.814e-11
2.947e-10
1.657e-11
2.865e-10
1.51e-11
2.791e-10
1.374e-11
2.723e-10
1.247e-11
2.662e-10
1.13e-11
2.607e-10
1.023e-11
2.557e-10
9.238e-12
2.511e-10
8.332e-12
2.471e-10
7.503e-12
2.434e-10
6.747e-12
2.401e-10
6.058e-12
2.371e-10
5.432e-12
2.344e-10
4.864e-12
2.321e-10
4.35e-12
2.299e-10
3.886e-12
2.28e-10
3.469e-12
2.263e-10
3.094e-12
2.248e-10
2.759e-12
2.235e-10
2.461e-12
2.222e-10
2.198e-12
2.212e-10
1.969e-12
2.202e-10
1.772e-12
2.193e-10
1.607e-12
2.185e-10
1.475e-12
2.177e-10
1.376e-12
2.17e-10
1.312e-12
2.163e-10
1.286e-12
2.156e-10
1.302e-12
2.149e-10
1.363e-12
2.142e-10
1.47e-12
2.135e-10
1.607e-12
1.718e-12
9.752e-10
1.589e-10
9.93e-10
3.038e-10
9.728e-10
3.376e-10
9.27e-10
3.188e-10
8.692e-10
2.81e-10
8.088e-10
2.398e-10
7.508e-10
2.017e-10
6.978e-10
1.689e-10
6.505e-10
1.414e-10
6.09e-10
1.188e-10
5.728e-10
1e-10
5.414e-10
8.452e-11
5.144e-10
7.158e-11
4.911e-10
6.069e-11
4.711e-10
5.144e-11
4.54e-10
4.35e-11
4.395e-10
3.662e-11
4.273e-10
3.06e-11
4.172e-10
2.526e-11
4.09e-10
2.049e-11
4.025e-10
1.616e-11
3.976e-10
1.218e-11
3.942e-10
8.49e-12
3.922e-10
5.015e-12
3.916e-10
1.701e-12
3.922e-10
-1.498e-12
3.942e-10
-4.626e-12
3.974e-10
-7.719e-12
4.019e-10
-1.081e-11
4.077e-10
-1.393e-11
4.148e-10
-1.71e-11
4.232e-10
-2.034e-11
4.33e-10
-2.368e-11
4.442e-10
-2.712e-11
4.569e-10
-3.069e-11
4.71e-10
-3.437e-11
4.867e-10
-3.818e-11
5.04e-10
-4.211e-11
5.23e-10
-4.614e-11
5.435e-10
-5.027e-11
5.658e-10
-5.445e-11
5.898e-10
-5.867e-11
6.154e-10
-6.286e-11
6.427e-10
-6.697e-11
6.716e-10
-7.094e-11
7.019e-10
-7.469e-11
7.336e-10
-7.813e-11
7.665e-10
-8.115e-11
8.004e-10
-8.367e-11
8.349e-10
-8.555e-11
8.699e-10
-8.669e-11
9.05e-10
-8.697e-11
9.397e-10
-8.628e-11
9.737e-10
-8.453e-11
1.007e-09
-8.163e-11
1.038e-09
-7.752e-11
1.067e-09
-7.218e-11
1.093e-09
-6.561e-11
1.116e-09
-5.787e-11
1.136e-09
-4.903e-11
1.152e-09
-3.924e-11
1.163e-09
-2.868e-11
1.17e-09
-1.756e-11
1.173e-09
-6.135e-12
1.171e-09
5.34e-12
1.164e-09
1.661e-11
1.153e-09
2.744e-11
1.138e-09
3.761e-11
1.12e-09
4.697e-11
1.098e-09
5.537e-11
1.072e-09
6.274e-11
1.045e-09
6.901e-11
1.015e-09
7.418e-11
9.835e-10
7.824e-11
9.508e-10
8.124e-11
9.173e-10
8.322e-11
8.833e-10
8.425e-11
8.492e-10
8.44e-11
8.153e-10
8.377e-11
7.819e-10
8.245e-11
7.492e-10
8.053e-11
7.174e-10
7.81e-11
6.868e-10
7.526e-11
6.574e-10
7.21e-11
6.293e-10
6.869e-11
6.027e-10
6.512e-11
5.775e-10
6.145e-11
5.538e-10
5.773e-11
5.316e-10
5.403e-11
5.109e-10
5.037e-11
4.916e-10
4.681e-11
4.737e-10
4.336e-11
4.571e-10
4.004e-11
4.418e-10
3.688e-11
4.277e-10
3.388e-11
4.148e-10
3.105e-11
4.03e-10
2.839e-11
3.922e-10
2.591e-11
3.824e-10
2.359e-11
3.734e-10
2.144e-11
3.652e-10
1.946e-11
3.578e-10
1.763e-11
3.511e-10
1.594e-11
3.451e-10
1.439e-11
3.396e-10
1.298e-11
3.347e-10
1.168e-11
3.302e-10
1.05e-11
3.262e-10
9.43e-12
3.226e-10
8.455e-12
3.194e-10
7.572e-12
3.165e-10
6.773e-12
3.139e-10
6.054e-12
3.116e-10
5.406e-12
3.095e-10
4.827e-12
3.077e-10
4.312e-12
3.06e-10
3.855e-12
3.046e-10
3.456e-12
3.032e-10
3.111e-12
3.02e-10
2.82e-12
3.009e-10
2.582e-12
2.999e-10
2.396e-12
2.989e-10
2.266e-12
2.98e-10
2.192e-12
2.971e-10
2.175e-12
2.963e-10
2.217e-12
2.954e-10
2.309e-12
2.946e-10
2.429e-12
2.521e-12
9.668e-10
1.296e-10
9.945e-10
2.762e-10
9.98e-10
3.341e-10
9.782e-10
3.386e-10
9.428e-10
3.164e-10
8.991e-10
2.835e-10
8.525e-10
2.483e-10
8.064e-10
2.149e-10
7.63e-10
1.849e-10
7.23e-10
1.587e-10
6.87e-10
1.361e-10
6.548e-10
1.167e-10
6.264e-10
9.997e-11
6.015e-10
8.559e-11
5.798e-10
7.312e-11
5.611e-10
6.225e-11
5.45e-10
5.269e-11
5.314e-10
4.421e-11
5.201e-10
3.662e-11
5.108e-10
2.976e-11
5.035e-10
2.349e-11
4.98e-10
1.77e-11
4.942e-10
1.23e-11
4.92e-10
7.184e-12
4.914e-10
2.291e-12
4.923e-10
-2.449e-12
4.948e-10
-7.093e-12
4.988e-10
-1.169e-11
5.043e-10
-1.629e-11
5.113e-10
-2.093e-11
5.198e-10
-2.565e-11
5.3e-10
-3.048e-11
5.417e-10
-3.545e-11
5.552e-10
-4.056e-11
5.703e-10
-4.585e-11
5.873e-10
-5.131e-11
6.061e-10
-5.695e-11
6.267e-10
-6.276e-11
6.493e-10
-6.872e-11
6.738e-10
-7.48e-11
7.003e-10
-8.096e-11
7.288e-10
-8.715e-11
7.593e-10
-9.33e-11
7.916e-10
-9.933e-11
8.258e-10
-1.051e-10
8.617e-10
-1.106e-10
8.992e-10
-1.156e-10
9.381e-10
-1.2e-10
9.78e-10
-1.236e-10
1.019e-09
-1.263e-10
1.06e-09
-1.28e-10
1.101e-09
-1.283e-10
1.142e-09
-1.272e-10
1.182e-09
-1.246e-10
1.221e-09
-1.203e-10
1.258e-09
-1.142e-10
1.292e-09
-1.063e-10
1.323e-09
-9.666e-11
1.35e-09
-8.525e-11
1.374e-09
-7.225e-11
1.392e-09
-5.785e-11
1.406e-09
-4.232e-11
1.414e-09
-2.598e-11
1.417e-09
-9.176e-12
1.415e-09
7.7e-12
1.407e-09
2.428e-11
1.395e-09
4.021e-11
1.377e-09
5.518e-11
1.355e-09
6.896e-11
1.329e-09
8.135e-11
1.3e-09
9.223e-11
1.267e-09
1.015e-10
1.232e-09
1.092e-10
1.195e-09
1.152e-10
1.157e-09
1.197e-10
1.117e-09
1.227e-10
1.077e-09
1.243e-10
1.037e-09
1.247e-10
9.967e-10
1.238e-10
9.572e-10
1.22e-10
9.185e-10
1.192e-10
8.808e-10
1.157e-10
8.445e-10
1.116e-10
8.096e-10
1.07e-10
7.762e-10
1.021e-10
7.445e-10
9.684e-11
7.145e-10
9.146e-11
6.862e-10
8.601e-11
6.596e-10
8.057e-11
6.348e-10
7.519e-11
6.117e-10
6.994e-11
5.902e-10
6.484e-11
5.703e-10
5.994e-11
5.519e-10
5.526e-11
5.35e-10
5.082e-11
5.194e-10
4.662e-11
5.051e-10
4.267e-11
4.921e-10
3.898e-11
4.801e-10
3.553e-11
4.692e-10
3.233e-11
4.593e-10
2.937e-11
4.503e-10
2.663e-11
4.421e-10
2.411e-11
4.348e-10
2.179e-11
4.281e-10
1.967e-11
4.22e-10
1.773e-11
4.166e-10
1.595e-11
4.117e-10
1.434e-11
4.072e-10
1.287e-11
4.033e-10
1.154e-11
3.997e-10
1.033e-11
3.965e-10
9.247e-12
3.937e-10
8.268e-12
3.911e-10
7.39e-12
3.888e-10
6.607e-12
3.867e-10
5.913e-12
3.849e-10
5.302e-12
3.832e-10
4.773e-12
3.817e-10
4.321e-12
3.804e-10
3.945e-12
3.791e-10
3.645e-12
3.78e-10
3.419e-12
3.769e-10
3.269e-12
3.759e-10
3.194e-12
3.749e-10
3.188e-12
3.74e-10
3.242e-12
3.731e-10
3.328e-12
3.397e-12
9.592e-10
1.079e-10
9.876e-10
2.477e-10
1.003e-09
3.188e-10
1e-09
3.41e-10
9.83e-10
3.339e-10
9.551e-10
3.114e-10
9.212e-10
2.822e-10
8.848e-10
2.514e-10
8.482e-10
2.215e-10
8.129e-10
1.94e-10
7.798e-10
1.691e-10
7.495e-10
1.47e-10
7.22e-10
1.275e-10
6.974e-10
1.102e-10
6.756e-10
9.489e-11
6.566e-10
8.131e-11
6.401e-10
6.919e-11
6.26e-10
5.83e-11
6.141e-10
4.845e-11
6.045e-10
3.945e-11
5.968e-10
3.117e-11
5.91e-10
2.346e-11
5.871e-10
1.621e-11
5.85e-10
9.321e-12
5.846e-10
2.699e-12
5.859e-10
-3.737e-12
5.888e-10
-1.006e-11
5.935e-10
-1.633e-11
5.998e-10
-2.262e-11
6.078e-10
-2.897e-11
6.176e-10
-3.542e-11
6.291e-10
-4.203e-11
6.425e-10
-4.881e-11
6.577e-10
-5.581e-11
6.749e-10
-6.302e-11
6.941e-10
-7.048e-11
7.153e-10
-7.816e-11
7.386e-10
-8.607e-11
7.641e-10
-9.417e-11
7.917e-10
-1.024e-10
8.215e-10
-1.108e-10
8.536e-10
-1.192e-10
8.878e-10
-1.275e-10
9.241e-10
-1.357e-10
9.625e-10
-1.435e-10
1.003e-09
-1.509e-10
1.045e-09
-1.576e-10
1.088e-09
-1.636e-10
1.133e-09
-1.684e-10
1.179e-09
-1.721e-10
1.225e-09
-1.742e-10
1.271e-09
-1.746e-10
1.317e-09
-1.731e-10
1.362e-09
-1.695e-10
1.405e-09
-1.636e-10
1.447e-09
-1.554e-10
1.485e-09
-1.446e-10
1.52e-09
-1.315e-10
1.551e-09
-1.16e-10
1.577e-09
-9.834e-11
1.598e-09
-7.878e-11
1.613e-09
-5.768e-11
1.622e-09
-3.546e-11
1.626e-09
-1.263e-11
1.623e-09
1.031e-11
1.615e-09
3.283e-11
1.6e-09
5.448e-11
1.581e-09
7.483e-11
1.556e-09
9.355e-11
1.527e-09
1.104e-10
1.494e-09
1.252e-10
1.458e-09
1.378e-10
1.419e-09
1.483e-10
1.377e-09
1.566e-10
1.334e-09
1.628e-10
1.29e-09
1.669e-10
1.245e-09
1.692e-10
1.2e-09
1.698e-10
1.155e-09
1.687e-10
1.111e-09
1.663e-10
1.067e-09
1.626e-10
1.025e-09
1.58e-10
9.843e-10
1.525e-10
9.45e-10
1.463e-10
9.074e-10
1.396e-10
8.717e-10
1.326e-10
8.378e-10
1.253e-10
8.059e-10
1.179e-10
7.759e-10
1.106e-10
7.479e-10
1.033e-10
7.217e-10
9.613e-11
6.973e-10
8.92e-11
6.747e-10
8.253e-11
6.538e-10
7.616e-11
6.345e-10
7.009e-11
6.168e-10
6.436e-11
6.005e-10
5.896e-11
5.856e-10
5.39e-11
5.719e-10
4.918e-11
5.595e-10
4.479e-11
5.481e-10
4.072e-11
5.378e-10
3.696e-11
5.284e-10
3.349e-11
5.199e-10
3.03e-11
5.122e-10
2.738e-11
5.052e-10
2.47e-11
4.989e-10
2.225e-11
4.932e-10
2.002e-11
4.881e-10
1.799e-11
4.835e-10
1.614e-11
4.794e-10
1.447e-11
4.757e-10
1.296e-11
4.723e-10
1.16e-11
4.693e-10
1.038e-11
4.667e-10
9.285e-12
4.643e-10
8.314e-12
4.621e-10
7.457e-12
4.602e-10
6.71e-12
4.584e-10
6.067e-12
4.569e-10
5.525e-12
4.554e-10
5.082e-12
4.541e-10
4.736e-12
4.529e-10
4.485e-12
4.518e-10
4.325e-12
4.507e-10
4.249e-12
4.497e-10
4.244e-12
4.487e-10
4.284e-12
4.326e-12
9.536e-10
9.18e-11
9.796e-10
2.218e-10
9.998e-10
2.986e-10
1.008e-09
3.33e-10
1.003e-09
3.384e-10
9.885e-10
3.262e-10
9.664e-10
3.042e-10
9.4e-10
2.778e-10
9.114e-10
2.501e-10
8.824e-10
2.23e-10
8.541e-10
1.975e-10
8.272e-10
1.739e-10
8.022e-10
1.524e-10
7.794e-10
1.33e-10
7.588e-10
1.154e-10
7.405e-10
9.957e-11
7.245e-10
8.518e-11
7.108e-10
7.207e-11
6.991e-10
6.007e-11
6.896e-10
4.901e-11
6.82e-10
3.873e-11
6.764e-10
2.908e-11
6.727e-10
1.996e-11
6.708e-10
1.123e-11
6.706e-10
2.809e-12
6.723e-10
-5.411e-12
6.758e-10
-1.351e-11
6.81e-10
-2.157e-11
6.88e-10
-2.965e-11
6.969e-10
-3.782e-11
7.076e-10
-4.614e-11
7.202e-10
-5.465e-11
7.348e-10
-6.34e-11
7.514e-10
-7.241e-11
7.701e-10
-8.17e-11
7.909e-10
-9.13e-11
8.139e-10
-1.012e-10
8.392e-10
-1.113e-10
8.668e-10
-1.218e-10
8.967e-10
-1.324e-10
9.29e-10
-1.431e-10
9.637e-10
-1.538e-10
1.001e-09
-1.645e-10
1.04e-09
-1.75e-10
1.081e-09
-1.85e-10
1.125e-09
-1.944e-10
1.17e-09
-2.03e-10
1.217e-09
-2.106e-10
1.266e-09
-2.168e-10
1.315e-09
-2.214e-10
1.365e-09
-2.241e-10
1.415e-09
-2.247e-10
1.465e-09
-2.227e-10
1.513e-09
-2.181e-10
1.56e-09
-2.105e-10
1.605e-09
-1.999e-10
1.646e-09
-1.862e-10
1.684e-09
-1.693e-10
1.718e-09
-1.494e-10
1.746e-09
-1.267e-10
1.769e-09
-1.015e-10
1.785e-09
-7.439e-11
1.796e-09
-4.58e-11
1.799e-09
-1.64e-11
1.797e-09
1.313e-11
1.787e-09
4.212e-11
1.772e-09
6.996e-11
1.751e-09
9.612e-11
1.724e-09
1.202e-10
1.693e-09
1.418e-10
1.657e-09
1.608e-10
1.618e-09
1.771e-10
1.575e-09
1.906e-10
1.531e-09
2.013e-10
1.484e-09
2.093e-10
1.436e-09
2.147e-10
1.388e-09
2.177e-10
1.339e-09
2.185e-10
1.291e-09
2.172e-10
1.243e-09
2.142e-10
1.196e-09
2.096e-10
1.15e-09
2.037e-10
1.106e-09
1.967e-10
1.063e-09
1.888e-10
1.023e-09
1.803e-10
9.839e-10
1.713e-10
9.472e-10
1.62e-10
9.126e-10
1.526e-10
8.8e-10
1.431e-10
8.495e-10
1.338e-10
8.21e-10
1.246e-10
7.945e-10
1.157e-10
7.698e-10
1.072e-10
7.47e-10
9.895e-11
7.26e-10
9.114e-11
7.066e-10
8.375e-11
6.888e-10
7.678e-11
6.724e-10
7.025e-11
6.575e-10
6.415e-11
6.438e-10
5.847e-11
6.313e-10
5.32e-11
6.199e-10
4.833e-11
6.096e-10
4.383e-11
6.002e-10
3.969e-11
5.917e-10
3.589e-11
5.84e-10
3.24e-11
5.77e-10
2.922e-11
5.707e-10
2.631e-11
5.651e-10
2.366e-11
5.6e-10
2.125e-11
5.554e-10
1.907e-11
5.512e-10
1.709e-11
5.475e-10
1.531e-11
5.442e-10
1.371e-11
5.412e-10
1.227e-11
5.385e-10
1.099e-11
5.361e-10
9.862e-12
5.34e-10
8.87e-12
5.32e-10
8.01e-12
5.303e-10
7.277e-12
5.287e-10
6.668e-12
5.272e-10
6.178e-12
5.259e-10
5.803e-12
5.247e-10
5.538e-12
5.236e-10
5.373e-12
5.225e-10
5.295e-12
5.215e-10
5.28e-12
5.291e-12
9.498e-10
7.95e-11
9.726e-10
1.99e-10
9.941e-10
2.771e-10
1.008e-09
3.191e-10
1.012e-09
3.342e-10
1.007e-09
3.31e-10
9.954e-10
3.163e-10
9.782e-10
2.95e-10
9.576e-10
2.707e-10
9.353e-10
2.453e-10
9.125e-10
2.203e-10
8.9e-10
1.964e-10
8.686e-10
1.739e-10
8.485e-10
1.531e-10
8.301e-10
1.339e-10
8.135e-10
1.162e-10
7.987e-10
9.989e-11
7.86e-10
8.486e-11
7.751e-10
7.093e-11
7.662e-10
5.795e-11
7.591e-10
4.577e-11
7.539e-10
3.427e-11
7.506e-10
2.33e-11
7.491e-10
1.276e-11
7.494e-10
2.525e-12
7.514e-10
-7.499e-12
7.553e-10
-1.741e-11
7.611e-10
-2.729e-11
7.686e-10
-3.723e-11
7.781e-10
-4.729e-11
7.895e-10
-5.754e-11
8.029e-10
-6.803e-11
8.183e-10
-7.882e-11
8.358e-10
-8.993e-11
8.555e-10
-1.014e-10
8.774e-10
-1.132e-10
9.017e-10
-1.254e-10
9.282e-10
-1.379e-10
9.572e-10
-1.507e-10
9.886e-10
-1.638e-10
1.023e-09
-1.77e-10
1.059e-09
-1.902e-10
1.098e-09
-2.033e-10
1.139e-09
-2.162e-10
1.182e-09
-2.285e-10
1.228e-09
-2.401e-10
1.276e-09
-2.507e-10
1.325e-09
-2.6e-10
1.376e-09
-2.676e-10
1.428e-09
-2.733e-10
1.48e-09
-2.766e-10
1.533e-09
-2.773e-10
1.585e-09
-2.75e-10
1.636e-09
-2.693e-10
1.686e-09
-2.6e-10
1.733e-09
-2.47e-10
1.777e-09
-2.301e-10
1.817e-09
-2.093e-10
1.852e-09
-1.848e-10
1.882e-09
-1.568e-10
1.907e-09
-1.257e-10
1.924e-09
-9.214e-11
1.935e-09
-5.675e-11
1.939e-09
-2.037e-11
1.936e-09
1.616e-11
1.926e-09
5.2e-11
1.91e-09
8.639e-11
1.887e-09
1.187e-10
1.859e-09
1.483e-10
1.826e-09
1.75e-10
1.788e-09
1.984e-10
1.747e-09
2.185e-10
1.703e-09
2.351e-10
1.656e-09
2.483e-10
1.607e-09
2.582e-10
1.557e-09
2.649e-10
1.506e-09
2.686e-10
1.454e-09
2.697e-10
1.403e-09
2.682e-10
1.353e-09
2.645e-10
1.304e-09
2.59e-10
1.256e-09
2.517e-10
1.209e-09
2.432e-10
1.164e-09
2.335e-10
1.122e-09
2.231e-10
1.081e-09
2.121e-10
1.042e-09
2.007e-10
1.006e-09
1.891e-10
9.715e-10
1.774e-10
9.394e-10
1.659e-10
9.093e-10
1.547e-10
8.814e-10
1.437e-10
8.554e-10
1.331e-10
8.313e-10
1.23e-10
8.09e-10
1.134e-10
7.885e-10
1.043e-10
7.697e-10
9.566e-11
7.523e-10
8.758e-11
7.365e-10
8.003e-11
7.219e-10
7.3e-11
7.087e-10
6.647e-11
6.966e-10
6.042e-11
6.856e-10
5.484e-11
6.755e-10
4.97e-11
6.665e-10
4.497e-11
6.582e-10
4.063e-11
6.508e-10
3.667e-11
6.44e-10
3.304e-11
6.38e-10
2.974e-11
6.325e-10
2.674e-11
6.275e-10
2.401e-11
6.231e-10
2.154e-11
6.191e-10
1.931e-11
6.155e-10
1.73e-11
6.123e-10
1.549e-11
6.094e-10
1.388e-11
6.068e-10
1.245e-11
6.045e-10
1.119e-11
6.024e-10
1.01e-11
6.005e-10
9.155e-12
5.988e-10
8.36e-12
5.973e-10
7.708e-12
5.959e-10
7.191e-12
5.946e-10
6.804e-12
5.935e-10
6.536e-12
5.924e-10
6.373e-12
5.914e-10
6.296e-12
6.275e-12
9.472e-10
6.98e-11
9.669e-10
1.793e-10
9.881e-10
2.559e-10
1.005e-09
3.022e-10
1.015e-09
3.242e-10
1.017e-09
3.284e-10
1.013e-09
3.203e-10
1.004e-09
3.044e-10
9.908e-10
2.839e-10
9.751e-10
2.61e-10
9.579e-10
2.374e-10
9.403e-10
2.14e-10
9.229e-10
1.914e-10
9.061e-10
1.698e-10
8.905e-10
1.496e-10
8.761e-10
1.306e-10
8.632e-10
1.128e-10
8.519e-10
9.616e-11
8.423e-10
8.057e-11
8.343e-10
6.589e-11
8.281e-10
5.2e-11
8.236e-10
3.876e-11
8.208e-10
2.606e-11
8.198e-10
1.377e-11
8.206e-10
1.785e-12
8.231e-10
-1.001e-11
8.274e-10
-2.171e-11
8.335e-10
-3.341e-11
8.414e-10
-4.52e-11
8.513e-10
-5.715e-11
8.631e-10
-6.935e-11
8.769e-10
-8.184e-11
8.928e-10
-9.469e-11
9.108e-10
-1.079e-10
9.31e-10
-1.216e-10
9.535e-10
-1.357e-10
9.783e-10
-1.502e-10
1.005e-09
-1.651e-10
1.035e-09
-1.804e-10
1.067e-09
-1.959e-10
1.102e-09
-2.116e-10
1.139e-09
-2.274e-10
1.179e-09
-2.43e-10
1.221e-09
-2.583e-10
1.265e-09
-2.73e-10
1.312e-09
-2.868e-10
1.361e-09
-2.995e-10
1.412e-09
-3.106e-10
1.464e-09
-3.197e-10
1.517e-09
-3.266e-10
1.571e-09
-3.306e-10
1.625e-09
-3.315e-10
1.679e-09
-3.287e-10
1.732e-09
-3.221e-10
1.783e-09
-3.111e-10
1.831e-09
-2.956e-10
1.877e-09
-2.755e-10
1.918e-09
-2.508e-10
1.955e-09
-2.215e-10
1.986e-09
-1.88e-10
2.011e-09
-1.508e-10
2.03e-09
-1.106e-10
2.041e-09
-6.811e-11
2.045e-09
-2.443e-11
2.042e-09
1.94e-11
2.032e-09
6.236e-11
2.015e-09
1.035e-10
1.991e-09
1.421e-10
1.962e-09
1.775e-10
1.928e-09
2.093e-10
1.889e-09
2.372e-10
1.846e-09
2.611e-10
1.801e-09
2.808e-10
1.752e-09
2.966e-10
1.702e-09
3.084e-10
1.65e-09
3.164e-10
1.598e-09
3.209e-10
1.546e-09
3.222e-10
1.493e-09
3.205e-10
1.442e-09
3.162e-10
1.391e-09
3.096e-10
1.342e-09
3.01e-10
1.294e-09
2.908e-10
1.248e-09
2.794e-10
1.204e-09
2.67e-10
1.163e-09
2.538e-10
1.123e-09
2.403e-10
1.086e-09
2.265e-10
1.05e-09
2.126e-10
1.017e-09
1.989e-10
9.866e-10
1.855e-10
9.578e-10
1.724e-10
9.311e-10
1.598e-10
9.064e-10
1.478e-10
8.835e-10
1.363e-10
8.624e-10
1.254e-10
8.429e-10
1.151e-10
8.251e-10
1.054e-10
8.087e-10
9.641e-11
7.937e-10
8.8e-11
7.8e-10
8.018e-11
7.675e-10
7.293e-11
7.561e-10
6.624e-11
7.457e-10
6.006e-11
7.363e-10
5.439e-11
7.278e-10
4.918e-11
7.2e-10
4.441e-11
7.13e-10
4.005e-11
7.067e-10
3.607e-11
7.01e-10
3.245e-11
6.958e-10
2.916e-11
6.912e-10
2.618e-11
6.87e-10
2.348e-11
6.833e-10
2.105e-11
6.799e-10
1.886e-11
6.769e-10
1.69e-11
6.742e-10
1.516e-11
6.717e-10
1.362e-11
6.695e-10
1.228e-11
6.676e-10
1.111e-11
6.658e-10
1.012e-11
6.643e-10
9.287e-12
6.628e-10
8.616e-12
6.615e-10
8.094e-12
6.604e-10
7.713e-12
6.593e-10
7.458e-12
6.583e-10
7.313e-12
7.259e-12
9.454e-10
6.193e-11
9.626e-10
1.621e-10
9.827e-10
2.358e-10
1.001e-09
2.841e-10
1.014e-09
3.108e-10
1.022e-09
3.207e-10
1.024e-09
3.183e-10
1.021e-09
3.073e-10
1.014e-09
2.907e-10
1.005e-09
2.708e-10
9.929e-10
2.491e-10
9.801e-10
2.268e-10
9.668e-10
2.046e-10
9.537e-10
1.83e-10
9.411e-10
1.622e-10
9.293e-10
1.423e-10
9.186e-10
1.235e-10
9.091e-10
1.056e-10
9.01e-10
8.87e-11
8.943e-10
7.258e-11
8.891e-10
5.718e-11
8.855e-10
4.239e-11
8.835e-10
2.81e-11
8.83e-10
1.42e-11
8.843e-10
5.588e-13
8.872e-10
-1.292e-11
8.918e-10
-2.633e-11
8.982e-10
-3.979e-11
9.064e-10
-5.338e-11
9.164e-10
-6.719e-11
9.283e-10
-8.129e-11
9.422e-10
-9.575e-11
9.582e-10
-1.106e-10
9.762e-10
-1.26e-10
9.964e-10
-1.418e-10
1.019e-09
-1.581e-10
1.044e-09
-1.75e-10
1.071e-09
-1.923e-10
1.1e-09
-2.1e-10
1.133e-09
-2.28e-10
1.167e-09
-2.463e-10
1.204e-09
-2.646e-10
1.244e-09
-2.827e-10
1.286e-09
-3.005e-10
1.331e-09
-3.175e-10
1.378e-09
-3.336e-10
1.426e-09
-3.484e-10
1.477e-09
-3.613e-10
1.529e-09
-3.72e-10
1.583e-09
-3.801e-10
1.637e-09
-3.849e-10
1.692e-09
-3.86e-10
1.746e-09
-3.83e-10
1.799e-09
-3.754e-10
1.851e-09
-3.628e-10
1.9e-09
-3.449e-10
1.946e-09
-3.216e-10
1.989e-09
-2.929e-10
2.026e-09
-2.589e-10
2.058e-09
-2.199e-10
2.083e-09
-1.764e-10
2.102e-09
-1.293e-10
2.114e-09
-7.961e-11
2.118e-09
-2.845e-11
2.114e-09
2.285e-11
2.103e-09
7.307e-11
2.086e-09
1.211e-10
2.062e-09
1.66e-10
2.032e-09
2.071e-10
1.998e-09
2.44e-10
1.958e-09
2.764e-10
1.915e-09
3.04e-10
1.869e-09
3.269e-10
1.821e-09
3.452e-10
1.77e-09
3.589e-10
1.718e-09
3.682e-10
1.666e-09
3.735e-10
1.613e-09
3.75e-10
1.561e-09
3.73e-10
1.509e-09
3.68e-10
1.458e-09
3.604e-10
1.409e-09
3.504e-10
1.361e-09
3.386e-10
1.315e-09
3.254e-10
1.271e-09
3.109e-10
1.229e-09
2.957e-10
1.189e-09
2.8e-10
1.152e-09
2.64e-10
1.117e-09
2.479e-10
1.083e-09
2.32e-10
1.053e-09
2.164e-10
1.024e-09
2.012e-10
9.97e-10
1.866e-10
9.722e-10
1.726e-10
9.492e-10
1.592e-10
9.28e-10
1.466e-10
9.085e-10
1.346e-10
8.906e-10
1.234e-10
8.741e-10
1.129e-10
8.59e-10
1.031e-10
8.452e-10
9.398e-11
8.326e-10
8.553e-11
8.211e-10
7.773e-11
8.107e-10
7.053e-11
8.011e-10
6.39e-11
7.925e-10
5.782e-11
7.847e-10
5.224e-11
7.776e-10
4.715e-11
7.712e-10
4.249e-11
7.654e-10
3.825e-11
7.601e-10
3.439e-11
7.554e-10
3.089e-11
7.512e-10
2.772e-11
7.474e-10
2.486e-11
7.439e-10
2.229e-11
7.409e-10
1.998e-11
7.381e-10
1.792e-11
7.356e-10
1.609e-11
7.334e-10
1.449e-11
7.314e-10
1.309e-11
7.297e-10
1.189e-11
7.281e-10
1.088e-11
7.266e-10
1.004e-11
7.254e-10
9.38e-12
7.242e-10
8.879e-12
7.231e-10
8.527e-12
7.221e-10
8.313e-12
8.223e-12
9.441e-10
5.537e-11
9.592e-10
1.47e-10
9.779e-10
2.17e-10
9.964e-10
2.656e-10
1.012e-09
2.953e-10
1.023e-09
3.094e-10
1.03e-09
3.116e-10
1.032e-09
3.05e-10
1.031e-09
2.922e-10
1.026e-09
2.753e-10
1.019e-09
2.558e-10
1.011e-09
2.35e-10
1.002e-09
2.137e-10
9.925e-10
1.924e-10
9.831e-10
1.716e-10
9.741e-10
1.513e-10
9.657e-10
1.318e-10
9.583e-10
1.131e-10
9.519e-10
9.512e-11
9.466e-10
7.784e-11
9.426e-10
6.118e-11
9.399e-10
4.505e-11
9.387e-10
2.936e-11
9.389e-10
1.4e-11
9.406e-10
-1.145e-12
9.438e-10
-1.617e-11
9.487e-10
-3.119e-11
9.552e-10
-4.63e-11
9.634e-10
-6.159e-11
9.734e-10
-7.716e-11
9.852e-10
-9.308e-11
9.989e-10
-1.094e-10
1.015e-09
-1.263e-10
1.032e-09
-1.436e-10
1.052e-09
-1.616e-10
1.074e-09
-1.801e-10
1.098e-09
-1.992e-10
1.125e-09
-2.188e-10
1.154e-09
-2.389e-10
1.185e-09
-2.594e-10
1.219e-09
-2.801e-10
1.255e-09
-3.008e-10
1.294e-09
-3.215e-10
1.335e-09
-3.417e-10
1.379e-09
-3.611e-10
1.424e-09
-3.795e-10
1.472e-09
-3.963e-10
1.522e-09
-4.111e-10
1.573e-09
-4.234e-10
1.626e-09
-4.327e-10
1.68e-09
-4.383e-10
1.733e-09
-4.398e-10
1.787e-09
-4.366e-10
1.84e-09
-4.281e-10
1.891e-09
-4.139e-10
1.94e-09
-3.938e-10
1.985e-09
-3.674e-10
2.027e-09
-3.348e-10
2.065e-09
-2.961e-10
2.096e-09
-2.516e-10
2.122e-09
-2.019e-10
2.14e-09
-1.48e-10
2.152e-09
-9.097e-11
2.156e-09
-3.228e-11
2.152e-09
2.653e-11
2.141e-09
8.399e-11
2.123e-09
1.388e-10
2.099e-09
1.899e-10
2.07e-09
2.366e-10
2.036e-09
2.784e-10
1.997e-09
3.151e-10
1.955e-09
3.464e-10
1.909e-09
3.723e-10
1.861e-09
3.93e-10
1.812e-09
4.085e-10
1.761e-09
4.191e-10
1.709e-09
4.251e-10
1.657e-09
4.268e-10
1.606e-09
4.246e-10
1.555e-09
4.189e-10
1.505e-09
4.102e-10
1.456e-09
3.99e-10
1.409e-09
3.855e-10
1.364e-09
3.704e-10
1.321e-09
3.541e-10
1.28e-09
3.367e-10
1.241e-09
3.188e-10
1.205e-09
3.007e-10
1.17e-09
2.824e-10
1.138e-09
2.644e-10
1.107e-09
2.466e-10
1.079e-09
2.294e-10
1.053e-09
2.128e-10
1.029e-09
1.969e-10
1.006e-09
1.817e-10
9.855e-10
1.673e-10
9.664e-10
1.537e-10
9.488e-10
1.41e-10
9.327e-10
1.29e-10
9.178e-10
1.179e-10
9.043e-10
1.075e-10
8.919e-10
9.792e-11
8.806e-10
8.903e-11
8.703e-10
8.082e-11
8.609e-10
7.327e-11
8.524e-10
6.633e-11
8.447e-10
5.997e-11
8.377e-10
5.415e-11
8.314e-10
4.883e-11
8.256e-10
4.398e-11
8.204e-10
3.957e-11
8.158e-10
3.556e-11
8.116e-10
3.193e-11
8.078e-10
2.865e-11
8.044e-10
2.569e-11
8.013e-10
2.303e-11
7.986e-10
2.066e-11
7.962e-10
1.854e-11
7.94e-10
1.668e-11
7.92e-10
1.505e-11
7.903e-10
1.364e-11
7.887e-10
1.244e-11
7.873e-10
1.144e-11
7.861e-10
1.063e-11
7.849e-10
1.001e-11
7.839e-10
9.559e-12
7.829e-10
9.275e-12
9.15e-12
9.431e-10
4.978e-11
9.565e-10
1.336e-10
9.739e-10
1.996e-10
9.921e-10
2.474e-10
1.009e-09
2.786e-10
1.022e-09
2.958e-10
1.032e-09
3.017e-10
1.039e-09
2.987e-10
1.042e-09
2.893e-10
1.042e-09
2.753e-10
1.039e-09
2.581e-10
1.035e-09
2.391e-10
1.03e-09
2.19e-10
1.024e-09
1.984e-10
1.018e-09
1.779e-10
1.011e-09
1.576e-10
1.005e-09
1.378e-10
1e-09
1.185e-10
9.954e-10
9.977e-11
9.916e-10
8.16e-11
9.889e-10
6.393e-11
9.872e-10
4.67e-11
9.868e-10
2.981e-11
9.876e-10
1.319e-11
9.897e-10
-3.286e-12
9.933e-10
-1.97e-11
9.982e-10
-3.617e-11
1.005e-09
-5.278e-11
1.013e-09
-6.964e-11
1.022e-09
-8.684e-11
1.034e-09
-1.045e-10
1.047e-09
-1.226e-10
1.062e-09
-1.412e-10
1.079e-09
-1.605e-10
1.098e-09
-1.804e-10
1.119e-09
-2.01e-10
1.142e-09
-2.222e-10
1.167e-09
-2.441e-10
1.194e-09
-2.664e-10
1.224e-09
-2.892e-10
1.257e-09
-3.123e-10
1.291e-09
-3.354e-10
1.328e-09
-3.585e-10
1.368e-09
-3.81e-10
1.409e-09
-4.028e-10
1.453e-09
-4.234e-10
1.499e-09
-4.422e-10
1.547e-09
-4.589e-10
1.596e-09
-4.728e-10
1.647e-09
-4.833e-10
1.698e-09
-4.898e-10
1.75e-09
-4.916e-10
1.802e-09
-4.882e-10
1.853e-09
-4.789e-10
1.902e-09
-4.633e-10
1.949e-09
-4.41e-10