/*--------------------------------*- C++ -*----------------------------------*\
  =========                 |
  \\      /  F ield         | OpenFOAM: The Open Source CFD Toolbox
   \\    /   O peration     | Website:  https://openfoam.org
    \\  /    A nd           | Version:  7
     \\/     M anipulation  |
\*---------------------------------------------------------------------------*/
FoamFile
{
    version     2.0;
    format      ascii;
    class       volVectorField;
    location    "839.999473410766313";
    object      U;
}
// * * * * * * * * * * * * * * * * * * * * * * * * * * * * * * * * * * * * * //

dimensions      [0 1 -1 0 0 0 0];

internalField   nonuniform List<vector> 
4096
(
(0.001039 0.0001611 0)
(0.0007463 0.0001314 0)
(0.0005302 8.474e-05 0)
(0.0003919 5.358e-05 0)
(0.0003036 3.466e-05 0)
(0.0002457 2.327e-05 0)
(0.0002061 1.631e-05 0)
(0.0001779 1.192e-05 0)
(0.0001569 9.032e-06 0)
(0.0001409 7.04e-06 0)
(0.0001282 5.609e-06 0)
(0.0001181 4.542e-06 0)
(0.0001098 3.722e-06 0)
(0.000103 3.075e-06 0)
(9.736e-05 2.554e-06 0)
(9.269e-05 2.124e-06 0)
(8.88e-05 1.764e-06 0)
(8.558e-05 1.458e-06 0)
(8.292e-05 1.193e-06 0)
(8.077e-05 9.607e-07 0)
(7.906e-05 7.534e-07 0)
(7.774e-05 5.659e-07 0)
(7.678e-05 3.936e-07 0)
(7.615e-05 2.328e-07 0)
(7.584e-05 8.056e-08 0)
(7.582e-05 -6.586e-08 0)
(7.61e-05 -2.087e-07 0)
(7.666e-05 -3.498e-07 0)
(7.75e-05 -4.911e-07 0)
(7.862e-05 -6.339e-07 0)
(8.004e-05 -7.797e-07 0)
(8.175e-05 -9.296e-07 0)
(8.376e-05 -1.085e-06 0)
(8.609e-05 -1.245e-06 0)
(8.875e-05 -1.413e-06 0)
(9.175e-05 -1.587e-06 0)
(9.51e-05 -1.769e-06 0)
(9.883e-05 -1.958e-06 0)
(0.0001029 -2.153e-06 0)
(0.0001074 -2.354e-06 0)
(0.0001124 -2.56e-06 0)
(0.0001177 -2.769e-06 0)
(0.0001234 -2.979e-06 0)
(0.0001296 -3.187e-06 0)
(0.0001362 -3.39e-06 0)
(0.0001432 -3.584e-06 0)
(0.0001505 -3.764e-06 0)
(0.0001582 -3.926e-06 0)
(0.0001662 -4.064e-06 0)
(0.0001744 -4.172e-06 0)
(0.0001828 -4.244e-06 0)
(0.0001914 -4.273e-06 0)
(0.0001999 -4.254e-06 0)
(0.0002083 -4.181e-06 0)
(0.0002165 -4.049e-06 0)
(0.0002244 -3.855e-06 0)
(0.0002319 -3.597e-06 0)
(0.0002388 -3.275e-06 0)
(0.0002449 -2.891e-06 0)
(0.0002503 -2.45e-06 0)
(0.0002547 -1.957e-06 0)
(0.0002581 -1.425e-06 0)
(0.0002604 -8.624e-07 0)
(0.0002615 -2.843e-07 0)
(0.0002615 2.958e-07 0)
(0.0002603 8.642e-07 0)
(0.0002581 1.408e-06 0)
(0.0002547 1.916e-06 0)
(0.0002504 2.38e-06 0)
(0.0002453 2.793e-06 0)
(0.0002393 3.151e-06 0)
(0.0002327 3.452e-06 0)
(0.0002256 3.695e-06 0)
(0.000218 3.882e-06 0)
(0.0002101 4.014e-06 0)
(0.000202 4.094e-06 0)
(0.0001938 4.127e-06 0)
(0.0001855 4.117e-06 0)
(0.0001773 4.069e-06 0)
(0.0001693 3.987e-06 0)
(0.0001614 3.877e-06 0)
(0.0001538 3.743e-06 0)
(0.0001465 3.591e-06 0)
(0.0001394 3.425e-06 0)
(0.0001328 3.248e-06 0)
(0.0001265 3.066e-06 0)
(0.0001205 2.88e-06 0)
(0.0001149 2.693e-06 0)
(0.0001097 2.509e-06 0)
(0.0001049 2.329e-06 0)
(0.0001004 2.155e-06 0)
(9.627e-05 1.987e-06 0)
(9.246e-05 1.827e-06 0)
(8.896e-05 1.675e-06 0)
(8.575e-05 1.532e-06 0)
(8.282e-05 1.398e-06 0)
(8.015e-05 1.273e-06 0)
(7.772e-05 1.157e-06 0)
(7.551e-05 1.049e-06 0)
(7.351e-05 9.491e-07 0)
(7.171e-05 8.574e-07 0)
(7.008e-05 7.733e-07 0)
(6.861e-05 6.962e-07 0)
(6.729e-05 6.258e-07 0)
(6.61e-05 5.616e-07 0)
(6.503e-05 5.033e-07 0)
(6.408e-05 4.503e-07 0)
(6.323e-05 4.023e-07 0)
(6.247e-05 3.589e-07 0)
(6.179e-05 3.197e-07 0)
(6.118e-05 2.845e-07 0)
(6.065e-05 2.528e-07 0)
(6.017e-05 2.245e-07 0)
(5.974e-05 1.993e-07 0)
(5.937e-05 1.769e-07 0)
(5.903e-05 1.573e-07 0)
(5.874e-05 1.403e-07 0)
(5.847e-05 1.259e-07 0)
(5.823e-05 1.14e-07 0)
(5.801e-05 1.048e-07 0)
(5.781e-05 9.851e-08 0)
(5.761e-05 9.556e-08 0)
(5.742e-05 9.68e-08 0)
(5.722e-05 1.038e-07 0)
(5.7e-05 1.196e-07 0)
(5.673e-05 1.493e-07 0)
(5.638e-05 1.983e-07 0)
(5.592e-05 2.577e-07 0)
(0.001209 0.0003128 0)
(0.001154 0.0003282 0)
(0.00101 0.000248 0)
(0.0008613 0.000177 0)
(0.0007345 0.0001262 0)
(0.0006328 9.139e-05 0)
(0.0005528 6.782e-05 0)
(0.0004898 5.165e-05 0)
(0.0004397 4.028e-05 0)
(0.0003996 3.204e-05 0)
(0.0003669 2.59e-05 0)
(0.0003401 2.12e-05 0)
(0.0003179 1.752e-05 0)
(0.0002994 1.456e-05 0)
(0.000284 1.215e-05 0)
(0.000271 1.015e-05 0)
(0.0002602 8.454e-06 0)
(0.0002512 7.005e-06 0)
(0.0002438 5.746e-06 0)
(0.0002377 4.635e-06 0)
(0.0002328 3.642e-06 0)
(0.0002291 2.741e-06 0)
(0.0002264 1.911e-06 0)
(0.0002246 1.135e-06 0)
(0.0002237 3.999e-07 0)
(0.0002236 -3.074e-07 0)
(0.0002243 -9.972e-07 0)
(0.0002259 -1.679e-06 0)
(0.0002283 -2.36e-06 0)
(0.0002314 -3.047e-06 0)
(0.0002354 -3.748e-06 0)
(0.0002402 -4.467e-06 0)
(0.0002458 -5.209e-06 0)
(0.0002524 -5.978e-06 0)
(0.0002598 -6.775e-06 0)
(0.0002682 -7.604e-06 0)
(0.0002775 -8.465e-06 0)
(0.0002879 -9.357e-06 0)
(0.0002993 -1.028e-05 0)
(0.0003118 -1.122e-05 0)
(0.0003254 -1.219e-05 0)
(0.0003401 -1.316e-05 0)
(0.0003559 -1.414e-05 0)
(0.0003728 -1.511e-05 0)
(0.0003908 -1.604e-05 0)
(0.0004098 -1.693e-05 0)
(0.0004298 -1.776e-05 0)
(0.0004507 -1.849e-05 0)
(0.0004723 -1.911e-05 0)
(0.0004946 -1.959e-05 0)
(0.0005172 -1.99e-05 0)
(0.0005401 -2.001e-05 0)
(0.0005629 -1.989e-05 0)
(0.0005855 -1.952e-05 0)
(0.0006074 -1.888e-05 0)
(0.0006285 -1.796e-05 0)
(0.0006483 -1.674e-05 0)
(0.0006665 -1.523e-05 0)
(0.0006828 -1.344e-05 0)
(0.000697 -1.138e-05 0)
(0.0007086 -9.1e-06 0)
(0.0007176 -6.632e-06 0)
(0.0007237 -4.031e-06 0)
(0.0007268 -1.357e-06 0)
(0.0007268 1.328e-06 0)
(0.0007239 3.96e-06 0)
(0.000718 6.484e-06 0)
(0.0007093 8.848e-06 0)
(0.000698 1.101e-05 0)
(0.0006844 1.295e-05 0)
(0.0006687 1.463e-05 0)
(0.0006512 1.605e-05 0)
(0.0006323 1.721e-05 0)
(0.0006121 1.811e-05 0)
(0.000591 1.875e-05 0)
(0.0005693 1.916e-05 0)
(0.0005473 1.935e-05 0)
(0.0005251 1.933e-05 0)
(0.000503 1.913e-05 0)
(0.0004812 1.878e-05 0)
(0.0004598 1.829e-05 0)
(0.0004391 1.769e-05 0)
(0.0004191 1.7e-05 0)
(0.0003999 1.624e-05 0)
(0.0003816 1.543e-05 0)
(0.0003642 1.458e-05 0)
(0.0003478 1.372e-05 0)
(0.0003323 1.285e-05 0)
(0.0003179 1.199e-05 0)
(0.0003044 1.115e-05 0)
(0.0002919 1.033e-05 0)
(0.0002803 9.543e-06 0)
(0.0002696 8.788e-06 0)
(0.0002598 8.071e-06 0)
(0.0002507 7.393e-06 0)
(0.0002424 6.756e-06 0)
(0.0002349 6.16e-06 0)
(0.000228 5.605e-06 0)
(0.0002217 5.09e-06 0)
(0.000216 4.614e-06 0)
(0.0002108 4.174e-06 0)
(0.0002061 3.77e-06 0)
(0.0002019 3.4e-06 0)
(0.0001981 3.061e-06 0)
(0.0001946 2.751e-06 0)
(0.0001915 2.469e-06 0)
(0.0001888 2.213e-06 0)
(0.0001863 1.98e-06 0)
(0.000184 1.77e-06 0)
(0.000182 1.58e-06 0)
(0.0001803 1.408e-06 0)
(0.0001787 1.254e-06 0)
(0.0001773 1.116e-06 0)
(0.000176 9.927e-07 0)
(0.0001749 8.835e-07 0)
(0.0001739 7.874e-07 0)
(0.000173 7.039e-07 0)
(0.0001722 6.327e-07 0)
(0.0001715 5.738e-07 0)
(0.0001708 5.275e-07 0)
(0.0001702 4.945e-07 0)
(0.0001696 4.764e-07 0)
(0.000169 4.758e-07 0)
(0.0001684 4.969e-07 0)
(0.0001679 5.466e-07 0)
(0.0001672 6.343e-07 0)
(0.0001665 7.649e-07 0)
(0.0001658 9.014e-07 0)
(0.001226 0.0002775 0)
(0.001243 0.0004027 0)
(0.001194 0.0003664 0)
(0.001102 0.0002982 0)
(0.0009999 0.0002344 0)
(0.0009019 0.0001829 0)
(0.0008148 0.0001435 0)
(0.0007399 0.0001139 0)
(0.0006764 9.151e-05 0)
(0.000623 7.443e-05 0)
(0.000578 6.116e-05 0)
(0.0005401 5.069e-05 0)
(0.000508 4.228e-05 0)
(0.0004809 3.541e-05 0)
(0.0004579 2.972e-05 0)
(0.0004385 2.494e-05 0)
(0.0004221 2.086e-05 0)
(0.0004084 1.734e-05 0)
(0.000397 1.426e-05 0)
(0.0003877 1.153e-05 0)
(0.0003802 9.071e-06 0)
(0.0003744 6.835e-06 0)
(0.0003702 4.77e-06 0)
(0.0003674 2.836e-06 0)
(0.000366 9.984e-07 0)
(0.000366 -7.709e-07 0)
(0.0003672 -2.497e-06 0)
(0.0003697 -4.203e-06 0)
(0.0003734 -5.907e-06 0)
(0.0003783 -7.626e-06 0)
(0.0003846 -9.375e-06 0)
(0.0003921 -1.117e-05 0)
(0.000401 -1.301e-05 0)
(0.0004112 -1.492e-05 0)
(0.0004228 -1.69e-05 0)
(0.0004359 -1.895e-05 0)
(0.0004505 -2.108e-05 0)
(0.0004667 -2.328e-05 0)
(0.0004845 -2.554e-05 0)
(0.0005039 -2.786e-05 0)
(0.000525 -3.022e-05 0)
(0.0005477 -3.26e-05 0)
(0.0005722 -3.498e-05 0)
(0.0005983 -3.732e-05 0)
(0.0006261 -3.959e-05 0)
(0.0006554 -4.173e-05 0)
(0.0006861 -4.371e-05 0)
(0.0007182 -4.546e-05 0)
(0.0007514 -4.693e-05 0)
(0.0007854 -4.805e-05 0)
(0.00082 -4.874e-05 0)
(0.0008549 -4.895e-05 0)
(0.0008898 -4.861e-05 0)
(0.0009241 -4.767e-05 0)
(0.0009575 -4.607e-05 0)
(0.0009895 -4.378e-05 0)
(0.00102 -4.079e-05 0)
(0.001047 -3.709e-05 0)
(0.001072 -3.271e-05 0)
(0.001093 -2.771e-05 0)
(0.001111 -2.216e-05 0)
(0.001125 -1.617e-05 0)
(0.001134 -9.862e-06 0)
(0.001139 -3.378e-06 0)
(0.001139 3.132e-06 0)
(0.001135 9.523e-06 0)
(0.001126 1.566e-05 0)
(0.001113 2.141e-05 0)
(0.001096 2.669e-05 0)
(0.001075 3.142e-05 0)
(0.001051 3.556e-05 0)
(0.001025 3.907e-05 0)
(0.0009963 4.194e-05 0)
(0.0009656 4.418e-05 0)
(0.0009336 4.581e-05 0)
(0.0009005 4.686e-05 0)
(0.0008668 4.738e-05 0)
(0.0008329 4.74e-05 0)
(0.0007991 4.698e-05 0)
(0.0007657 4.617e-05 0)
(0.0007329 4.503e-05 0)
(0.000701 4.361e-05 0)
(0.0006701 4.196e-05 0)
(0.0006404 4.014e-05 0)
(0.0006121 3.818e-05 0)
(0.0005852 3.614e-05 0)
(0.0005597 3.405e-05 0)
(0.0005357 3.194e-05 0)
(0.0005132 2.985e-05 0)
(0.0004922 2.779e-05 0)
(0.0004726 2.578e-05 0)
(0.0004544 2.384e-05 0)
(0.0004377 2.198e-05 0)
(0.0004222 2.022e-05 0)
(0.0004079 1.854e-05 0)
(0.0003948 1.697e-05 0)
(0.0003829 1.549e-05 0)
(0.0003719 1.411e-05 0)
(0.000362 1.283e-05 0)
(0.0003529 1.165e-05 0)
(0.0003447 1.055e-05 0)
(0.0003372 9.542e-06 0)
(0.0003305 8.616e-06 0)
(0.0003243 7.767e-06 0)
(0.0003188 6.992e-06 0)
(0.0003139 6.284e-06 0)
(0.0003094 5.64e-06 0)
(0.0003054 5.055e-06 0)
(0.0003018 4.524e-06 0)
(0.0002986 4.044e-06 0)
(0.0002957 3.611e-06 0)
(0.0002931 3.221e-06 0)
(0.0002908 2.871e-06 0)
(0.0002887 2.559e-06 0)
(0.0002869 2.281e-06 0)
(0.0002852 2.037e-06 0)
(0.0002838 1.824e-06 0)
(0.0002824 1.641e-06 0)
(0.0002813 1.489e-06 0)
(0.0002802 1.367e-06 0)
(0.0002792 1.277e-06 0)
(0.0002782 1.221e-06 0)
(0.0002773 1.202e-06 0)
(0.0002764 1.227e-06 0)
(0.0002755 1.299e-06 0)
(0.0002746 1.426e-06 0)
(0.0002737 1.595e-06 0)
(0.0002728 1.743e-06 0)
(0.001224 0.0002275 0)
(0.00126 0.0004003 0)
(0.001258 0.0004192 0)
(0.001216 0.0003787 0)
(0.00115 0.0003227 0)
(0.001074 0.0002682 0)
(0.0009981 0.0002211 0)
(0.0009271 0.0001822 0)
(0.0008629 0.0001508 0)
(0.000806 0.0001254 0)
(0.0007563 0.0001049 0)
(0.0007131 8.812e-05 0)
(0.0006757 7.429e-05 0)
(0.0006435 6.276e-05 0)
(0.0006158 5.304e-05 0)
(0.000592 4.476e-05 0)
(0.0005718 3.761e-05 0)
(0.0005548 3.138e-05 0)
(0.0005405 2.587e-05 0)
(0.0005288 2.096e-05 0)
(0.0005194 1.652e-05 0)
(0.0005121 1.246e-05 0)
(0.0005068 8.686e-06 0)
(0.0005033 5.143e-06 0)
(0.0005016 1.768e-06 0)
(0.0005016 -1.488e-06 0)
(0.0005033 -4.669e-06 0)
(0.0005066 -7.814e-06 0)
(0.0005116 -1.096e-05 0)
(0.0005182 -1.413e-05 0)
(0.0005264 -1.735e-05 0)
(0.0005363 -2.065e-05 0)
(0.000548 -2.404e-05 0)
(0.0005614 -2.755e-05 0)
(0.0005767 -3.118e-05 0)
(0.0005938 -3.493e-05 0)
(0.000613 -3.882e-05 0)
(0.0006341 -4.283e-05 0)
(0.0006573 -4.695e-05 0)
(0.0006826 -5.116e-05 0)
(0.00071 -5.544e-05 0)
(0.0007396 -5.975e-05 0)
(0.0007713 -6.404e-05 0)
(0.0008052 -6.826e-05 0)
(0.0008412 -7.233e-05 0)
(0.000879 -7.618e-05 0)
(0.0009188 -7.972e-05 0)
(0.0009601 -8.284e-05 0)
(0.001003 -8.543e-05 0)
(0.001047 -8.738e-05 0)
(0.001091 -8.857e-05 0)
(0.001136 -8.888e-05 0)
(0.001181 -8.82e-05 0)
(0.001225 -8.643e-05 0)
(0.001267 -8.348e-05 0)
(0.001308 -7.929e-05 0)
(0.001347 -7.384e-05 0)
(0.001382 -6.712e-05 0)
(0.001414 -5.92e-05 0)
(0.001441 -5.015e-05 0)
(0.001464 -4.013e-05 0)
(0.001482 -2.932e-05 0)
(0.001494 -1.793e-05 0)
(0.0015 -6.233e-06 0)
(0.0015 5.518e-06 0)
(0.001495 1.706e-05 0)
(0.001483 2.814e-05 0)
(0.001467 3.855e-05 0)
(0.001445 4.812e-05 0)
(0.001419 5.671e-05 0)
(0.001389 6.423e-05 0)
(0.001355 7.063e-05 0)
(0.001318 7.59e-05 0)
(0.001279 8.003e-05 0)
(0.001238 8.306e-05 0)
(0.001196 8.506e-05 0)
(0.001152 8.608e-05 0)
(0.001109 8.62e-05 0)
(0.001065 8.553e-05 0)
(0.001022 8.415e-05 0)
(0.0009799 8.215e-05 0)
(0.0009386 7.965e-05 0)
(0.0008987 7.672e-05 0)
(0.0008603 7.347e-05 0)
(0.0008235 6.997e-05 0)
(0.0007885 6.63e-05 0)
(0.0007553 6.254e-05 0)
(0.0007241 5.873e-05 0)
(0.0006947 5.494e-05 0)
(0.0006672 5.12e-05 0)
(0.0006416 4.756e-05 0)
(0.0006177 4.403e-05 0)
(0.0005957 4.065e-05 0)
(0.0005753 3.742e-05 0)
(0.0005565 3.436e-05 0)
(0.0005392 3.148e-05 0)
(0.0005234 2.877e-05 0)
(0.0005089 2.624e-05 0)
(0.0004957 2.389e-05 0)
(0.0004837 2.171e-05 0)
(0.0004727 1.969e-05 0)
(0.0004628 1.783e-05 0)
(0.0004537 1.611e-05 0)
(0.0004456 1.454e-05 0)
(0.0004382 1.311e-05 0)
(0.0004315 1.18e-05 0)
(0.0004255 1.06e-05 0)
(0.0004201 9.512e-06 0)
(0.0004153 8.524e-06 0)
(0.0004109 7.63e-06 0)
(0.000407 6.822e-06 0)
(0.0004035 6.094e-06 0)
(0.0004003 5.44e-06 0)
(0.0003975 4.855e-06 0)
(0.000395 4.334e-06 0)
(0.0003928 3.874e-06 0)
(0.0003908 3.472e-06 0)
(0.000389 3.125e-06 0)
(0.0003873 2.834e-06 0)
(0.0003858 2.596e-06 0)
(0.0003845 2.414e-06 0)
(0.0003832 2.29e-06 0)
(0.000382 2.226e-06 0)
(0.0003809 2.226e-06 0)
(0.0003798 2.291e-06 0)
(0.0003787 2.418e-06 0)
(0.0003776 2.583e-06 0)
(0.0003766 2.713e-06 0)
(0.001219 0.0001846 0)
(0.001255 0.0003712 0)
(0.001275 0.0004299 0)
(0.001265 0.0004207 0)
(0.001229 0.0003823 0)
(0.001179 0.0003349 0)
(0.001121 0.000288 0)
(0.001062 0.0002456 0)
(0.001004 0.0002089 0)
(0.000951 0.0001776 0)
(0.0009024 0.0001511 0)
(0.0008588 0.0001287 0)
(0.00082 0.0001098 0)
(0.0007859 9.362e-05 0)
(0.0007561 7.972e-05 0)
(0.0007302 6.768e-05 0)
(0.0007079 5.716e-05 0)
(0.0006889 4.788e-05 0)
(0.000673 3.96e-05 0)
(0.0006598 3.216e-05 0)
(0.0006491 2.537e-05 0)
(0.0006409 1.913e-05 0)
(0.0006349 1.33e-05 0)
(0.0006311 7.807e-06 0)
(0.0006294 2.555e-06 0)
(0.0006296 -2.526e-06 0)
(0.0006318 -7.5e-06 0)
(0.0006359 -1.242e-05 0)
(0.0006419 -1.735e-05 0)
(0.0006499 -2.231e-05 0)
(0.0006599 -2.736e-05 0)
(0.0006719 -3.253e-05 0)
(0.0006859 -3.784e-05 0)
(0.000702 -4.332e-05 0)
(0.0007203 -4.898e-05 0)
(0.0007409 -5.484e-05 0)
(0.0007637 -6.088e-05 0)
(0.000789 -6.711e-05 0)
(0.0008166 -7.351e-05 0)
(0.0008468 -8.004e-05 0)
(0.0008794 -8.667e-05 0)
(0.0009146 -9.332e-05 0)
(0.0009524 -9.994e-05 0)
(0.0009926 -0.0001064 0)
(0.001035 -0.0001127 0)
(0.00108 -0.0001186 0)
(0.001127 -0.000124 0)
(0.001176 -0.0001287 0)
(0.001226 -0.0001327 0)
(0.001278 -0.0001356 0)
(0.001331 -0.0001374 0)
(0.001383 -0.0001378 0)
(0.001436 -0.0001367 0)
(0.001488 -0.0001338 0)
(0.001538 -0.0001292 0)
(0.001587 -0.0001227 0)
(0.001632 -0.0001143 0)
(0.001674 -0.0001039 0)
(0.001711 -9.159e-05 0)
(0.001743 -7.762e-05 0)
(0.00177 -6.214e-05 0)
(0.001791 -4.544e-05 0)
(0.001805 -2.786e-05 0)
(0.001812 -9.799e-06 0)
(0.001813 8.346e-06 0)
(0.001806 2.617e-05 0)
(0.001793 4.329e-05 0)
(0.001774 5.939e-05 0)
(0.001749 7.419e-05 0)
(0.001718 8.75e-05 0)
(0.001682 9.918e-05 0)
(0.001643 0.0001091 0)
(0.001599 0.0001173 0)
(0.001553 0.0001238 0)
(0.001505 0.0001286 0)
(0.001455 0.0001318 0)
(0.001404 0.0001335 0)
(0.001353 0.0001338 0)
(0.001301 0.0001329 0)
(0.00125 0.0001308 0)
(0.0012 0.0001278 0)
(0.001152 0.000124 0)
(0.001104 0.0001196 0)
(0.001059 0.0001146 0)
(0.001015 0.0001093 0)
(0.0009732 0.0001037 0)
(0.0009337 9.786e-05 0)
(0.0008964 9.199e-05 0)
(0.0008613 8.614e-05 0)
(0.0008285 8.036e-05 0)
(0.0007978 7.472e-05 0)
(0.0007692 6.925e-05 0)
(0.0007427 6.399e-05 0)
(0.0007182 5.897e-05 0)
(0.0006956 5.421e-05 0)
(0.0006748 4.971e-05 0)
(0.0006557 4.548e-05 0)
(0.0006382 4.153e-05 0)
(0.0006222 3.784e-05 0)
(0.0006076 3.442e-05 0)
(0.0005943 3.125e-05 0)
(0.0005822 2.832e-05 0)
(0.0005712 2.563e-05 0)
(0.0005612 2.316e-05 0)
(0.0005522 2.089e-05 0)
(0.0005441 1.882e-05 0)
(0.0005367 1.693e-05 0)
(0.0005301 1.521e-05 0)
(0.0005241 1.365e-05 0)
(0.0005187 1.223e-05 0)
(0.0005139 1.095e-05 0)
(0.0005096 9.792e-06 0)
(0.0005057 8.751e-06 0)
(0.0005022 7.819e-06 0)
(0.0004991 6.988e-06 0)
(0.0004964 6.252e-06 0)
(0.0004939 5.606e-06 0)
(0.0004916 5.046e-06 0)
(0.0004896 4.57e-06 0)
(0.0004878 4.177e-06 0)
(0.0004861 3.866e-06 0)
(0.0004845 3.638e-06 0)
(0.0004831 3.495e-06 0)
(0.0004818 3.436e-06 0)
(0.0004805 3.459e-06 0)
(0.0004793 3.552e-06 0)
(0.0004781 3.684e-06 0)
(0.000477 3.788e-06 0)
(0.001214 0.000152 0)
(0.001246 0.0003353 0)
(0.001274 0.0004179 0)
(0.001282 0.0004349 0)
(0.001269 0.0004162 0)
(0.00124 0.0003807 0)
(0.001201 0.0003395 0)
(0.001156 0.0002984 0)
(0.001109 0.0002601 0)
(0.001063 0.0002257 0)
(0.001019 0.0001953 0)
(0.0009788 0.0001687 0)
(0.0009417 0.0001456 0)
(0.0009084 0.0001253 0)
(0.0008788 0.0001075 0)
(0.0008526 9.188e-05 0)
(0.0008299 7.8e-05 0)
(0.0008103 6.561e-05 0)
(0.0007937 5.444e-05 0)
(0.0007799 4.429e-05 0)
(0.0007688 3.498e-05 0)
(0.0007602 2.634e-05 0)
(0.000754 1.825e-05 0)
(0.0007501 1.056e-05 0)
(0.0007485 3.193e-06 0)
(0.0007491 -3.959e-06 0)
(0.0007518 -1.098e-05 0)
(0.0007567 -1.794e-05 0)
(0.0007637 -2.49e-05 0)
(0.0007729 -3.194e-05 0)
(0.0007843 -3.909e-05 0)
(0.0007979 -4.641e-05 0)
(0.0008138 -5.393e-05 0)
(0.0008322 -6.168e-05 0)
(0.0008529 -6.968e-05 0)
(0.0008762 -7.794e-05 0)
(0.000902 -8.647e-05 0)
(0.0009305 -9.525e-05 0)
(0.0009617 -0.0001043 0)
(0.0009957 -0.0001134 0)
(0.001032 -0.0001227 0)
(0.001072 -0.0001321 0)
(0.001114 -0.0001413 0)
(0.00116 -0.0001504 0)
(0.001207 -0.0001591 0)
(0.001258 -0.0001674 0)
(0.00131 -0.0001749 0)
(0.001365 -0.0001815 0)
(0.001422 -0.0001869 0)
(0.00148 -0.000191 0)
(0.001539 -0.0001934 0)
(0.001598 -0.0001939 0)
(0.001657 -0.0001922 0)
(0.001715 -0.0001882 0)
(0.001771 -0.0001817 0)
(0.001825 -0.0001725 0)
(0.001876 -0.0001606 0)
(0.001923 -0.000146 0)
(0.001965 -0.0001288 0)
(0.002001 -0.0001092 0)
(0.002031 -8.745e-05 0)
(0.002055 -6.4e-05 0)
(0.002071 -3.932e-05 0)
(0.002079 -1.396e-05 0)
(0.002079 1.152e-05 0)
(0.002072 3.655e-05 0)
(0.002058 6.06e-05 0)
(0.002036 8.321e-05 0)
(0.002008 0.000104 0)
(0.001973 0.0001227 0)
(0.001934 0.0001392 0)
(0.001889 0.0001532 0)
(0.001841 0.0001648 0)
(0.001789 0.000174 0)
(0.001735 0.0001808 0)
(0.00168 0.0001854 0)
(0.001622 0.0001879 0)
(0.001565 0.0001884 0)
(0.001507 0.0001872 0)
(0.00145 0.0001845 0)
(0.001394 0.0001804 0)
(0.001339 0.0001752 0)
(0.001286 0.000169 0)
(0.001235 0.0001621 0)
(0.001186 0.0001547 0)
(0.001139 0.0001468 0)
(0.001094 0.0001387 0)
(0.001052 0.0001305 0)
(0.001012 0.0001223 0)
(0.0009752 0.0001142 0)
(0.0009405 0.0001063 0)
(0.0009081 9.859e-05 0)
(0.0008781 9.119e-05 0)
(0.0008503 8.411e-05 0)
(0.0008246 7.738e-05 0)
(0.0008009 7.103e-05 0)
(0.0007791 6.505e-05 0)
(0.0007591 5.945e-05 0)
(0.0007408 5.422e-05 0)
(0.0007241 4.936e-05 0)
(0.0007089 4.486e-05 0)
(0.000695 4.07e-05 0)
(0.0006824 3.686e-05 0)
(0.0006709 3.334e-05 0)
(0.0006605 3.011e-05 0)
(0.0006511 2.715e-05 0)
(0.0006426 2.445e-05 0)
(0.000635 2.199e-05 0)
(0.0006281 1.975e-05 0)
(0.0006218 1.772e-05 0)
(0.0006163 1.588e-05 0)
(0.0006112 1.421e-05 0)
(0.0006067 1.271e-05 0)
(0.0006027 1.137e-05 0)
(0.0005991 1.017e-05 0)
(0.0005958 9.105e-06 0)
(0.0005929 8.166e-06 0)
(0.0005903 7.349e-06 0)
(0.0005879 6.648e-06 0)
(0.0005858 6.061e-06 0)
(0.0005839 5.585e-06 0)
(0.0005821 5.219e-06 0)
(0.0005805 4.963e-06 0)
(0.000579 4.812e-06 0)
(0.0005776 4.76e-06 0)
(0.0005762 4.791e-06 0)
(0.000575 4.872e-06 0)
(0.0005738 4.943e-06 0)
(0.00121 0.0001278 0)
(0.001237 0.0003005 0)
(0.001267 0.0003952 0)
(0.001285 0.0004313 0)
(0.001287 0.0004303 0)
(0.001275 0.0004081 0)
(0.001251 0.0003753 0)
(0.00122 0.0003387 0)
(0.001185 0.0003018 0)
(0.001148 0.0002669 0)
(0.001111 0.0002346 0)
(0.001076 0.0002054 0)
(0.001043 0.0001791 0)
(0.001012 0.0001556 0)
(0.0009844 0.0001346 0)
(0.0009596 0.0001158 0)
(0.0009377 9.88e-05 0)
(0.0009186 8.344e-05 0)
(0.0009023 6.945e-05 0)
(0.0008888 5.662e-05 0)
(0.0008778 4.473e-05 0)
(0.0008694 3.363e-05 0)
(0.0008634 2.315e-05 0)
(0.0008598 1.315e-05 0)
(0.0008585 3.525e-06 0)
(0.0008595 -5.855e-06 0)
(0.0008628 -1.509e-05 0)
(0.0008683 -2.426e-05 0)
(0.0008762 -3.345e-05 0)
(0.0008863 -4.275e-05 0)
(0.0008989 -5.22e-05 0)
(0.0009138 -6.188e-05 0)
(0.0009312 -7.181e-05 0)
(0.0009512 -8.206e-05 0)
(0.0009738 -9.263e-05 0)
(0.000999 -0.0001035 0)
(0.001027 -0.0001148 0)
(0.001058 -0.0001263 0)
(0.001092 -0.0001382 0)
(0.001129 -0.0001503 0)
(0.001168 -0.0001625 0)
(0.001211 -0.0001747 0)
(0.001257 -0.0001869 0)
(0.001306 -0.0001988 0)
(0.001358 -0.0002102 0)
(0.001412 -0.000221 0)
(0.001469 -0.0002308 0)
(0.001528 -0.0002395 0)
(0.001589 -0.0002466 0)
(0.001652 -0.0002518 0)
(0.001715 -0.0002549 0)
(0.001779 -0.0002555 0)
(0.001843 -0.0002533 0)
(0.001906 -0.0002481 0)
(0.001967 -0.0002395 0)
(0.002026 -0.0002274 0)
(0.002081 -0.0002117 0)
(0.002132 -0.0001925 0)
(0.002177 -0.0001699 0)
(0.002217 -0.000144 0)
(0.002249 -0.0001154 0)
(0.002275 -8.453e-05 0)
(0.002292 -5.201e-05 0)
(0.002301 -1.858e-05 0)
(0.002302 1.5e-05 0)
(0.002294 4.797e-05 0)
(0.002278 7.964e-05 0)
(0.002254 0.0001094 0)
(0.002224 0.0001368 0)
(0.002187 0.0001614 0)
(0.002144 0.0001831 0)
(0.002096 0.0002016 0)
(0.002044 0.0002169 0)
(0.001988 0.000229 0)
(0.00193 0.0002381 0)
(0.001869 0.0002442 0)
(0.001808 0.0002476 0)
(0.001745 0.0002485 0)
(0.001683 0.000247 0)
(0.001621 0.0002435 0)
(0.001561 0.0002382 0)
(0.001501 0.0002315 0)
(0.001444 0.0002235 0)
(0.001388 0.0002145 0)
(0.001335 0.0002048 0)
(0.001284 0.0001945 0)
(0.001236 0.0001839 0)
(0.00119 0.0001731 0)
(0.001147 0.0001624 0)
(0.001107 0.0001517 0)
(0.001069 0.0001413 0)
(0.001034 0.0001312 0)
(0.001001 0.0001214 0)
(0.0009708 0.0001121 0)
(0.0009428 0.0001032 0)
(0.0009169 9.479e-05 0)
(0.0008931 8.688e-05 0)
(0.0008712 7.946e-05 0)
(0.0008511 7.254e-05 0)
(0.0008328 6.609e-05 0)
(0.0008161 6.011e-05 0)
(0.0008008 5.459e-05 0)
(0.0007869 4.949e-05 0)
(0.0007743 4.479e-05 0)
(0.0007628 4.049e-05 0)
(0.0007525 3.654e-05 0)
(0.0007431 3.294e-05 0)
(0.0007346 2.965e-05 0)
(0.0007269 2.665e-05 0)
(0.00072 2.393e-05 0)
(0.0007138 2.147e-05 0)
(0.0007082 1.923e-05 0)
(0.0007032 1.722e-05 0)
(0.0006987 1.542e-05 0)
(0.0006946 1.38e-05 0)
(0.000691 1.236e-05 0)
(0.0006878 1.108e-05 0)
(0.0006848 9.971e-06 0)
(0.0006822 9.009e-06 0)
(0.0006798 8.194e-06 0)
(0.0006777 7.52e-06 0)
(0.0006758 6.985e-06 0)
(0.000674 6.584e-06 0)
(0.0006724 6.312e-06 0)
(0.0006709 6.158e-06 0)
(0.0006695 6.105e-06 0)
(0.0006682 6.121e-06 0)
(0.0006669 6.155e-06 0)
(0.001208 0.0001096 0)
(0.00123 0.0002693 0)
(0.001259 0.0003685 0)
(0.001281 0.0004173 0)
(0.001293 0.0004305 0)
(0.001293 0.0004206 0)
(0.001282 0.0003971 0)
(0.001263 0.0003666 0)
(0.001239 0.0003333 0)
(0.001211 0.0002997 0)
(0.001183 0.0002674 0)
(0.001154 0.000237 0)
(0.001126 0.0002089 0)
(0.001099 0.0001831 0)
(0.001074 0.0001596 0)
(0.001052 0.0001381 0)
(0.001032 0.0001184 0)
(0.001014 0.0001004 0)
(0.0009991 8.384e-05 0)
(0.0009864 6.845e-05 0)
(0.0009762 5.408e-05 0)
(0.0009684 4.054e-05 0)
(0.0009629 2.769e-05 0)
(0.0009598 1.535e-05 0)
(0.000959 3.414e-06 0)
(0.0009605 -8.263e-06 0)
(0.0009643 -1.979e-05 0)
(0.0009705 -3.127e-05 0)
(0.000979 -4.28e-05 0)
(0.0009899 -5.447e-05 0)
(0.001003 -6.636e-05 0)
(0.001019 -7.852e-05 0)
(0.001038 -9.102e-05 0)
(0.001059 -0.0001039 0)
(0.001082 -0.0001172 0)
(0.001109 -0.0001309 0)
(0.001139 -0.000145 0)
(0.001171 -0.0001595 0)
(0.001207 -0.0001744 0)
(0.001245 -0.0001895 0)
(0.001287 -0.0002048 0)
(0.001332 -0.0002202 0)
(0.00138 -0.0002354 0)
(0.001431 -0.0002503 0)
(0.001486 -0.0002646 0)
(0.001543 -0.0002781 0)
(0.001602 -0.0002904 0)
(0.001664 -0.0003012 0)
(0.001729 -0.00031 0)
(0.001794 -0.0003166 0)
(0.001861 -0.0003205 0)
(0.001928 -0.0003213 0)
(0.001996 -0.0003185 0)
(0.002062 -0.0003119 0)
(0.002126 -0.0003012 0)
(0.002188 -0.000286 0)
(0.002246 -0.0002664 0)
(0.0023 -0.0002423 0)
(0.002348 -0.0002139 0)
(0.00239 -0.0001814 0)
(0.002425 -0.0001454 0)
(0.002452 -0.0001066 0)
(0.00247 -6.563e-05 0)
(0.00248 -2.353e-05 0)
(0.00248 1.875e-05 0)
(0.002472 6.024e-05 0)
(0.002455 0.0001001 0)
(0.00243 0.0001375 0)
(0.002398 0.0001719 0)
(0.002358 0.0002028 0)
(0.002313 0.0002299 0)
(0.002263 0.0002532 0)
(0.002208 0.0002724 0)
(0.002149 0.0002877 0)
(0.002088 0.0002992 0)
(0.002024 0.0003069 0)
(0.00196 0.0003113 0)
(0.001894 0.0003124 0)
(0.001829 0.0003107 0)
(0.001764 0.0003064 0)
(0.0017 0.0002999 0)
(0.001638 0.0002915 0)
(0.001578 0.0002815 0)
(0.001519 0.0002703 0)
(0.001463 0.0002582 0)
(0.00141 0.0002454 0)
(0.001359 0.0002321 0)
(0.001311 0.0002187 0)
(0.001266 0.0002052 0)
(0.001223 0.0001918 0)
(0.001183 0.0001787 0)
(0.001146 0.000166 0)
(0.001112 0.0001538 0)
(0.001079 0.0001421 0)
(0.00105 0.0001309 0)
(0.001022 0.0001203 0)
(0.0009972 0.0001104 0)
(0.0009741 0.000101 0)
(0.0009528 9.228e-05 0)
(0.0009334 8.414e-05 0)
(0.0009156 7.659e-05 0)
(0.0008993 6.96e-05 0)
(0.0008846 6.315e-05 0)
(0.0008711 5.721e-05 0)
(0.0008589 5.175e-05 0)
(0.0008478 4.674e-05 0)
(0.0008378 4.217e-05 0)
(0.0008287 3.799e-05 0)
(0.0008205 3.418e-05 0)
(0.0008131 3.071e-05 0)
(0.0008064 2.757e-05 0)
(0.0008004 2.473e-05 0)
(0.000795 2.216e-05 0)
(0.0007901 1.984e-05 0)
(0.0007858 1.777e-05 0)
(0.0007819 1.592e-05 0)
(0.0007784 1.428e-05 0)
(0.0007752 1.284e-05 0)
(0.0007724 1.159e-05 0)
(0.0007699 1.052e-05 0)
(0.0007676 9.618e-06 0)
(0.0007655 8.887e-06 0)
(0.0007637 8.316e-06 0)
(0.000762 7.898e-06 0)
(0.0007604 7.622e-06 0)
(0.000759 7.468e-06 0)
(0.0007576 7.408e-06 0)
(0.0007563 7.402e-06 0)
(0.001206 9.555e-05 0)
(0.001225 0.0002421 0)
(0.001251 0.0003411 0)
(0.001276 0.0003976 0)
(0.001293 0.0004214 0)
(0.001301 0.000422 0)
(0.0013 0.0004074 0)
(0.001291 0.0003837 0)
(0.001277 0.0003549 0)
(0.001258 0.0003241 0)
(0.001237 0.0002929 0)
(0.001215 0.0002626 0)
(0.001192 0.0002338 0)
(0.001171 0.0002067 0)
(0.00115 0.0001814 0)
(0.001131 0.0001579 0)
(0.001113 0.0001361 0)
(0.001098 0.0001159 0)
(0.001084 9.696e-05 0)
(0.001073 7.926e-05 0)
(0.001064 6.257e-05 0)
(0.001057 4.674e-05 0)
(0.001052 3.159e-05 0)
(0.00105 1.698e-05 0)
(0.00105 2.758e-06 0)
(0.001052 -1.121e-05 0)
(0.001056 -2.504e-05 0)
(0.001063 -3.885e-05 0)
(0.001072 -5.275e-05 0)
(0.001083 -6.684e-05 0)
(0.001097 -8.121e-05 0)
(0.001114 -9.592e-05 0)
(0.001133 -0.000111 0)
(0.001154 -0.0001266 0)
(0.001179 -0.0001427 0)
(0.001206 -0.0001593 0)
(0.001236 -0.0001764 0)
(0.00127 -0.0001939 0)
(0.001306 -0.0002119 0)
(0.001345 -0.0002302 0)
(0.001388 -0.0002487 0)
(0.001434 -0.0002673 0)
(0.001483 -0.0002857 0)
(0.001536 -0.0003037 0)
(0.001591 -0.000321 0)
(0.00165 -0.0003372 0)
(0.001711 -0.0003521 0)
(0.001774 -0.0003652 0)
(0.00184 -0.0003759 0)
(0.001908 -0.0003839 0)
(0.001976 -0.0003886 0)
(0.002045 -0.0003896 0)
(0.002115 -0.0003864 0)
(0.002183 -0.0003785 0)
(0.002249 -0.0003655 0)
(0.002313 -0.0003473 0)
(0.002373 -0.0003236 0)
(0.002429 -0.0002945 0)
(0.002479 -0.00026 0)
(0.002522 -0.0002207 0)
(0.002559 -0.000177 0)
(0.002586 -0.0001297 0)
(0.002605 -7.991e-05 0)
(0.002615 -2.867e-05 0)
(0.002616 2.276e-05 0)
(0.002607 7.319e-05 0)
(0.00259 0.0001215 0)
(0.002564 0.0001669 0)
(0.00253 0.0002085 0)
(0.002489 0.0002459 0)
(0.002443 0.0002788 0)
(0.002391 0.0003069 0)
(0.002334 0.0003302 0)
(0.002274 0.0003487 0)
(0.002211 0.0003626 0)
(0.002146 0.000372 0)
(0.002079 0.0003773 0)
(0.002012 0.0003788 0)
(0.001945 0.0003768 0)
(0.001878 0.0003717 0)
(0.001813 0.0003639 0)
(0.001749 0.0003538 0)
(0.001687 0.0003418 0)
(0.001627 0.0003283 0)
(0.00157 0.0003136 0)
(0.001515 0.0002982 0)
(0.001463 0.0002822 0)
(0.001413 0.0002659 0)
(0.001367 0.0002497 0)
(0.001323 0.0002335 0)
(0.001283 0.0002177 0)
(0.001244 0.0002023 0)
(0.001209 0.0001875 0)
(0.001176 0.0001733 0)
(0.001146 0.0001598 0)
(0.001117 0.000147 0)
(0.001091 0.0001349 0)
(0.001068 0.0001235 0)
(0.001046 0.0001129 0)
(0.001026 0.000103 0)
(0.001007 9.385e-05 0)
(0.0009904 8.535e-05 0)
(0.0009751 7.749e-05 0)
(0.0009612 7.025e-05 0)
(0.0009485 6.359e-05 0)
(0.000937 5.748e-05 0)
(0.0009266 5.189e-05 0)
(0.0009171 4.678e-05 0)
(0.0009086 4.212e-05 0)
(0.0009009 3.788e-05 0)
(0.0008939 3.403e-05 0)
(0.0008877 3.054e-05 0)
(0.000882 2.738e-05 0)
(0.000877 2.454e-05 0)
(0.0008724 2.199e-05 0)
(0.0008683 1.97e-05 0)
(0.0008647 1.767e-05 0)
(0.0008614 1.588e-05 0)
(0.0008584 1.432e-05 0)
(0.0008558 1.297e-05 0)
(0.0008534 1.182e-05 0)
(0.0008513 1.088e-05 0)
(0.0008493 1.012e-05 0)
(0.0008476 9.535e-06 0)
(0.000846 9.119e-06 0)
(0.0008446 8.852e-06 0)
(0.0008432 8.71e-06 0)
(0.0008419 8.662e-06 0)
(0.001205 8.431e-05 0)
(0.001221 0.0002185 0)
(0.001245 0.0003147 0)
(0.001269 0.0003752 0)
(0.00129 0.0004064 0)
(0.001303 0.0004154 0)
(0.001309 0.0004087 0)
(0.001309 0.0003915 0)
(0.001303 0.0003677 0)
(0.001292 0.0003404 0)
(0.001278 0.0003114 0)
(0.001263 0.0002821 0)
(0.001246 0.0002534 0)
(0.001229 0.0002258 0)
(0.001213 0.0001995 0)
(0.001197 0.0001746 0)
(0.001183 0.0001512 0)
(0.00117 0.0001292 0)
(0.001158 0.0001083 0)
(0.001149 8.862e-05 0)
(0.001141 6.988e-05 0)
(0.001136 5.194e-05 0)
(0.001132 3.466e-05 0)
(0.001131 1.79e-05 0)
(0.001131 1.5e-06 0)
(0.001134 -1.467e-05 0)
(0.001139 -3.075e-05 0)
(0.001146 -4.685e-05 0)
(0.001155 -6.309e-05 0)
(0.001167 -7.958e-05 0)
(0.001181 -9.641e-05 0)
(0.001197 -0.0001137 0)
(0.001216 -0.0001314 0)
(0.001238 -0.0001497 0)
(0.001263 -0.0001686 0)
(0.00129 -0.000188 0)
(0.00132 -0.0002081 0)
(0.001353 -0.0002287 0)
(0.00139 -0.0002498 0)
(0.001429 -0.0002713 0)
(0.001472 -0.0002931 0)
(0.001518 -0.0003149 0)
(0.001567 -0.0003365 0)
(0.001619 -0.0003576 0)
(0.001675 -0.000378 0)
(0.001733 -0.0003971 0)
(0.001795 -0.0004146 0)
(0.001858 -0.00043 0)
(0.001924 -0.0004427 0)
(0.001992 -0.0004522 0)
(0.002061 -0.0004579 0)
(0.002131 -0.0004592 0)
(0.0022 -0.0004555 0)
(0.002269 -0.0004464 0)
(0.002336 -0.0004313 0)
(0.002401 -0.00041 0)
(0.002462 -0.0003822 0)
(0.002518 -0.000348 0)
(0.002569 -0.0003074 0)
(0.002614 -0.000261 0)
(0.00265 -0.0002094 0)
(0.002679 -0.0001535 0)
(0.002698 -9.454e-05 0)
(0.002708 -3.385e-05 0)
(0.002708 2.704e-05 0)
(0.002699 8.668e-05 0)
(0.002681 0.0001437 0)
(0.002655 0.0001972 0)
(0.00262 0.0002462 0)
(0.002579 0.0002901 0)
(0.002532 0.0003287 0)
(0.002479 0.0003616 0)
(0.002422 0.000389 0)
(0.002362 0.0004107 0)
(0.002298 0.000427 0)
(0.002233 0.0004382 0)
(0.002166 0.0004444 0)
(0.002099 0.0004462 0)
(0.002031 0.0004439 0)
(0.001964 0.0004379 0)
(0.001899 0.0004288 0)
(0.001835 0.0004169 0)
(0.001772 0.0004029 0)