/*--------------------------------*- C++ -*----------------------------------*\
  =========                 |
  \\      /  F ield         | OpenFOAM: The Open Source CFD Toolbox
   \\    /   O peration     | Website:  https://openfoam.org
    \\  /    A nd           | Version:  7
     \\/     M anipulation  |
\*---------------------------------------------------------------------------*/
FoamFile
{
    version     2.0;
    format      ascii;
    class       volScalarField;
    location    "839.999473410766313";
    object      Y.K;
}
// * * * * * * * * * * * * * * * * * * * * * * * * * * * * * * * * * * * * * //

dimensions      [0 0 0 0 0 0 0];

internalField   nonuniform List<scalar> 
4096
(
1.326e-69
1.184e-67
-4.106e-68
5.739e-68
-1.943e-68
-4.54e-68
1.982e-68
1.52e-68
-9.703e-69
1.136e-68
-1.964e-67
2.833e-66
-3.872e-65
5.589e-64
-7.316e-63
9.332e-62
-1.132e-60
1.351e-59
-1.559e-58
1.788e-57
-1.968e-56
2.151e-55
-2.347e-54
2.488e-53
-2.532e-52
2.5e-51
-2.372e-50
2.278e-49
-2.144e-48
1.989e-47
-1.812e-46
1.622e-45
-1.395e-44
1.179e-43
-9.615e-43
7.682e-42
-5.857e-41
4.222e-40
-2.929e-39
1.974e-38
-1.255e-37
7.588e-37
-4.369e-36
2.394e-35
-1.249e-34
6.111e-34
-2.862e-33
1.271e-32
-5.314e-32
2.138e-31
-7.023e-31
2.776e-30
-1.636e-30
2.48e-29
2.402e-28
7.16e-28
9.014e-27
3.625e-26
4.079e-25
1.576e-24
1.517e-23
5.208e-23
1.716e-22
1.231e-21
5.801e-21
7.699e-20
1.075e-18
3.262e-18
7.344e-18
1.469e-17
2.757e-17
4.953e-17
8.604e-17
1.452e-16
2.389e-16
3.837e-16
6.026e-16
9.268e-16
1.397e-15
2.067e-15
3.004e-15
4.291e-15
6.033e-15
8.354e-15
1.14e-14
1.536e-14
2.043e-14
2.685e-14
3.489e-14
4.489e-14
5.719e-14
7.22e-14
9.038e-14
1.123e-13
1.384e-13
1.695e-13
2.062e-13
2.494e-13
3e-13
3.589e-13
4.274e-13
5.066e-13
5.979e-13
7.029e-13
8.232e-13
9.607e-13
1.117e-12
1.296e-12
1.498e-12
1.727e-12
1.986e-12
2.277e-12
2.605e-12
2.974e-12
3.388e-12
3.85e-12
4.368e-12
4.945e-12
5.588e-12
6.303e-12
7.097e-12
7.976e-12
8.946e-12
1.001e-11
1.116e-11
1.237e-11
1.355e-11
1.447e-11
-3.939e-67
2.08e-66
-2.685e-66
4.146e-67
1.921e-66
-1.719e-66
3.658e-68
1.033e-66
-2.611e-67
5.39e-67
-1.19e-65
1.533e-64
-2.188e-63
3.024e-62
-3.969e-61
4.988e-60
-6.052e-59
7.14e-58
-8.236e-57
9.319e-56
-1.036e-54
1.132e-53
-1.215e-52
1.274e-51
-1.306e-50
1.284e-49
-1.223e-48
1.159e-47
-1.088e-46
1.008e-45
-9.165e-45
8.157e-44
-7.076e-43
5.962e-42
-4.861e-41
3.823e-40
-2.891e-39
2.097e-38
-1.454e-37
9.626e-37
-6.075e-36
3.651e-35
-2.089e-34
1.137e-33
-5.883e-33
2.893e-32
-1.349e-31
5.973e-31
-2.445e-30
9.851e-30
-3.157e-29
1.316e-28
-3.602e-30
1.326e-27
1.239e-26
4.851e-26
4.215e-25
2.238e-24
1.98e-23
8.527e-23
6.842e-22
2.378e-21
7.541e-21
4.658e-20
1.735e-19
1.088e-18
3.183e-18
7.161e-18
1.441e-17
2.718e-17
4.897e-17
8.508e-17
1.433e-16
2.349e-16
3.753e-16
5.858e-16
8.947e-16
1.339e-15
1.966e-15
2.837e-15
4.025e-15
5.621e-15
7.737e-15
1.05e-14
1.408e-14
1.865e-14
2.442e-14
3.164e-14
4.061e-14
5.163e-14
6.509e-14
8.14e-14
1.01e-13
1.245e-13
1.525e-13
1.856e-13
2.246e-13
2.703e-13
3.237e-13
3.858e-13
4.578e-13
5.409e-13
6.366e-13
7.465e-13
8.722e-13
1.016e-12
1.179e-12
1.365e-12
1.576e-12
1.814e-12
2.083e-12
2.387e-12
2.728e-12
3.111e-12
3.54e-12
4.021e-12
4.558e-12
5.157e-12
5.823e-12
6.565e-12
7.388e-12
8.3e-12
9.307e-12
1.042e-11
1.163e-11
1.293e-11
1.429e-11
1.556e-11
8.824e-66
-6.152e-65
1.554e-64
-2.111e-64
1.505e-64
-2.548e-65
-5.432e-65
4.992e-65
6.371e-66
2.691e-65
-6.792e-64
8.052e-63
-1.133e-61
1.551e-60
-2.013e-59
2.504e-58
-3.006e-57
3.512e-56
-4.013e-55
4.502e-54
-4.966e-53
5.387e-52
-5.738e-51
5.982e-50
-6.092e-49
5.965e-48
-5.682e-47
5.383e-46
-5.048e-45
4.667e-44
-4.236e-43
3.762e-42
-3.254e-41
2.734e-40
-2.222e-39
1.741e-38
-1.312e-37
9.475e-37
-6.541e-36
4.309e-35
-2.705e-34
1.616e-33
-9.186e-33
4.966e-32
-2.553e-31
1.247e-30
-5.778e-30
2.549e-29
-1.034e-28
4.225e-28
-1.299e-27
5.849e-27
5.542e-27
7.467e-26
5.898e-25
3.177e-24
2.292e-23
1.312e-22
9.805e-22
4.501e-21
2.958e-20
1.009e-19
2.998e-19
1.448e-18
4.153e-18
9.397e-18
1.924e-17
3.7e-17
6.784e-17
1.195e-16
2.032e-16
3.346e-16
5.346e-16
8.308e-16
1.259e-15
1.862e-15
2.695e-15
3.821e-15
5.319e-15
7.278e-15
9.803e-15
1.302e-14
1.706e-14
2.209e-14
2.831e-14
3.592e-14
4.517e-14
5.635e-14
6.978e-14
8.584e-14
1.049e-13
1.276e-13
1.542e-13
1.856e-13
2.223e-13
2.652e-13
3.151e-13
3.729e-13
4.398e-13
5.17e-13
6.058e-13
7.076e-13
8.242e-13
9.574e-13
1.109e-12
1.282e-12
1.477e-12
1.699e-12
1.95e-12
2.232e-12
2.551e-12
2.908e-12
3.31e-12
3.76e-12
4.263e-12
4.826e-12
5.452e-12
6.15e-12
6.926e-12
7.788e-12
8.742e-12
9.798e-12
1.096e-11
1.225e-11
1.366e-11
1.52e-11
1.688e-11
1.874e-11
-1.446e-64
1.15e-63
-4.072e-63
8.903e-63
-1.278e-62
1.222e-62
-7.194e-63
1.554e-63
9.548e-64
1.75e-63
-3.819e-62
3.949e-61
-5.417e-60
7.292e-59
-9.297e-58
1.136e-56
-1.341e-55
1.542e-54
-1.737e-53
1.923e-52
-2.096e-51
2.249e-50
-2.372e-49
2.452e-48
-2.479e-47
2.417e-46
-2.302e-45
2.18e-44
-2.042e-43
1.886e-42
-1.709e-41
1.515e-40
-1.308e-39
1.097e-38
-8.89e-38
6.948e-37
-5.218e-36
3.758e-35
-2.584e-34
1.694e-33
-1.058e-32
6.286e-32
-3.551e-31
1.906e-30
-9.728e-30
4.719e-29
-2.172e-28
9.562e-28
-3.825e-27
1.61e-26
-4.518e-26
2.297e-25
4.465e-25
4.191e-24
2.985e-23
1.809e-22
1.257e-21
7.248e-21
4.539e-20
2.011e-19
1.009e-18
3.183e-18
7.949e-18
1.793e-17
3.778e-17
7.532e-17
1.43e-16
2.599e-16
4.53e-16
7.599e-16
1.23e-15
1.925e-15
2.92e-15
4.303e-15
6.175e-15
8.647e-15
1.184e-14
1.587e-14
2.09e-14
2.704e-14
3.448e-14
4.336e-14
5.389e-14
6.627e-14
8.075e-14
9.759e-14
1.171e-13
1.397e-13
1.658e-13
1.958e-13
2.303e-13
2.701e-13
3.156e-13
3.679e-13
4.278e-13
4.964e-13
5.747e-13
6.642e-13
7.663e-13
8.826e-13
1.015e-12
1.165e-12
1.336e-12
1.529e-12
1.747e-12
1.994e-12
2.272e-12
2.585e-12
2.938e-12
3.333e-12
3.777e-12
4.273e-12
4.828e-12
5.447e-12
6.137e-12
6.906e-12
7.759e-12
8.707e-12
9.757e-12
1.092e-11
1.22e-11
1.362e-11
1.518e-11
1.689e-11
1.877e-11
2.082e-11
2.31e-11
2.592e-11
2.044e-63
-1.765e-62
7.74e-62
-2.263e-61
4.663e-61
-7.032e-61
7.843e-61
-6.297e-61
3.257e-61
7.932e-62
-2.115e-60
1.801e-59
-2.369e-58
3.099e-57
-3.837e-56
4.56e-55
-5.241e-54
5.885e-53
-6.486e-52
7.041e-51
-7.54e-50
7.964e-49
-8.287e-48
8.471e-47
-8.485e-46
8.234e-45
-7.843e-44
7.425e-43
-6.954e-42
6.417e-41
-5.813e-40
5.148e-39
-4.441e-38
3.719e-37
-3.011e-36
2.35e-35
-1.762e-34
1.267e-33
-8.69e-33
5.677e-32
-3.529e-31
2.085e-30
-1.17e-29
6.237e-29
-3.158e-28
1.52e-27
-6.94e-27
3.052e-26
-1.184e-25
5.312e-25
-1.16e-24
7.276e-24
3.678e-23
2.203e-22
1.577e-21
1.019e-20
6.737e-20
3.323e-19
1.689e-18
5.69e-18
1.535e-17
3.732e-17
8.451e-17
1.801e-16
3.633e-16
6.956e-16
1.268e-15
2.207e-15
3.679e-15
5.885e-15
9.062e-15
1.347e-14
1.937e-14
2.702e-14
3.667e-14
4.851e-14
6.273e-14
7.945e-14
9.877e-14
1.208e-13
1.456e-13
1.734e-13
2.043e-13
2.385e-13
2.762e-13
3.18e-13
3.642e-13
4.154e-13
4.722e-13
5.354e-13
6.06e-13
6.849e-13
7.732e-13
8.724e-13
9.838e-13
1.109e-12
1.25e-12
1.409e-12
1.588e-12
1.789e-12
2.016e-12
2.271e-12
2.558e-12
2.881e-12
3.243e-12
3.649e-12
4.105e-12
4.614e-12
5.184e-12
5.821e-12
6.531e-12
7.322e-12
8.202e-12
9.18e-12
1.027e-11
1.147e-11
1.28e-11
1.427e-11
1.59e-11
1.769e-11
1.966e-11
2.183e-11
2.42e-11
2.68e-11
2.965e-11
3.275e-11
3.616e-11
4.073e-11
-2.65e-62
2.416e-61
-1.228e-60
4.415e-60
-1.172e-59
2.38e-59
-3.771e-59
4.67e-59
-4.43e-59
3.172e-59
-1.039e-58
7.583e-58
-9.287e-57
1.16e-55
-1.373e-54
1.564e-53
-1.728e-52
1.873e-51
-2.001e-50
2.113e-49
-2.209e-48
2.284e-47
-2.334e-46
2.352e-45
-2.329e-44
2.249e-43
-2.142e-42
2.029e-41
-1.901e-40
1.756e-39
-1.591e-38
1.411e-37
-1.218e-36
1.021e-35
-8.283e-35
6.476e-34
-4.863e-33
3.505e-32
-2.401e-31
1.565e-30
-9.7e-30
5.705e-29
-3.184e-28
1.684e-27
-8.452e-27
4.026e-26
-1.819e-25
8.004e-25
-2.849e-24
1.488e-23
-5.972e-24
3.014e-22
1.873e-21
1.167e-20
8.584e-20
4.83e-19
2.624e-18
9.661e-18
2.876e-17
7.719e-17
1.923e-16
4.484e-16
9.826e-16
2.029e-15
3.955e-15
7.297e-15
1.278e-14
2.129e-14
3.386e-14
5.155e-14
7.538e-14
1.062e-13
1.444e-13
1.904e-13
2.439e-13
3.044e-13
3.711e-13
4.432e-13
5.197e-13
5.999e-13
6.833e-13
7.696e-13
8.588e-13
9.511e-13
1.047e-12
1.148e-12
1.255e-12
1.368e-12
1.491e-12
1.623e-12
1.768e-12
1.926e-12
2.101e-12
2.295e-12
2.511e-12
2.752e-12
3.02e-12
3.32e-12
3.655e-12
4.031e-12
4.451e-12
4.92e-12
5.446e-12
6.033e-12
6.688e-12
7.42e-12
8.236e-12
9.146e-12
1.016e-11
1.128e-11
1.253e-11
1.392e-11
1.546e-11
1.716e-11
1.904e-11
2.111e-11
2.34e-11
2.592e-11
2.87e-11
3.174e-11
3.507e-11
3.873e-11
4.271e-11
4.706e-11
5.18e-11
5.694e-11
6.255e-11
7.042e-11
3.244e-61
-3.063e-60
1.734e-59
-7.292e-59
2.351e-58
-5.989e-58
1.229e-57
-2.047e-57
2.729e-57
-2.736e-57
-1.958e-57
2.79e-56
-3.139e-55
3.652e-54
-4.035e-53
4.325e-52
-4.51e-51
4.658e-50
-4.771e-49
4.858e-48
-4.92e-47
4.955e-46
-4.95e-45
4.898e-44
-4.786e-43
4.597e-42
-4.377e-41
4.153e-40
-3.902e-39
3.613e-38
-3.286e-37
2.926e-36
-2.539e-35
2.145e-34
-1.753e-33
1.381e-32
-1.046e-31
7.621e-31
-5.234e-30
3.416e-29
-2.114e-28
1.239e-27
-6.889e-27
3.623e-26
-1.803e-25
8.492e-25
-3.771e-24
1.66e-23
-4.161e-23
3.56e-22
1.107e-21
1.183e-20
8.44e-20
5.619e-19
3.415e-18
1.405e-17
4.718e-17
1.431e-16
4.015e-16
1.048e-15
2.556e-15
5.824e-15
1.243e-14
2.489e-14
4.686e-14
8.315e-14
1.395e-13
2.22e-13
3.362e-13
4.862e-13
6.736e-13
8.974e-13
1.153e-12
1.434e-12
1.731e-12
2.035e-12
2.337e-12
2.629e-12
2.906e-12
3.164e-12
3.404e-12
3.626e-12
3.833e-12
4.029e-12
4.217e-12
4.405e-12
4.594e-12
4.793e-12
5.006e-12
5.236e-12
5.49e-12
5.772e-12
6.086e-12
6.44e-12
6.838e-12
7.286e-12
7.789e-12
8.356e-12
8.991e-12
9.705e-12
1.05e-11
1.14e-11
1.24e-11
1.352e-11
1.476e-11
1.615e-11
1.769e-11
1.94e-11
2.131e-11
2.342e-11
2.575e-11
2.833e-11
3.119e-11
3.433e-11
3.78e-11
4.161e-11
4.581e-11
5.041e-11
5.545e-11
6.096e-11
6.698e-11
7.355e-11
8.07e-11
8.847e-11
9.69e-11
1.06e-10
1.159e-10
1.301e-10
-3.793e-60
3.667e-59
-2.251e-58
1.07e-57
-4.036e-57
1.236e-56
-3.131e-56
6.611e-56
-1.159e-55
1.676e-55
-2.356e-55
9.412e-55
-8.563e-54
8.845e-53
-8.807e-52
8.649e-51
-8.288e-50
8.021e-49
-7.784e-48
7.581e-47
-7.404e-46
7.243e-45
-7.052e-44
6.835e-43
-6.573e-42
6.27e-41
-5.957e-40
5.678e-39
-5.382e-38
5.015e-37
-4.593e-36
4.133e-35
-3.629e-34
3.129e-33
-2.612e-32
2.104e-31
-1.633e-30
1.224e-29
-8.497e-29
5.629e-28
-3.48e-27
2.029e-26
-1.131e-25
5.965e-25
-2.975e-24
1.401e-23
-6.086e-23
2.604e-22
3.666e-23
7.808e-21
5.98e-20
4.899e-19
3.426e-18
1.605e-17
6.206e-17
2.171e-16
7.011e-16
2.097e-15
5.82e-15
1.499e-14
3.589e-14
7.993e-14
1.659e-13
3.214e-13
5.828e-13
9.921e-13
1.591e-12
2.412e-12
3.47e-12
4.755e-12
6.23e-12
7.838e-12
9.496e-12
1.113e-11
1.265e-11
1.399e-11
1.512e-11
1.601e-11
1.667e-11
1.714e-11
1.742e-11
1.758e-11
1.76e-11
1.757e-11
1.751e-11
1.744e-11
1.738e-11
1.737e-11
1.741e-11
1.751e-11
1.769e-11
1.796e-11
1.832e-11
1.88e-11
1.939e-11
2.011e-11
2.095e-11
2.195e-11
2.31e-11
2.441e-11
2.592e-11
2.762e-11
2.954e-11
3.169e-11
3.41e-11
3.68e-11
3.98e-11
4.314e-11
4.684e-11
5.093e-11
5.546e-11
6.046e-11
6.597e-11
7.203e-11
7.869e-11
8.601e-11
9.401e-11
1.028e-10
1.124e-10
1.228e-10
1.342e-10
1.465e-10
1.599e-10
1.745e-10
1.901e-10
2.071e-10
2.252e-10
2.521e-10
4.249e-59
-4.174e-58
2.726e-57
-1.432e-56
6.147e-56
-2.2e-55
6.665e-55
-1.721e-54
3.77e-54
-6.747e-54
8.216e-54
1.225e-53
-1.534e-52
1.329e-51
-1.101e-50
9.443e-50
-7.727e-49
6.834e-48
-6.229e-47
5.831e-46
-5.595e-45
5.445e-44
-5.251e-43
5.042e-42
-4.79e-41
4.492e-40
-4.174e-39
3.815e-38
-3.513e-37
3.159e-36
-2.812e-35
2.492e-34
-2.167e-33
1.901e-32
-1.623e-31
1.325e-30
-1.046e-29
7.939e-29
-5.686e-28
3.981e-27
-2.624e-26
1.674e-25
-1.018e-24
5.776e-24
-3.163e-23
1.618e-22
-7.123e-22
2.727e-21
2.809e-20
2.98e-19
2.467e-18
1.34e-17
6.067e-17
2.493e-16
9.437e-16
3.298e-15
1.064e-14
3.168e-14
8.709e-14
2.211e-13
5.188e-13
1.127e-12
2.268e-12
4.239e-12
7.382e-12
1.202e-11
1.837e-11
2.647e-11
3.608e-11
4.677e-11
5.783e-11
6.863e-11
7.825e-11
8.636e-11
9.22e-11
9.584e-11
9.76e-11
9.711e-11
9.551e-11
9.282e-11
8.934e-11
8.539e-11
8.126e-11
7.717e-11
7.328e-11
6.97e-11
6.649e-11
6.371e-11
6.137e-11
5.946e-11
5.798e-11
5.694e-11
5.627e-11
5.61e-11
5.63e-11
5.686e-11
5.781e-11
5.919e-11
6.097e-11
6.318e-11
6.583e-11
6.894e-11
7.254e-11
7.666e-11
8.133e-11
8.659e-11
9.25e-11
9.909e-11
1.064e-10
1.145e-10
1.235e-10
1.335e-10
1.444e-10
1.564e-10
1.696e-10
1.84e-10
1.997e-10
2.17e-10
2.357e-10
2.561e-10
2.783e-10
3.023e-10
3.282e-10
3.563e-10
3.865e-10
4.191e-10
4.535e-10
5.056e-10
-4.543e-58
4.508e-57
-3.092e-56
1.763e-55
-8.451e-55
3.462e-54
-1.228e-53
3.798e-53
-1.025e-52
2.386e-52
-4.666e-52
7.44e-52
-9.078e-52
2.157e-52
2.394e-50
-4.075e-49
4.878e-48
-4.421e-47
3.667e-46
-2.807e-45
1.778e-44
-9.291e-44
1.396e-43
3.958e-42
-7.116e-41
8.599e-40
-8.742e-39
6.302e-38
-5.362e-37
2.713e-36
-3.081e-36
-7.353e-35
1.214e-33
-1.088e-32
8.457e-32
-8.084e-31
5.028e-30
-2.635e-29
6.264e-29
5.701e-28
-1.233e-26
1.308e-25
-1.242e-24
8.867e-24
-6.505e-23
5.095e-22
-8.292e-22
1.061e-19
1.178e-18
7.648e-18
4.129e-17
2.022e-16
9.11e-16
3.78e-15
1.444e-14
5.067e-14
1.633e-13
4.835e-13
1.314e-12
3.28e-12
7.524e-12
1.589e-11
3.092e-11
5.56e-11
9.269e-11
1.439e-10
2.09e-10
2.852e-10
3.676e-10
4.5e-10
5.24e-10
5.864e-10
6.271e-10
6.527e-10
6.502e-10
6.371e-10
6.118e-10
5.768e-10
5.359e-10
4.924e-10
4.49e-10
4.073e-10
3.687e-10
3.338e-10
3.028e-10
2.758e-10
2.524e-10
2.325e-10
2.158e-10
2.018e-10
1.904e-10
1.812e-10
1.74e-10
1.686e-10
1.648e-10
1.624e-10
1.615e-10
1.62e-10
1.635e-10
1.662e-10
1.702e-10
1.753e-10
1.816e-10
1.892e-10
1.981e-10
2.082e-10
2.198e-10
2.328e-10
2.475e-10
2.638e-10
2.818e-10
3.018e-10
3.239e-10
3.481e-10
3.746e-10
4.037e-10
4.354e-10
4.699e-10
5.074e-10
5.482e-10
5.924e-10
6.401e-10
6.917e-10
7.472e-10
8.068e-10
8.709e-10
9.381e-10
1.041e-09
4.591e-57
-4.58e-56
3.267e-55
-1.995e-54
1.052e-53
-4.856e-53
1.983e-52
-7.214e-52
2.341e-51
-6.707e-51
1.652e-50
-3.316e-50
6.628e-50
-2.807e-49
2.791e-48
-3.069e-47
2.625e-46
-2.162e-45
1.708e-44
-1.321e-43
9.985e-43
-7.453e-42
4.964e-41
-3.198e-40
1.895e-39
-4.335e-39
-5.421e-38
5.791e-37
-8.758e-36
8.83e-35
-7.036e-34
5.408e-33
-3.645e-32
2.164e-31
-7.75e-31
-9.655e-31
5.952e-29
-8.062e-28
8.175e-27
-7.139e-26
5.591e-25
-4.097e-24
2.682e-23
-1.738e-22
1.115e-21
-3.183e-21
2.137e-19
2.579e-18
1.831e-17
1.093e-16
5.93e-16
2.957e-15
1.355e-14
5.693e-14
2.191e-13
7.711e-13
2.479e-12
7.28e-12
1.951e-11
4.776e-11
1.068e-10
2.186e-10
4.1e-10
7.066e-10
1.123e-09
1.657e-09
2.28e-09
2.94e-09
3.576e-09
4.129e-09
4.514e-09
4.767e-09
4.746e-09
4.625e-09
4.385e-09
4.054e-09
3.671e-09
3.269e-09
2.874e-09
2.504e-09
2.168e-09
1.873e-09
1.617e-09
1.4e-09
1.217e-09
1.064e-09
9.37e-10
8.323e-10
7.463e-10
6.758e-10
6.184e-10
5.718e-10
5.344e-10
5.048e-10
4.817e-10
4.644e-10
4.52e-10
4.443e-10
4.398e-10
4.405e-10
4.437e-10
4.501e-10
4.597e-10
4.724e-10
4.883e-10
5.074e-10
5.296e-10
5.553e-10
5.844e-10
6.171e-10
6.536e-10
6.942e-10
7.391e-10
7.885e-10
8.426e-10
9.019e-10
9.666e-10
1.037e-09
1.113e-09
1.196e-09
1.286e-09
1.382e-09
1.486e-09
1.598e-09
1.718e-09
1.847e-09
1.98e-09
2.188e-09
-4.312e-56
4.308e-55
-3.169e-54
2.053e-53
-1.177e-52
6.038e-52
-2.802e-51
1.185e-50
-4.576e-50
1.605e-49
-4.975e-49
1.253e-48
-8.674e-49
-1.08e-47
1.013e-46
-7.798e-46
4.558e-45
-2.865e-44
1.937e-43
-1.473e-42
1.227e-41
-1.135e-40
8.797e-40
-8.475e-39
7.38e-38
-5.869e-37
3.961e-36
-4.172e-35
1.81e-34
-8.14e-34
1.717e-33
2.365e-32
-4.607e-31
5.477e-30
-5.414e-29
4.798e-28
-3.926e-27
3.01e-26
-2.177e-25
1.493e-24
-9.745e-24
6.008e-23
-3.574e-22
2.104e-21
-7.483e-21
3.634e-19
4.805e-18
3.746e-17
2.479e-16
1.496e-15
8.29e-15
4.216e-14
1.962e-13
8.336e-13
3.227e-12
1.136e-11
3.635e-11
1.056e-10
2.783e-10
6.659e-10
1.447e-09
2.859e-09
5.149e-09
8.47e-09
1.279e-08
1.786e-08
2.321e-08
2.82e-08
3.239e-08
3.516e-08
3.595e-08
3.527e-08
3.35e-08
3.08e-08
2.752e-08
2.402e-08
2.056e-08
1.735e-08
1.448e-08
1.2e-08
9.904e-09
8.172e-09
6.757e-09
5.611e-09
4.69e-09
3.952e-09
3.361e-09
2.888e-09
2.511e-09
2.208e-09
1.965e-09
1.771e-09
1.615e-09
1.491e-09
1.393e-09
1.316e-09
1.257e-09
1.214e-09
1.183e-09
1.164e-09
1.155e-09
1.157e-09
1.167e-09
1.185e-09
1.211e-09
1.244e-09
1.286e-09
1.335e-09
1.392e-09
1.458e-09
1.531e-09
1.614e-09
1.706e-09
1.807e-09
1.918e-09
2.04e-09
2.174e-09
2.319e-09
2.476e-09
2.646e-09
2.83e-09
3.028e-09
3.241e-09
3.469e-09
3.713e-09
3.974e-09
4.244e-09
4.667e-09
3.666e-55
-3.653e-54
2.753e-53
-1.873e-52
1.154e-51
-6.508e-51
3.389e-50
-1.644e-49
7.485e-49
-3.21e-48
1.293e-47
-4.823e-47
1.588e-46
-3.89e-46
-4.937e-46
1.321e-44
-1.215e-43
9.817e-43
-7.32e-42
5.212e-41
-3.603e-40
2.245e-39
-1.902e-38
9.354e-38
-2.314e-37
-1.013e-36
2.874e-35
-3.781e-34
4.023e-33
-3.84e-32
3.412e-31
-2.869e-30
2.304e-29
-1.776e-28
1.317e-27
-9.414e-27
6.485e-26
-4.305e-25
2.756e-24
-1.697e-23
1.007e-22
-5.71e-22
3.261e-21
-1.271e-20
5.133e-19
7.453e-18
6.393e-17
4.701e-16
3.161e-15
1.954e-14
1.108e-13
5.736e-13
2.706e-12
1.159e-11
4.502e-11
1.582e-10
5.02e-10
1.438e-09
3.714e-09
8.652e-09
1.819e-08
3.457e-08
5.949e-08
9.298e-08
1.328e-07
1.75e-07
2.141e-07
2.449e-07
2.67e-07
2.659e-07
2.572e-07
2.392e-07
2.144e-07
1.861e-07
1.572e-07
1.3e-07
1.056e-07
8.478e-08
6.744e-08
5.339e-08
4.221e-08
3.341e-08
2.657e-08
2.126e-08
1.716e-08
1.399e-08
1.153e-08
9.628e-09
8.141e-09
6.978e-09
6.063e-09
5.341e-09
4.769e-09
4.316e-09
3.956e-09
3.673e-09
3.451e-09
3.279e-09
3.15e-09
3.057e-09
2.997e-09
2.955e-09
2.955e-09
2.968e-09
3.001e-09
3.054e-09
3.127e-09
3.219e-09
3.329e-09
3.458e-09
3.606e-09
3.774e-09
3.961e-09
4.17e-09
4.4e-09
4.652e-09
4.928e-09
5.228e-09
5.554e-09
5.906e-09
6.287e-09
6.696e-09
7.135e-09
7.605e-09
8.107e-09
8.643e-09
9.194e-09
1.006e-08
-2.714e-54
2.688e-53
-2.061e-52
1.46e-51
-9.557e-51
5.834e-50
-3.349e-49
1.825e-48
-9.533e-48
4.813e-47
-2.369e-46
1.146e-45
-5.495e-45
2.632e-44
-1.273e-43
6.306e-43
-3.262e-42
1.808e-41
-1.1e-40
7.457e-40
-5.579e-39
4.497e-38
-3.8e-37
3.305e-36
-2.836e-35
2.336e-34
-1.877e-33
1.473e-32
-1.131e-31
8.495e-31
-6.242e-30
4.486e-29
-3.15e-28
2.16e-27
-1.445e-26
9.417e-26
-5.972e-25
3.682e-24
-2.2e-23
1.28e-22
-7.106e-22
4.042e-21
-1.635e-20
5.925e-19
9.452e-18
8.925e-17
7.295e-16
5.474e-15
3.78e-14
2.394e-13
1.384e-12
7.277e-12
3.468e-11
1.494e-10
5.799e-10
2.025e-09
6.35e-09
1.785e-08
4.497e-08
1.015e-07
2.055e-07
3.734e-07
6.11e-07
9.031e-07
1.215e-06
1.506e-06
1.733e-06
1.883e-06
1.866e-06
1.784e-06
1.632e-06
1.434e-06
1.216e-06
1e-06
8.032e-07
6.323e-07
4.904e-07
3.763e-07
2.869e-07
2.181e-07
1.659e-07
1.267e-07
9.736e-08
7.544e-08
5.907e-08
4.681e-08
3.758e-08
3.059e-08
2.527e-08
2.119e-08
1.804e-08
1.558e-08
1.366e-08
1.216e-08
1.097e-08
1.003e-08
9.292e-09
8.713e-09
8.267e-09
7.928e-09
7.682e-09
7.513e-09
7.411e-09
7.377e-09
7.401e-09
7.469e-09
7.584e-09
7.746e-09
7.952e-09
8.203e-09
8.497e-09
8.836e-09
9.218e-09
9.647e-09
1.012e-08
1.064e-08
1.122e-08
1.184e-08
1.252e-08
1.325e-08
1.404e-08
1.489e-08
1.581e-08
1.678e-08
1.782e-08
1.893e-08
2.006e-08
2.185e-08
1.664e-53
-1.635e-52
1.269e-51
-9.261e-51
6.356e-50
-4.127e-49
2.555e-48
-1.519e-47
8.758e-47
-4.935e-46
2.741e-45
-1.515e-44
8.392e-44
-4.7e-43
2.681e-42
-1.567e-41
9.427e-41
-5.857e-40
3.76e-39
-2.492e-38
1.702e-37
-1.195e-36
8.582e-36
-6.305e-35
4.618e-34
-3.335e-33
2.383e-32
-1.684e-31
1.174e-30
-8.081e-30
5.479e-29
-3.656e-28
2.398e-27
-1.544e-26
9.749e-26
-6.026e-25
3.643e-24
-2.148e-23
1.242e-22
-6.878e-22
3.943e-21
-1.619e-20
5.52e-19
9.661e-18
1.003e-16
9.102e-16
7.614e-15
5.872e-14
4.157e-13
2.687e-12
1.579e-11
8.397e-11
4.026e-10
1.735e-09
6.698e-09
2.311e-08
7.115e-08
1.95e-07
4.758e-07
1.034e-06
2.002e-06
3.459e-06
5.352e-06
7.447e-06
9.409e-06
1.097e-05
1.2e-05
1.187e-05
1.129e-05
1.024e-05
8.881e-06
7.41e-06
5.983e-06
4.699e-06
3.609e-06
2.724e-06
2.03e-06
1.499e-06
1.103e-06
8.102e-07
5.969e-07
4.421e-07
3.301e-07
2.491e-07
1.902e-07
1.472e-07
1.156e-07
9.219e-08
7.47e-08
6.151e-08
5.148e-08
4.378e-08
3.783e-08
3.319e-08
2.955e-08
2.669e-08
2.444e-08
2.267e-08
2.129e-08
2.022e-08
1.941e-08
1.881e-08
1.841e-08
1.816e-08
1.807e-08
1.812e-08
1.828e-08
1.854e-08
1.891e-08
1.939e-08
1.997e-08
2.065e-08
2.142e-08
2.23e-08
2.328e-08
2.437e-08
2.556e-08
2.686e-08
2.827e-08
2.98e-08
3.145e-08
3.322e-08
3.511e-08
3.714e-08
3.93e-08
4.16e-08
4.393e-08
4.765e-08
-8.057e-53
7.853e-52
-6.137e-51
4.577e-50
-3.25e-49
2.207e-48
-1.441e-47
9.101e-47
-5.599e-46
3.377e-45
-2.01e-44
1.187e-43
-6.997e-43
4.136e-42
-2.463e-41
1.484e-40
-9.083e-40
5.661e-39
-3.6e-38
2.337e-37
-1.549e-36
1.046e-35
-7.173e-35
4.999e-34
-3.453e-33
2.357e-32
-1.594e-31
1.067e-30
-7.069e-30
4.63e-29
-2.996e-28
1.913e-27
-1.205e-26
7.474e-26
-4.562e-25
2.736e-24
-1.61e-23
9.331e-23
-5.173e-22
3.008e-21
-1.244e-20
4.112e-19
7.872e-18
8.958e-17
9.004e-16
8.375e-15
7.201e-14
5.692e-13
4.114e-12
2.703e-11
1.606e-10
8.591e-10
4.118e-09
1.762e-08
6.713e-08
2.27e-07
6.794e-07
1.797e-06
4.206e-06
8.713e-06
1.6e-05
2.61e-05
3.801e-05
4.963e-05
5.888e-05
6.575e-05
6.528e-05
6.225e-05
5.643e-05
4.878e-05
4.044e-05
3.234e-05
2.51e-05
1.899e-05
1.408e-05
1.028e-05
7.419e-06
5.318e-06
3.801e-06
2.718e-06
1.952e-06
1.412e-06
1.031e-06
7.613e-07
5.699e-07
4.331e-07
3.343e-07
2.624e-07
2.094e-07
1.701e-07
1.405e-07
1.18e-07
1.008e-07
8.75e-08
7.713e-08
6.901e-08
6.262e-08
5.758e-08
5.362e-08
5.053e-08
4.815e-08
4.635e-08
4.505e-08
4.417e-08
4.364e-08
4.348e-08
4.363e-08
4.401e-08
4.465e-08
4.554e-08
4.666e-08
4.8e-08
4.957e-08
5.137e-08
5.339e-08
5.563e-08
5.81e-08
6.081e-08
6.376e-08
6.695e-08
7.039e-08
7.408e-08
7.804e-08
8.226e-08
8.674e-08
9.152e-08
9.635e-08
1.041e-07
2.987e-52
-2.891e-51
2.269e-50
-1.717e-49
1.248e-48
-8.734e-48
5.914e-47
-3.894e-46
2.507e-45
-1.588e-44
9.954e-44
-6.205e-43
3.863e-42
-2.409e-41
1.507e-40
-9.469e-40
5.975e-39
-3.786e-38
2.408e-37
-1.538e-36
9.864e-36
-6.355e-35
4.117e-34
-2.688e-33
1.743e-32
-1.124e-31
7.213e-31
-4.599e-30
2.912e-29
-1.829e-28
1.139e-27
-7.029e-27
4.29e-26
-2.588e-25
1.541e-24
-9.047e-24
5.242e-23
-2.939e-22
1.796e-21
-7.473e-21
2.434e-19
5.078e-18
6.313e-17
6.998e-16
7.21e-15
6.888e-14
6.065e-13
4.891e-12
3.59e-11
2.384e-10
1.423e-09
7.596e-09
3.608e-08
1.519e-07
5.643e-07
1.846e-06
5.297e-06
1.334e-05
2.953e-05
5.755e-05
9.912e-05
0.0001515
0.0002071
0.0002533
0.0002894
0.0002943
0.0002837
0.0002597
0.0002261
0.0001885
0.0001512
0.0001174
8.858e-05
6.532e-05
4.727e-05
3.371e-05
2.38e-05
1.67e-05
1.17e-05
8.204e-06
5.784e-06
4.111e-06
2.953e-06
2.148e-06
1.586e-06
1.189e-06
9.069e-07
7.037e-07
5.558e-07
4.469e-07
3.658e-07
3.047e-07
2.581e-07
2.223e-07
1.946e-07
1.729e-07
1.558e-07
1.424e-07
1.318e-07
1.235e-07
1.17e-07
1.121e-07
1.084e-07
1.057e-07
1.04e-07
1.029e-07
1.029e-07
1.034e-07
1.044e-07
1.06e-07
1.081e-07
1.108e-07
1.14e-07
1.176e-07
1.218e-07
1.264e-07
1.315e-07
1.372e-07
1.433e-07
1.5e-07
1.571e-07
1.648e-07
1.731e-07
1.819e-07
1.912e-07
2.011e-07
2.111e-07
2.271e-07
-8.35e-52
8.138e-51
-6.433e-50
4.914e-49
-3.612e-48
2.558e-47
-1.746e-46
1.151e-45
-7.346e-45
4.547e-44
-2.739e-43
1.611e-42
-9.301e-42
5.3e-41
-3.003e-40
1.708e-39
-9.859e-39
5.84e-38
-3.583e-37
2.288e-36
-1.519e-35
1.041e-34
-7.302e-34
5.209e-33
-3.65e-32
2.507e-31
-1.693e-30
1.126e-29
-7.38e-29
4.773e-28
-3.047e-27
1.921e-26
-1.196e-25
7.351e-25
-4.462e-24
2.676e-23
-1.574e-22
9.599e-22
-3.538e-21
1.129e-19
2.581e-18
3.498e-17
4.255e-16
4.832e-15
5.106e-14
4.989e-13
4.477e-12
3.664e-11
2.715e-10
1.809e-09
1.076e-08
5.676e-08
2.642e-07
1.079e-06
3.854e-06
1.198e-05
3.239e-05
7.63e-05
0.0001572
0.0002833
0.0004523
0.0006455
0.0008249
0.0009622
0.001032
0.001009
0.0009419
0.0008364
0.0007106
0.0005806
0.000458
0.0003504
0.0002611
0.0001902
0.000136
9.581e-05
6.683e-05
4.634e-05
3.208e-05
2.224e-05
1.551e-05
1.091e-05
7.759e-06
5.593e-06
4.093e-06
3.045e-06
2.305e-06
1.776e-06
1.394e-06
1.115e-06
9.073e-07
7.518e-07
6.339e-07
5.436e-07
4.736e-07
4.191e-07
3.763e-07
3.425e-07
3.158e-07
2.948e-07
2.783e-07
2.655e-07
2.558e-07
2.486e-07
2.436e-07
2.406e-07
2.391e-07
2.396e-07
2.412e-07
2.441e-07
2.482e-07
2.534e-07
2.598e-07
2.672e-07
2.757e-07
2.853e-07
2.959e-07
3.076e-07
3.204e-07
3.343e-07
3.492e-07
3.652e-07
3.824e-07
4.007e-07
4.201e-07
4.407e-07
4.614e-07
4.946e-07
2.711e-51
-2.46e-50
1.878e-49
-1.442e-48
1.103e-47
-8.364e-47
6.262e-46
-4.613e-45
3.337e-44
-2.369e-43
1.65e-42
-1.128e-41
7.583e-41
-5.019e-40
3.277e-39
-2.113e-38
1.349e-37
-8.529e-37
5.351e-36
-3.334e-35
2.065e-34
-1.272e-33
7.793e-33
-4.751e-32
2.876e-31
-1.731e-30
1.035e-29
-6.158e-29
3.641e-28
-2.141e-27
1.251e-26
-7.275e-26
4.205e-25
-2.416e-24
1.381e-23
-7.824e-23
4.535e-22
-1.996e-21
3.129e-20
1.006e-18
1.521e-17
2.026e-16
2.521e-15
2.93e-14
3.162e-13
3.145e-12
2.862e-11
2.363e-10
1.756e-09
1.164e-08
6.834e-08
3.525e-07
1.586e-06
6.192e-06
2.087e-05
6.052e-05
0.0001511
0.0003271
0.0006153
0.00101
0.001484
0.001982
0.002375
0.002669
0.002665
0.002566
0.002353
0.002064
0.001744
0.001423
0.001123
0.0008611
0.0006428
0.0004689
0.0003354
0.0002362
0.0001645
0.0001138
7.848e-05
5.423e-05
3.767e-05
2.639e-05
1.87e-05
1.343e-05
9.8e-06
7.27e-06
5.489e-06
4.221e-06
3.306e-06
2.638e-06
2.144e-06
1.773e-06
1.493e-06
1.278e-06
1.112e-06
9.824e-07
8.806e-07
8.002e-07
7.366e-07
6.863e-07
6.466e-07
6.156e-07
5.918e-07
5.74e-07
5.612e-07
5.531e-07
5.476e-07
5.479e-07
5.503e-07
5.554e-07
5.631e-07
5.735e-07
5.863e-07
6.014e-07
6.189e-07
6.387e-07
6.607e-07
6.85e-07
7.116e-07
7.404e-07
7.714e-07
8.048e-07
8.404e-07
8.784e-07
9.186e-07
9.614e-07
1.004e-06
1.073e-06
7.564e-51
-7.409e-50
5.936e-49
-4.635e-48
3.508e-47
-2.575e-46
1.835e-45
-1.271e-44
8.579e-44
-5.653e-43
3.647e-42
-2.312e-41
1.445e-40
-8.941e-40
5.495e-39
-3.368e-38
2.066e-37
-1.272e-36
7.878e-36
-4.917e-35
3.095e-34
-1.965e-33
1.257e-32
-8.086e-32
5.187e-31
-3.297e-30
2.079e-29
-1.302e-28
8.096e-28
-5.006e-27
3.078e-26
-1.883e-25
1.147e-24
-6.952e-24
4.2e-23
-2.514e-22
1.577e-21
-5.76e-21
1.987e-19
5.035e-18
7.571e-17
1.028e-15
1.307e-14
1.549e-13
1.7e-12
1.713e-11
1.572e-10
1.302e-09
9.634e-09
6.308e-08
3.62e-07
1.803e-06
7.735e-06
2.836e-05
8.851e-05
0.0002348
0.0005327
0.001044
0.001764
0.002638
0.003552
0.004532
0.005155
0.005303
0.005206
0.004946
0.004524
0.003986
0.003401
0.002816
0.002259
0.00176
0.001334
0.0009866
0.000714
0.0005077
0.0003563
0.0002479
0.0001719
0.0001192
8.305e-05
5.834e-05
4.143e-05
2.983e-05
2.181e-05
1.621e-05
1.226e-05
9.449e-06
7.416e-06
5.929e-06
4.827e-06
4e-06
3.373e-06
2.891e-06
2.518e-06
2.227e-06
1.997e-06
1.816e-06
1.672e-06
1.558e-06
1.467e-06
1.396e-06
1.341e-06
1.3e-06
1.269e-06
1.249e-06
1.236e-06
1.234e-06
1.237e-06
1.247e-06
1.262e-06
1.283e-06
1.309e-06
1.34e-06
1.376e-06
1.417e-06
1.462e-06
1.513e-06
1.568e-06
1.628e-06
1.692e-06
1.761e-06
1.835e-06
1.914e-06
1.997e-06
2.085e-06
2.173e-06
2.315e-06
-1.823e-50
1.656e-49
-1.264e-48
9.682e-48
-7.377e-47
5.57e-46
-4.155e-45
3.054e-44
-2.209e-43
1.571e-42
-1.097e-41
7.532e-41
-5.081e-40
3.372e-39
-2.203e-38
1.418e-37
-9.005e-37
5.647e-36
-3.501e-35
2.147e-34
-1.305e-33
7.857e-33
-4.694e-32
2.782e-31
-1.637e-30
9.583e-30
-5.588e-29
3.248e-28
-1.882e-27
1.088e-26
-6.285e-26
3.625e-25
-2.089e-24
1.205e-23
-6.935e-23
4.094e-22
-1.826e-21
3.981e-20
1.356e-18
2.245e-17
3.305e-16
4.564e-15
5.906e-14
7.112e-13
7.905e-12
8.038e-11
7.405e-10
6.116e-09
4.478e-08
2.873e-07
1.596e-06
7.593e-06
3.06e-05
0.0001037
0.0002945
0.000704
0.001438
0.002525
0.003801
0.005381
0.006551
0.008424
0.01018
0.01033
0.01025
0.009728
0.007751
0.006404
0.005502
0.004685
0.003851
0.003072
0.002383
0.0018
0.001329
0.0009614
0.0006851
0.0004831
0.0003388
0.0002374
0.0001669
0.0001182
8.465e-05
6.139e-05
4.52e-05
3.382e-05
2.576e-05
1.997e-05
1.576e-05
1.267e-05
1.037e-05
8.635e-06
7.314e-06
6.295e-06
5.503e-06
4.882e-06
4.392e-06
4.003e-06
3.693e-06
3.446e-06
3.251e-06
3.096e-06
2.977e-06
2.886e-06
2.819e-06
2.774e-06
2.745e-06
2.736e-06
2.743e-06
2.761e-06
2.791e-06
2.833e-06
2.887e-06
2.951e-06
3.026e-06
3.111e-06
3.206e-06
3.31e-06
3.425e-06
3.549e-06
3.682e-06
3.825e-06
3.978e-06
4.14e-06
4.312e-06
4.493e-06
4.674e-06
4.964e-06
-5.305e-50
4.976e-49
-3.888e-48
3.023e-47
-2.319e-46
1.751e-45
-1.299e-44
9.455e-44
-6.752e-43
4.73e-42
-3.252e-41
2.196e-40
-1.458e-39
9.529e-39
-6.139e-38
3.904e-37
-2.453e-36
1.526e-35
-9.404e-35
5.75e-34
-3.491e-33
2.108e-32
-1.266e-31
7.574e-31
-4.516e-30
2.682e-29
-1.589e-28
9.39e-28
-5.544e-27
3.273e-26
-1.934e-25
1.145e-24
-6.793e-24
4.048e-23
-2.417e-22
1.499e-21
-6.804e-21
1.479e-19
5.03e-18
8.424e-17
1.26e-15
1.769e-14
2.323e-13
2.833e-12
3.178e-11
3.249e-10
2.992e-09
2.454e-08
1.768e-07
1.104e-06
5.889e-06
2.647e-05
9.9e-05
0.0003055
0.0007787
0.001664
0.003073
0.004798
0.006552
0.00979
0.0105
0.009984
0.01097
0.01262
0.01112
0.01246
0.009986
0.01045
0.009705
0.007287
0.005873
0.004766
0.00378
0.002921
0.002203
0.001628
0.001183
0.0008495
0.0006058
0.0004311
0.0003076
0.0002208
0.0001601
0.0001176
8.755e-05
6.625e-05
5.098e-05
3.992e-05
3.182e-05
2.581e-05
2.13e-05
1.787e-05
1.525e-05
1.321e-05
1.162e-05
1.036e-05
9.369e-06
8.576e-06
7.943e-06
7.438e-06
7.035e-06
6.718e-06
6.47e-06
6.283e-06
6.145e-06
6.052e-06
5.992e-06
5.975e-06
5.99e-06
6.028e-06
6.092e-06
6.181e-06
6.293e-06
6.428e-06
6.584e-06
6.761e-06
6.958e-06
7.175e-06
7.412e-06
7.668e-06
7.944e-06
8.238e-06
8.552e-06
8.884e-06
9.234e-06
9.604e-06
9.969e-06
1.056e-05
-7.408e-50
7.225e-49
-5.821e-48
4.612e-47
-3.57e-46
2.698e-45
-1.99e-44
1.433e-43
-1.009e-42
6.948e-42
-4.693e-41
3.114e-40
-2.034e-39
1.311e-38
-8.351e-38
5.271e-37
-3.303e-36
2.058e-35
-1.278e-34
7.915e-34
-4.899e-33
3.034e-32
-1.882e-31
1.167e-30
-7.217e-30
4.446e-29
-2.733e-28
1.679e-27
-1.031e-26
6.342e-26
-3.911e-25
2.421e-24
-1.506e-23
9.441e-23
-5.93e-22
3.967e-21
-1.528e-20
5.941e-19
1.674e-17
2.782e-16
4.213e-15
5.993e-14
7.965e-13
9.805e-12
1.107e-10
1.134e-09
1.041e-08
8.45e-08
5.966e-07
3.607e-06
1.835e-05
7.725e-05
0.0002653
0.0007374
0.001673
0.003202
0.005477
0.007616
0.01006
0.01092
0.0137
0.0101
0.01001
0.00999
0.01
0.01018
0.009977
0.01087
0.01249
0.01021
0.009182
0.006961
0.005532
0.004337
0.003331
0.00251
0.001861
0.001364
0.0009922
0.0007197
0.000523
0.0003823
0.0002819
0.0002104
0.0001592
0.0001223
9.545e-05
7.577e-05
6.117e-05
5.021e-05
4.191e-05
3.555e-05
3.062e-05
2.677e-05
2.374e-05
2.134e-05
1.942e-05
1.788e-05
1.665e-05
1.567e-05
1.488e-05
1.427e-05
1.378e-05