/*--------------------------------*- C++ -*----------------------------------*\
  =========                 |
  \\      /  F ield         | OpenFOAM: The Open Source CFD Toolbox
   \\    /   O peration     | Website:  https://openfoam.org
    \\  /    A nd           | Version:  7
     \\/     M anipulation  |
\*---------------------------------------------------------------------------*/
FoamFile
{
    version     2.0;
    format      ascii;
    class       volScalarField;
    location    "479.999473411093675";
    object      p;
}
// * * * * * * * * * * * * * * * * * * * * * * * * * * * * * * * * * * * * * //

dimensions      [0 2 -2 0 0 0 0];

internalField   nonuniform List<scalar> 
4096
(
0.0006639
0.000493
0.0004088
0.0003666
0.0003433
0.0003294
0.0003205
0.0003144
0.0003101
0.0003068
0.0003043
0.0003023
0.0003006
0.0002993
0.0002981
0.0002971
0.0002962
0.0002954
0.0002947
0.0002941
0.0002934
0.0002929
0.0002923
0.0002918
0.0002913
0.0002908
0.0002903
0.0002898
0.0002893
0.0002887
0.0002882
0.0002876
0.000287
0.0002864
0.0002857
0.0002849
0.0002841
0.0002832
0.0002821
0.000281
0.0002797
0.0002782
0.0002765
0.0002746
0.0002725
0.0002701
0.0002673
0.0002643
0.0002608
0.0002569
0.0002526
0.0002479
0.0002427
0.0002369
0.0002307
0.000224
0.0002168
0.0002092
0.0002011
0.0001926
0.0001838
0.0001748
0.0001655
0.0001561
0.0001467
0.0001374
0.0001282
0.0001192
0.0001105
0.0001022
9.421e-05
8.667e-05
7.958e-05
7.296e-05
6.68e-05
6.112e-05
5.591e-05
5.115e-05
4.683e-05
4.292e-05
3.941e-05
3.626e-05
3.345e-05
3.095e-05
2.873e-05
2.676e-05
2.501e-05
2.347e-05
2.21e-05
2.088e-05
1.979e-05
1.881e-05
1.793e-05
1.714e-05
1.641e-05
1.573e-05
1.511e-05
1.452e-05
1.396e-05
1.343e-05
1.292e-05
1.242e-05
1.193e-05
1.145e-05
1.098e-05
1.051e-05
1.005e-05
9.582e-06
9.117e-06
8.65e-06
8.182e-06
7.712e-06
7.238e-06
6.762e-06
6.282e-06
5.799e-06
5.312e-06
4.821e-06
4.327e-06
3.828e-06
3.326e-06
2.822e-06
2.316e-06
1.811e-06
1.311e-06
8.246e-07
3.683e-07
4.123e-08
0.0005194
0.0004557
0.0004059
0.0003739
0.000353
0.0003387
0.0003287
0.0003213
0.0003159
0.0003117
0.0003083
0.0003057
0.0003035
0.0003017
0.0003001
0.0002988
0.0002976
0.0002966
0.0002957
0.0002948
0.000294
0.0002933
0.0002926
0.0002919
0.0002913
0.0002906
0.00029
0.0002894
0.0002887
0.0002881
0.0002874
0.0002867
0.0002859
0.0002851
0.0002843
0.0002834
0.0002824
0.0002813
0.0002801
0.0002788
0.0002773
0.0002756
0.0002738
0.0002718
0.0002695
0.0002669
0.000264
0.0002608
0.0002573
0.0002534
0.000249
0.0002443
0.0002391
0.0002335
0.0002274
0.0002209
0.0002139
0.0002065
0.0001988
0.0001906
0.0001822
0.0001736
0.0001648
0.0001559
0.000147
0.0001381
0.0001293
0.0001208
0.0001125
0.0001045
9.682e-05
8.954e-05
8.267e-05
7.622e-05
7.02e-05
6.461e-05
5.944e-05
5.47e-05
5.035e-05
4.64e-05
4.281e-05
3.957e-05
3.664e-05
3.401e-05
3.165e-05
2.954e-05
2.764e-05
2.594e-05
2.442e-05
2.305e-05
2.181e-05
2.069e-05
1.967e-05
1.874e-05
1.788e-05
1.708e-05
1.634e-05
1.565e-05
1.499e-05
1.437e-05
1.377e-05
1.319e-05
1.263e-05
1.208e-05
1.155e-05
1.102e-05
1.051e-05
9.993e-06
9.485e-06
8.98e-06
8.477e-06
7.975e-06
7.473e-06
6.972e-06
6.47e-06
5.967e-06
5.462e-06
4.957e-06
4.449e-06
3.941e-06
3.431e-06
2.92e-06
2.411e-06
1.903e-06
1.401e-06
9.104e-07
4.396e-07
7.073e-08
0.0004359
0.0004143
0.0003888
0.0003681
0.0003526
0.0003409
0.0003319
0.0003249
0.0003193
0.0003149
0.0003112
0.0003083
0.0003058
0.0003036
0.0003018
0.0003003
0.0002989
0.0002977
0.0002965
0.0002955
0.0002946
0.0002937
0.0002928
0.000292
0.0002913
0.0002905
0.0002897
0.000289
0.0002882
0.0002874
0.0002866
0.0002858
0.0002849
0.000284
0.000283
0.0002819
0.0002808
0.0002795
0.0002782
0.0002767
0.0002751
0.0002733
0.0002713
0.0002691
0.0002667
0.000264
0.000261
0.0002577
0.0002541
0.0002501
0.0002458
0.0002411
0.0002359
0.0002304
0.0002245
0.0002181
0.0002113
0.0002042
0.0001967
0.0001889
0.0001809
0.0001726
0.0001642
0.0001557
0.0001471
0.0001386
0.0001303
0.0001221
0.0001141
0.0001064
9.907e-05
9.204e-05
8.537e-05
7.909e-05
7.319e-05
6.769e-05
6.259e-05
5.787e-05
5.352e-05
4.954e-05
4.59e-05
4.258e-05
3.957e-05
3.683e-05
3.436e-05
3.212e-05
3.01e-05
2.827e-05
2.661e-05
2.51e-05
2.373e-05
2.248e-05
2.133e-05
2.028e-05
1.93e-05
1.84e-05
1.755e-05
1.675e-05
1.6e-05
1.529e-05
1.461e-05
1.395e-05
1.332e-05
1.271e-05
1.212e-05
1.154e-05
1.097e-05
1.041e-05
9.858e-06
9.315e-06
8.777e-06
8.244e-06
7.714e-06
7.187e-06
6.663e-06
6.14e-06
5.618e-06
5.097e-06
4.576e-06
4.056e-06
3.536e-06
3.018e-06
2.5e-06
1.986e-06
1.475e-06
9.71e-07
4.771e-07
7.542e-08
0.0003912
0.0003841
0.0003708
0.0003577
0.0003468
0.000338
0.0003309
0.000325
0.0003201
0.000316
0.0003126
0.0003096
0.0003071
0.0003049
0.0003029
0.0003013
0.0002997
0.0002984
0.0002972
0.000296
0.000295
0.000294
0.000293
0.0002921
0.0002912
0.0002903
0.0002895
0.0002886
0.0002877
0.0002868
0.0002859
0.000285
0.000284
0.0002829
0.0002818
0.0002806
0.0002794
0.000278
0.0002765
0.0002749
0.0002732
0.0002713
0.0002692
0.0002669
0.0002644
0.0002616
0.0002585
0.0002552
0.0002515
0.0002476
0.0002432
0.0002385
0.0002334
0.000228
0.0002221
0.0002159
0.0002093
0.0002024
0.0001951
0.0001876
0.0001798
0.0001718
0.0001637
0.0001555
0.0001472
0.0001391
0.000131
0.0001231
0.0001154
0.0001079
0.0001008
9.396e-05
8.747e-05
8.133e-05
7.555e-05
7.014e-05
6.509e-05
6.04e-05
5.607e-05
5.208e-05
4.841e-05
4.505e-05
4.198e-05
3.917e-05
3.662e-05
3.429e-05
3.217e-05
3.024e-05
2.848e-05
2.687e-05
2.539e-05
2.404e-05
2.279e-05
2.163e-05
2.056e-05
1.956e-05
1.862e-05
1.774e-05
1.691e-05
1.612e-05
1.537e-05
1.465e-05
1.395e-05
1.328e-05
1.264e-05
1.201e-05
1.139e-05
1.079e-05
1.02e-05
9.627e-06
9.057e-06
8.496e-06
7.94e-06
7.39e-06
6.845e-06
6.303e-06
5.765e-06
5.229e-06
4.695e-06
4.164e-06
3.633e-06
3.105e-06
2.578e-06
2.053e-06
1.53e-06
1.01e-06
4.942e-07
7.159e-08
0.0003643
0.0003633
0.0003564
0.0003478
0.00034
0.0003334
0.0003279
0.0003232
0.0003192
0.0003157
0.0003126
0.0003099
0.0003075
0.0003054
0.0003035
0.0003018
0.0003002
0.0002988
0.0002975
0.0002963
0.0002952
0.0002941
0.0002931
0.0002921
0.0002911
0.0002902
0.0002892
0.0002883
0.0002873
0.0002863
0.0002853
0.0002843
0.0002832
0.000282
0.0002808
0.0002796
0.0002782
0.0002767
0.0002752
0.0002735
0.0002716
0.0002696
0.0002675
0.0002651
0.0002625
0.0002597
0.0002566
0.0002532
0.0002495
0.0002455
0.0002412
0.0002366
0.0002315
0.0002261
0.0002204
0.0002143
0.0002078
0.000201
0.0001939
0.0001866
0.000179
0.0001712
0.0001633
0.0001553
0.0001473
0.0001393
0.0001315
0.0001238
0.0001163
0.000109
0.0001021
9.541e-05
8.905e-05
8.303e-05
7.735e-05
7.201e-05
6.702e-05
6.237e-05
5.806e-05
5.407e-05
5.039e-05
4.701e-05
4.39e-05
4.106e-05
3.845e-05
3.606e-05
3.387e-05
3.187e-05
3.003e-05
2.834e-05
2.679e-05
2.535e-05
2.402e-05
2.279e-05
2.164e-05
2.056e-05
1.955e-05
1.86e-05
1.77e-05
1.685e-05
1.603e-05
1.526e-05
1.451e-05
1.379e-05
1.31e-05
1.243e-05
1.177e-05
1.114e-05
1.052e-05
9.907e-06
9.31e-06
8.723e-06
8.145e-06
7.574e-06
7.01e-06
6.452e-06
5.898e-06
5.349e-06
4.803e-06
4.26e-06
3.719e-06
3.181e-06
2.644e-06
2.108e-06
1.573e-06
1.039e-06
5.046e-07
6.719e-08
0.0003469
0.0003484
0.0003451
0.0003395
0.0003338
0.0003287
0.0003244
0.0003206
0.0003173
0.0003144
0.0003118
0.0003094
0.0003072
0.0003053
0.0003035
0.0003019
0.0003004
0.000299
0.0002976
0.0002964
0.0002952
0.0002941
0.0002931
0.000292
0.000291
0.00029
0.000289
0.0002879
0.0002869
0.0002859
0.0002848
0.0002837
0.0002825
0.0002813
0.00028
0.0002787
0.0002772
0.0002757
0.0002741
0.0002723
0.0002704
0.0002684
0.0002661
0.0002637
0.0002611
0.0002582
0.0002551
0.0002517
0.000248
0.0002441
0.0002397
0.0002351
0.0002301
0.0002248
0.0002191
0.0002131
0.0002067
0.0002
0.0001931
0.0001858
0.0001784
0.0001707
0.000163
0.0001551
0.0001473
0.0001395
0.0001318
0.0001242
0.0001169
0.0001098
0.000103
9.642e-05
9.017e-05
8.424e-05
7.864e-05
7.337e-05
6.843e-05
6.382e-05
5.953e-05
5.556e-05
5.188e-05
4.849e-05
4.538e-05
4.251e-05
3.987e-05
3.744e-05
3.522e-05
3.316e-05
3.127e-05
2.953e-05
2.792e-05
2.642e-05
2.503e-05
2.374e-05
2.253e-05
2.139e-05
2.033e-05
1.932e-05
1.837e-05
1.746e-05
1.66e-05
1.577e-05
1.499e-05
1.423e-05
1.349e-05
1.279e-05
1.21e-05
1.143e-05
1.078e-05
1.015e-05
9.529e-06
8.92e-06
8.322e-06
7.734e-06
7.154e-06
6.581e-06
6.014e-06
5.453e-06
4.896e-06
4.343e-06
3.793e-06
3.245e-06
2.699e-06
2.153e-06
1.608e-06
1.062e-06
5.13e-07
6.402e-08
0.000335
0.0003375
0.0003362
0.0003326
0.0003284
0.0003244
0.0003209
0.0003178
0.0003151
0.0003127
0.0003105
0.0003084
0.0003065
0.0003048
0.0003031
0.0003016
0.0003002
0.0002988
0.0002976
0.0002964
0.0002952
0.0002941
0.000293
0.0002919
0.0002908
0.0002898
0.0002887
0.0002877
0.0002866
0.0002855
0.0002844
0.0002832
0.000282
0.0002807
0.0002794
0.000278
0.0002765
0.0002749
0.0002732
0.0002714
0.0002695
0.0002674
0.0002652
0.0002627
0.0002601
0.0002572
0.0002541
0.0002507
0.000247
0.000243
0.0002387
0.0002341
0.0002292
0.0002239
0.0002182
0.0002123
0.000206
0.0001994
0.0001925
0.0001853
0.0001779
0.0001704
0.0001627
0.000155
0.0001472
0.0001395
0.0001319
0.0001245
0.0001172
0.0001102
0.0001035
9.704e-05
9.088e-05
8.501e-05
7.947e-05
7.425e-05
6.935e-05
6.478e-05
6.052e-05
5.657e-05
5.291e-05
4.953e-05
4.641e-05
4.354e-05
4.089e-05
3.845e-05
3.62e-05
3.413e-05
3.221e-05
3.043e-05
2.878e-05
2.725e-05
2.581e-05
2.448e-05
2.323e-05
2.205e-05
2.094e-05
1.989e-05
1.89e-05
1.795e-05
1.705e-05
1.619e-05
1.537e-05
1.458e-05
1.382e-05
1.308e-05
1.237e-05
1.167e-05
1.1e-05
1.035e-05
9.708e-06
9.082e-06
8.468e-06
7.865e-06
7.272e-06
6.687e-06
6.11e-06
5.539e-06
4.973e-06
4.412e-06
3.854e-06
3.298e-06
2.744e-06
2.191e-06
1.637e-06
1.081e-06
5.21e-07
6.273e-08
0.0003264
0.0003291
0.000329
0.0003268
0.0003238
0.0003207
0.0003178
0.0003152
0.0003129
0.0003109
0.000309
0.0003072
0.0003056
0.000304
0.0003025
0.0003012
0.0002998
0.0002986
0.0002973
0.0002962
0.000295
0.0002939
0.0002928
0.0002917
0.0002907
0.0002896
0.0002885
0.0002874
0.0002863
0.0002852
0.000284
0.0002828
0.0002816
0.0002803
0.0002789
0.0002775
0.000276
0.0002744
0.0002727
0.0002709
0.0002689
0.0002668
0.0002645
0.0002621
0.0002594
0.0002566
0.0002534
0.0002501
0.0002464
0.0002425
0.0002382
0.0002336
0.0002287
0.0002234
0.0002178
0.0002118
0.0002056
0.000199
0.0001921
0.000185
0.0001777
0.0001702
0.0001625
0.0001548
0.0001471
0.0001394
0.0001319
0.0001245
0.0001173
0.0001104
0.0001037
9.73e-05
9.118e-05
8.537e-05
7.986e-05
7.468e-05
6.981e-05
6.527e-05
6.104e-05
5.712e-05
5.348e-05
5.013e-05
4.703e-05
4.417e-05
4.153e-05
3.91e-05
3.685e-05
3.477e-05
3.284e-05
3.105e-05
2.938e-05
2.782e-05
2.637e-05
2.501e-05
2.373e-05
2.253e-05
2.139e-05
2.031e-05
1.929e-05
1.832e-05
1.739e-05
1.651e-05
1.566e-05
1.484e-05
1.406e-05
1.33e-05
1.257e-05
1.186e-05
1.117e-05
1.05e-05
9.843e-06
9.204e-06
8.578e-06
7.965e-06
7.361e-06
6.768e-06
6.182e-06
5.604e-06
5.031e-06
4.464e-06
3.9e-06
3.339e-06
2.78e-06
2.221e-06
1.661e-06
1.098e-06
5.295e-07
6.364e-08
0.0003199
0.0003226
0.0003232
0.000322
0.0003198
0.0003174
0.000315
0.0003128
0.0003109
0.0003091
0.0003074
0.0003059
0.0003045
0.0003031
0.0003018
0.0003005
0.0002993
0.0002981
0.000297
0.0002959
0.0002948
0.0002937
0.0002926
0.0002915
0.0002905
0.0002894
0.0002883
0.0002872
0.0002861
0.000285
0.0002838
0.0002826
0.0002813
0.00028
0.0002787
0.0002772
0.0002757
0.0002741
0.0002724
0.0002706
0.0002686
0.0002665
0.0002642
0.0002618
0.0002592
0.0002563
0.0002533
0.0002499
0.0002463
0.0002423
0.0002381
0.0002335
0.0002286
0.0002233
0.0002177
0.0002118
0.0002055
0.0001989
0.0001921
0.0001849
0.0001776
0.0001701
0.0001624
0.0001546
0.0001469
0.0001392
0.0001317
0.0001243
0.0001172
0.0001102
0.0001036
9.72e-05
9.11e-05
8.53e-05
7.982e-05
7.465e-05
6.982e-05
6.53e-05
6.111e-05
5.722e-05
5.362e-05
5.03e-05
4.724e-05
4.441e-05
4.18e-05
3.939e-05
3.716e-05
3.509e-05
3.317e-05
3.139e-05
2.972e-05
2.816e-05
2.67e-05
2.533e-05
2.404e-05
2.283e-05
2.167e-05
2.058e-05
1.954e-05
1.856e-05
1.761e-05
1.671e-05
1.585e-05
1.502e-05
1.422e-05
1.345e-05
1.27e-05
1.198e-05
1.128e-05
1.06e-05
9.933e-06
9.285e-06
8.651e-06
8.03e-06
7.421e-06
6.821e-06
6.231e-06
5.648e-06
5.071e-06
4.5e-06
3.933e-06
3.368e-06
2.806e-06
2.244e-06
1.68e-06
1.113e-06
5.39e-07
6.695e-08
0.0003148
0.0003174
0.0003184
0.0003178
0.0003163
0.0003145
0.0003125
0.0003107
0.000309
0.0003074
0.000306
0.0003046
0.0003034
0.0003022
0.000301
0.0002998
0.0002987
0.0002976
0.0002966
0.0002955
0.0002945
0.0002934
0.0002924
0.0002914
0.0002903
0.0002893
0.0002882
0.0002871
0.000286
0.0002849
0.0002837
0.0002825
0.0002812
0.0002799
0.0002786
0.0002771
0.0002756
0.000274
0.0002723
0.0002705
0.0002686
0.0002665
0.0002643
0.0002619
0.0002593
0.0002565
0.0002535
0.0002502
0.0002466
0.0002427
0.0002385
0.0002339
0.000229
0.0002237
0.0002181
0.0002121
0.0002058
0.0001992
0.0001923
0.0001851
0.0001777
0.0001701
0.0001623
0.0001545
0.0001467
0.0001389
0.0001313
0.0001239
0.0001167
0.0001098
0.0001031
9.674e-05
9.062e-05
8.482e-05
7.933e-05
7.418e-05
6.936e-05
6.488e-05
6.072e-05
5.687e-05
5.333e-05
5.006e-05
4.704e-05
4.427e-05
4.171e-05
3.934e-05
3.715e-05
3.511e-05
3.322e-05
3.146e-05
2.981e-05
2.827e-05
2.682e-05
2.545e-05
2.417e-05
2.295e-05
2.18e-05
2.07e-05
1.966e-05
1.867e-05
1.772e-05
1.681e-05
1.594e-05
1.51e-05
1.429e-05
1.352e-05
1.276e-05
1.204e-05
1.133e-05
1.064e-05
9.975e-06
9.323e-06
8.685e-06
8.061e-06
7.449e-06
6.847e-06
6.254e-06
5.669e-06
5.091e-06
4.518e-06
3.95e-06
3.385e-06
2.822e-06
2.259e-06
1.694e-06
1.125e-06
5.497e-07
7.282e-08
0.0003108
0.0003132
0.0003143
0.0003143
0.0003133
0.0003119
0.0003104
0.0003088
0.0003073
0.0003059
0.0003046
0.0003035
0.0003023
0.0003012
0.0003002
0.0002991
0.0002981
0.0002971
0.0002961
0.0002951
0.0002942
0.0002932
0.0002922
0.0002912
0.0002902
0.0002891
0.0002881
0.000287
0.000286
0.0002848
0.0002837
0.0002825
0.0002813
0.00028
0.0002786
0.0002772
0.0002757
0.0002742
0.0002725
0.0002707
0.0002689
0.0002668
0.0002647
0.0002623
0.0002598
0.0002571
0.0002541
0.0002508
0.0002473
0.0002435
0.0002393
0.0002347
0.0002298
0.0002245
0.0002189
0.0002128
0.0002065
0.0001997
0.0001927
0.0001855
0.0001779
0.0001702
0.0001623
0.0001543
0.0001464
0.0001385
0.0001308
0.0001233
0.0001161
0.0001091
0.0001023
9.588e-05
8.972e-05
8.389e-05
7.839e-05
7.323e-05
6.843e-05
6.398e-05
5.987e-05
5.608e-05
5.26e-05
4.94e-05
4.645e-05
4.375e-05
4.125e-05
3.895e-05
3.682e-05
3.484e-05
3.299e-05
3.127e-05
2.966e-05
2.814e-05
2.672e-05
2.537e-05
2.41e-05
2.29e-05
2.176e-05
2.067e-05
1.964e-05
1.865e-05
1.77e-05
1.68e-05
1.593e-05
1.509e-05
1.429e-05
1.351e-05
1.276e-05
1.203e-05
1.132e-05
1.064e-05
9.97e-06
9.317e-06
8.68e-06
8.056e-06
7.444e-06
6.843e-06
6.251e-06
5.668e-06
5.091e-06
4.52e-06
3.953e-06
3.39e-06
2.828e-06
2.267e-06
1.704e-06
1.136e-06
5.617e-07
8.136e-08
0.0003075
0.0003097
0.000311
0.0003112
0.0003107
0.0003096
0.0003084
0.0003071
0.0003058
0.0003046
0.0003035
0.0003024
0.0003013
0.0003004
0.0002994
0.0002985
0.0002975
0.0002966
0.0002957
0.0002948
0.0002938
0.0002929
0.000292
0.000291
0.0002901
0.0002891
0.0002881
0.000287
0.000286
0.0002849
0.0002838
0.0002826
0.0002814
0.0002802
0.0002789
0.0002775
0.0002761
0.0002745
0.0002729
0.0002712
0.0002694
0.0002674
0.0002654
0.0002631
0.0002606
0.000258
0.0002551
0.0002519
0.0002485
0.0002447
0.0002406
0.0002361
0.0002312
0.0002259
0.0002201
0.000214
0.0002076
0.0002007
0.0001936
0.0001861
0.0001785
0.0001705
0.0001624
0.0001542
0.000146
0.0001379
0.00013
0.0001224
0.0001151
0.000108
0.0001011
9.457e-05
8.835e-05
8.246e-05
7.693e-05
7.178e-05
6.7e-05
6.259e-05
5.853e-05
5.482e-05
5.143e-05
4.832e-05
4.547e-05
4.286e-05
4.045e-05
3.824e-05
3.618e-05
3.427e-05
3.249e-05
3.083e-05
2.927e-05
2.78e-05
2.641e-05
2.511e-05
2.387e-05
2.269e-05
2.157e-05
2.05e-05
1.948e-05
1.851e-05
1.758e-05
1.668e-05
1.582e-05
1.5e-05
1.42e-05
1.343e-05
1.268e-05
1.196e-05
1.126e-05
1.058e-05
9.916e-06
9.269e-06
8.636e-06
8.016e-06
7.408e-06
6.811e-06
6.223e-06
5.644e-06
5.071e-06
4.504e-06
3.942e-06
3.383e-06
2.825e-06
2.268e-06
1.709e-06
1.146e-06
5.753e-07
9.259e-08
0.0003048
0.0003068
0.0003081
0.0003086
0.0003083
0.0003076
0.0003067
0.0003056
0.0003045
0.0003034
0.0003024
0.0003014
0.0003005
0.0002996
0.0002987
0.0002978
0.000297
0.0002961
0.0002953
0.0002944
0.0002936
0.0002927
0.0002918
0.0002909
0.00029
0.0002891
0.0002881
0.0002871
0.0002861
0.0002851
0.000284
0.0002829
0.0002817
0.0002805
0.0002793
0.0002779
0.0002766
0.0002751
0.0002736
0.0002719
0.0002702
0.0002683
0.0002663
0.0002642
0.0002618
0.0002593
0.0002565
0.0002535
0.0002501
0.0002465
0.0002424
0.0002379
0.0002331
0.0002277
0.000222
0.0002158
0.0002092
0.0002022
0.0001948
0.0001872
0.0001793
0.0001711
0.0001627
0.0001541
0.0001456
0.0001372
0.0001291
0.0001212
0.0001137
0.0001064
9.941e-05
9.274e-05
8.642e-05
8.048e-05
7.492e-05
6.976e-05
6.502e-05
6.067e-05
5.67e-05
5.309e-05
4.981e-05
4.682e-05
4.41e-05
4.161e-05
3.932e-05
3.721e-05
3.525e-05
3.344e-05
3.174e-05
3.015e-05
2.866e-05
2.725e-05
2.592e-05
2.466e-05
2.346e-05
2.232e-05
2.124e-05
2.02e-05
1.921e-05
1.826e-05
1.735e-05
1.647e-05
1.563e-05
1.482e-05
1.403e-05
1.328e-05
1.254e-05
1.183e-05
1.114e-05
1.047e-05
9.817e-06
9.179e-06
8.554e-06
7.942e-06
7.342e-06
6.752e-06
6.171e-06
5.598e-06
5.032e-06
4.472e-06
3.916e-06
3.364e-06
2.813e-06
2.262e-06
1.71e-06
1.154e-06
5.905e-07
1.065e-07
0.0003025
0.0003044
0.0003057
0.0003063
0.0003063
0.0003058
0.0003051
0.0003042
0.0003033
0.0003024
0.0003015
0.0003006
0.0002997
0.0002989
0.0002981
0.0002973
0.0002965
0.0002957
0.0002949
0.0002941
0.0002933
0.0002925
0.0002917
0.0002908
0.00029
0.0002891
0.0002882
0.0002873
0.0002863
0.0002853
0.0002843
0.0002832
0.0002821
0.000281
0.0002798
0.0002785
0.0002772
0.0002759
0.0002744
0.0002729
0.0002712
0.0002695
0.0002676
0.0002656
0.0002634
0.000261
0.0002584
0.0002555
0.0002523
0.0002487
0.0002448
0.0002404
0.0002356
0.0002303
0.0002245
0.0002182
0.0002115
0.0002043
0.0001967
0.0001888
0.0001805
0.000172
0.0001631
0.0001541
0.0001451
0.0001362
0.0001277
0.0001196
0.0001118
0.0001043
9.708e-05
9.027e-05
8.385e-05
7.784e-05
7.227e-05
6.713e-05
6.245e-05
5.82e-05
5.435e-05
5.088e-05
4.775e-05
4.492e-05
4.234e-05
4e-05
3.785e-05
3.588e-05
3.404e-05
3.234e-05
3.075e-05
2.925e-05
2.784e-05
2.651e-05
2.524e-05
2.404e-05
2.29e-05
2.181e-05
2.077e-05
1.977e-05
1.881e-05
1.79e-05
1.701e-05
1.617e-05
1.535e-05
1.456e-05
1.38e-05
1.306e-05
1.234e-05
1.165e-05
1.097e-05
1.032e-05
9.675e-06
9.049e-06
8.436e-06
7.835e-06
7.246e-06
6.666e-06
6.095e-06
5.532e-06
4.975e-06
4.424e-06
3.877e-06
3.334e-06
2.792e-06
2.25e-06
1.707e-06
1.161e-06
6.071e-07
1.229e-07
0.0003006
0.0003023
0.0003036
0.0003043
0.0003045
0.0003042
0.0003037
0.000303
0.0003022
0.0003014
0.0003006
0.0002998
0.000299
0.0002983
0.0002975
0.0002968
0.0002961
0.0002954
0.0002946
0.0002939
0.0002932
0.0002924
0.0002916
0.0002908
0.00029
0.0002892
0.0002883
0.0002875
0.0002866
0.0002856
0.0002847
0.0002837
0.0002826
0.0002816
0.0002805
0.0002793
0.0002781
0.0002768
0.0002754
0.000274
0.0002725
0.0002709
0.0002692
0.0002673
0.0002653
0.0002631
0.0002606
0.0002579
0.0002549
0.0002515
0.0002478
0.0002435
0.0002388
0.0002336
0.0002278
0.0002215
0.0002146
0.0002072
0.0001994
0.0001911
0.0001825
0.0001734
0.0001639
0.0001541
0.0001444
0.0001349
0.0001258
0.0001173
0.0001092
0.0001014
9.395e-05
8.699e-05
8.049e-05
7.445e-05
6.889e-05
6.382e-05
5.925e-05
5.514e-05
5.146e-05
4.818e-05
4.524e-05
4.26e-05
4.022e-05
3.806e-05
3.608e-05
3.426e-05
3.258e-05
3.101e-05
2.953e-05
2.815e-05
2.683e-05
2.559e-05
2.44e-05
2.327e-05
2.22e-05
2.116e-05
2.017e-05
1.922e-05
1.831e-05
1.743e-05
1.659e-05
1.578e-05
1.499e-05
1.423e-05
1.349e-05
1.278e-05
1.209e-05
1.141e-05
1.076e-05
1.012e-05
9.493e-06
8.883e-06
8.285e-06
7.699e-06
7.123e-06
6.556e-06
5.998e-06
5.446e-06
4.901e-06
4.362e-06
3.826e-06
3.294e-06
2.763e-06
2.233e-06
1.701e-06
1.166e-06
6.251e-07
1.418e-07
0.000299
0.0003006
0.0003019
0.0003026
0.0003029
0.0003028
0.0003025
0.0003019
0.0003013
0.0003006
0.0002999
0.0002992
0.0002985
0.0002978
0.0002971
0.0002964
0.0002958
0.0002951
0.0002944
0.0002937
0.000293
0.0002923
0.0002916
0.0002909
0.0002901
0.0002894
0.0002886
0.0002878
0.0002869
0.0002861
0.0002852
0.0002842
0.0002833
0.0002823
0.0002813
0.0002802
0.0002791
0.0002779
0.0002767
0.0002754
0.000274
0.0002725
0.000271
0.0002693
0.0002674
0.0002654
0.0002632
0.0002608
0.000258
0.0002549
0.0002514
0.0002474
0.0002428
0.0002378
0.0002321
0.0002258
0.0002189
0.0002114
0.0002032
0.0001945
0.0001854
0.0001757
0.0001652
0.0001543
0.0001435
0.000133
0.0001231
0.000114
0.0001055
9.739e-05
8.975e-05
8.269e-05
7.618e-05
7.018e-05
6.471e-05
5.977e-05
5.537e-05
5.147e-05
4.803e-05
4.499e-05
4.229e-05
3.99e-05
3.775e-05
3.58e-05
3.403e-05
3.24e-05
3.088e-05
2.946e-05
2.812e-05
2.686e-05
2.566e-05
2.451e-05
2.342e-05
2.237e-05
2.137e-05
2.04e-05
1.947e-05
1.858e-05
1.772e-05
1.689e-05
1.608e-05
1.531e-05
1.456e-05
1.383e-05
1.313e-05
1.244e-05
1.178e-05
1.113e-05
1.05e-05
9.879e-06
9.276e-06
8.684e-06
8.105e-06
7.536e-06
6.976e-06
6.424e-06
5.881e-06
5.344e-06
4.812e-06
4.286e-06
3.764e-06
3.244e-06
2.726e-06
2.209e-06
1.691e-06
1.17e-06
6.444e-07
1.628e-07
0.0002976
0.0002991
0.0003003
0.0003011
0.0003015
0.0003016
0.0003014
0.000301
0.0003005
0.0002999
0.0002993
0.0002986
0.000298
0.0002974
0.0002967
0.0002961
0.0002955
0.0002949
0.0002942
0.0002936
0.000293
0.0002923
0.0002917
0.000291
0.0002903
0.0002896
0.0002889
0.0002881
0.0002873
0.0002865
0.0002857
0.0002849
0.000284
0.0002831
0.0002822
0.0002812
0.0002802
0.0002791
0.000278
0.0002769
0.0002756
0.0002743
0.000273
0.0002715
0.0002699
0.0002682
0.0002662
0.000264
0.0002616
0.0002588
0.0002556
0.0002519
0.0002477
0.0002429
0.0002374
0.0002313
0.0002245
0.000217
0.0002087
0.0001997
0.0001902
0.0001796
0.0001675
0.0001547
0.0001422
0.00013
0.0001188
0.000109
0.0001002
9.19e-05
8.413e-05
7.714e-05
7.078e-05
6.493e-05
5.964e-05
5.494e-05
5.081e-05
4.72e-05
4.406e-05
4.133e-05
3.894e-05
3.684e-05
3.496e-05
3.327e-05
3.173e-05
3.031e-05
2.898e-05
2.773e-05
2.655e-05
2.542e-05
2.434e-05
2.33e-05
2.231e-05
2.135e-05
2.043e-05
1.954e-05
1.868e-05
1.784e-05
1.704e-05
1.626e-05
1.551e-05
1.478e-05
1.407e-05
1.338e-05
1.271e-05
1.206e-05
1.142e-05
1.08e-05
1.02e-05
9.607e-06
9.027e-06
8.458e-06
7.899e-06
7.349e-06
6.807e-06
6.274e-06
5.747e-06
5.226e-06
4.71e-06
4.199e-06
3.691e-06
3.186e-06
2.684e-06
2.181e-06
1.679e-06
1.174e-06
6.648e-07
1.857e-07
0.0002964
0.0002979
0.000299
0.0002999
0.0003003
0.0003005
0.0003004
0.0003001
0.0002997
0.0002992
0.0002987
0.0002982
0.0002976
0.000297
0.0002964
0.0002959
0.0002953
0.0002947
0.0002941
0.0002936
0.000293
0.0002924
0.0002918
0.0002911
0.0002905
0.0002899
0.0002892
0.0002885
0.0002878
0.0002871
0.0002863
0.0002856
0.0002848
0.000284
0.0002831
0.0002823
0.0002814
0.0002804
0.0002795
0.0002785
0.0002774
0.0002763
0.0002752
0.0002739
0.0002726
0.0002711
0.0002695
0.0002677
0.0002656
0.0002632
0.0002604
0.0002571
0.0002533
0.0002489
0.0002439
0.0002382
0.0002319
0.0002247
0.0002166
0.0002076
0.000198
0.0001866
0.0001719
0.0001556
0.0001398
0.0001248
0.0001116
0.0001013
9.255e-05
8.429e-05
7.672e-05
7.011e-05
6.416e-05
5.865e-05
5.368e-05
4.933e-05
4.558e-05
4.237e-05
3.961e-05
3.726e-05
3.523e-05
3.347e-05
3.191e-05
3.051e-05
2.922e-05
2.803e-05
2.691e-05
2.585e-05
2.483e-05
2.385e-05
2.29e-05
2.199e-05
2.11e-05
2.024e-05
1.94e-05
1.859e-05
1.78e-05
1.704e-05
1.63e-05
1.557e-05
1.487e-05
1.419e-05
1.353e-05
1.288e-05
1.225e-05
1.164e-05
1.104e-05
1.045e-05
9.871e-06
9.306e-06
8.752e-06
8.207e-06
7.671e-06
7.143e-06
6.622e-06
6.107e-06
5.599e-06
5.095e-06
4.597e-06
4.102e-06
3.611e-06
3.122e-06
2.635e-06
2.149e-06
1.663e-06
1.176e-06
6.861e-07
2.101e-07
0.0002954
0.0002968
0.0002979
0.0002988
0.0002993
0.0002995
0.0002995
0.0002994
0.0002991
0.0002987
0.0002982
0.0002977
0.0002972
0.0002967
0.0002962
0.0002957
0.0002951
0.0002946
0.0002941
0.0002935
0.000293
0.0002925
0.0002919
0.0002913
0.0002908
0.0002902
0.0002896
0.000289
0.0002883
0.0002877
0.000287
0.0002863
0.0002856
0.0002849
0.0002842
0.0002834
0.0002827
0.0002819
0.000281
0.0002802
0.0002793
0.0002784
0.0002775
0.0002765
0.0002754
0.0002743
0.000273
0.0002716
0.0002699
0.000268
0.0002657
0.0002629
0.0002597
0.0002559
0.0002514
0.0002465
0.000241
0.0002349
0.0002274
0.0002191
0.0002113
0.0001993
0.0001796
0.0001564
0.000136
0.0001161
9.937e-05
8.883e-05
8.177e-05
7.414e-05
6.713e-05
6.142e-05
5.633e-05
5.138e-05
4.688e-05
4.303e-05
3.978e-05
3.705e-05
3.476e-05
3.285e-05
3.124e-05
2.986e-05
2.865e-05
2.757e-05
2.657e-05
2.563e-05
2.473e-05
2.386e-05
2.302e-05
2.219e-05
2.138e-05
2.059e-05
1.981e-05
1.905e-05
1.831e-05
1.758e-05
1.687e-05
1.618e-05
1.55e-05
1.484e-05
1.419e-05
1.356e-05
1.295e-05
1.235e-05
1.176e-05
1.118e-05
1.062e-05
1.006e-05
9.519e-06
8.984e-06
8.457e-06
7.938e-06
7.426e-06
6.921e-06
6.422e-06
5.928e-06
5.439e-06
4.955e-06
4.475e-06
3.998e-06
3.524e-06
3.052e-06
2.583e-06
2.114e-06
1.646e-06
1.178e-06
7.08e-07
2.356e-07
0.0002946
0.0002959
0.000297
0.0002978
0.0002984
0.0002987
0.0002988
0.0002987
0.0002985
0.0002982
0.0002978
0.0002974
0.000297
0.0002965
0.000296
0.0002955
0.0002951
0.0002946
0.0002941
0.0002936
0.0002931
0.0002926
0.0002921
0.0002916
0.0002911
0.0002905
0.00029
0.0002895
0.0002889
0.0002883
0.0002877
0.0002872
0.0002865
0.0002859
0.0002853
0.0002847
0.000284
0.0002833
0.0002827
0.000282
0.0002813
0.0002806
0.0002799
0.0002791
0.0002784
0.0002775
0.0002766
0.0002756
0.0002744
0.000273
0.0002713
0.0002692
0.0002666
0.0002634
0.0002598
0.0002559
0.0002519
0.0002478
0.0002405
0.0002301
0.0002282
0.0002296
0.000197
0.0001535
0.0001335
9.603e-05
7.258e-05
7.378e-05
7.202e-05
6.241e-05
5.484e-05
5.113e-05
4.75e-05
4.337e-05
3.948e-05
3.624e-05
3.357e-05
3.139e-05
2.962e-05
2.821e-05
2.706e-05
2.611e-05
2.528e-05
2.453e-05
2.383e-05
2.315e-05
2.248e-05
2.181e-05
2.114e-05
2.048e-05
1.981e-05
1.914e-05
1.848e-05
1.782e-05
1.717e-05
1.653e-05
1.59e-05
1.528e-05
1.467e-05
1.407e-05
1.348e-05
1.291e-05
1.234e-05
1.179e-05
1.124e-05
1.071e-05
1.018e-05
9.661e-06
9.15e-06
8.646e-06
8.148e-06
7.656e-06
7.17e-06
6.689e-06
6.213e-06
5.741e-06
5.272e-06
4.808e-06
4.346e-06
3.888e-06
3.432e-06
2.979e-06
2.527e-06
2.077e-06
1.628e-06
1.179e-06
7.302e-07
2.619e-07
0.0002939
0.0002951
0.0002962
0.000297
0.0002976
0.000298
0.0002981
0.0002981
0.000298
0.0002978
0.0002975
0.0002971
0.0002967
0.0002963
0.0002959
0.0002954
0.000295
0.0002946
0.0002941
0.0002937
0.0002932
0.0002928
0.0002923
0.0002919
0.0002914
0.0002909
0.0002905
0.00029
0.0002895
0.000289
0.0002885
0.000288
0.0002875
0.0002869
0.0002864
0.0002859
0.0002854
0.0002848
0.0002843
0.0002838
0.0002833
0.0002828
0.0002823
0.0002818
0.0002813
0.0002808
0.0002803
0.0002797
0.000279
0.0002782
0.000277
0.0002755
0.0002736
0.0002712
0.0002683
0.0002654
0.000263
0.0002613
0.00026
0.0002373
0.0001847
0.0001911
0.0001712
0.0001459
0.0001446
0.0001227
0.0001103
0.0001117
6.739e-05
4.429e-05
4.173e-05
4.075e-05
3.865e-05
3.52e-05
3.18e-05
2.92e-05
2.716e-05
2.555e-05
2.435e-05
2.346e-05
2.281e-05
2.231e-05
2.188e-05
2.148e-05
2.107e-05
2.066e-05
2.021e-05
1.975e-05
1.925e-05
1.874e-05
1.821e-05
1.767e-05
1.712e-05
1.657e-05
1.601e-05
1.546e-05
1.491e-05
1.436e-05
1.382e-05
1.329e-05
1.276e-05
1.224e-05
1.172e-05
1.122e-05
1.071e-05
1.022e-05
9.732e-06
9.249e-06
8.772e-06
8.299e-06
7.831e-06
7.367e-06
6.907e-06
6.451e-06
5.998e-06
5.548e-06
5.101e-06
4.657e-06
4.215e-06
3.775e-06
3.338e-06
2.903e-06
2.469e-06
2.038e-06
1.608e-06
1.18e-06
7.524e-07
2.886e-07
0.0002933
0.0002945
0.0002955
0.0002963
0.0002969
0.0002973
0.0002975
0.0002976
0.0002976
0.0002974
0.0002972
0.0002969
0.0002965
0.0002962
0.0002958
0.0002954
0.000295
0.0002946
0.0002942
0.0002938
0.0002934
0.000293
0.0002926
0.0002922
0.0002917
0.0002913
0.0002909
0.0002905
0.0002901
0.0002897
0.0002892
0.0002888
0.0002884
0.000288
0.0002875
0.0002871
0.0002867
0.0002863
0.0002859
0.0002856
0.0002852
0.0002849
0.0002846
0.0002844
0.0002842
0.000284
0.0002839
0.0002837
0.0002835
0.0002832
0.0002826
0.0002817
0.0002803
0.0002785
0.000276
0.0002726
0.0002708
0.0002663
0.0002409
0.0001921
0.0001512
0.0001309
5.799e-05
0.0001212
0.0001882
0.000207
0.0001585
0.0001426
0.0001097
7.091e-05
3.751e-05
3.393e-05
3.329e-05
2.72e-05
2.407e-05
2.214e-05
2.074e-05
1.973e-05
1.911e-05
1.878e-05
1.864e-05
1.858e-05
1.855e-05
1.849e-05
1.838e-05
1.821e-05
1.799e-05
1.771e-05
1.739e-05
1.702e-05
1.663e-05
1.621e-05
1.577e-05
1.532e-05
1.486e-05
1.439e-05
1.392e-05
1.344e-05
1.297e-05
1.25e-05
1.203e-05
1.156e-05
1.11e-05
1.064e-05
1.018e-05
9.731e-06
9.282e-06
8.835e-06
8.392e-06
7.951e-06
7.513e-06
7.077e-06
6.643e-06
6.212e-06
5.782e-06
5.354e-06
4.928e-06
4.504e-06
4.082e-06
3.662e-06
3.243e-06
2.826e-06
2.411e-06
1.999e-06
1.588e-06
1.18e-06
7.743e-07
3.151e-07
0.0002928
0.0002939
0.0002949
0.0002957
0.0002964
0.0002968
0.0002971
0.0002972
0.0002972
0.0002971
0.0002969
0.0002967
0.0002964
0.0002961
0.0002957
0.0002954
0.000295
0.0002947
0.0002943
0.0002939
0.0002936
0.0002932
0.0002928
0.0002925
0.0002921
0.0002918
0.0002914
0.000291
0.0002907
0.0002903
0.00029
0.0002896
0.0002893
0.000289
0.0002886
0.0002883
0.000288
0.0002878
0.0002875
0.0002873
0.0002871
0.0002869
0.0002869
0.0002869
0.0002869
0.0002871
0.0002873
0.0002875
0.0002878
0.0002879
0.0002879
0.0002875
0.0002866
0.0002852
0.0002831
0.0002802
0.0002712
0.0002299
0.0001793
-7.148e-05
4.787e-05
8.199e-05
9.74e-05
0.0001332
0.0001715
0.0001966
0.0002152
0.0002394
0.0002917
0.0001378
7.706e-05
4.835e-05
2.427e-05
1.831e-05
1.626e-05
1.531e-05
1.461e-05
1.417e-05
1.412e-05
1.434e-05
1.469e-05
1.506e-05
1.539e-05
1.565e-05
1.581e-05
1.588e-05
1.585e-05
1.575e-05
1.559e-05
1.536e-05
1.509e-05
1.479e-05
1.445e-05
1.41e-05
1.372e-05
1.334e-05
1.294e-05
1.254e-05
1.213e-05
1.172e-05
1.131e-05
1.09e-05
1.049e-05
1.007e-05
9.662e-06
9.25e-06
8.839e-06
8.428e-06
8.018e-06
7.608e-06
7.199e-06
6.791e-06
6.383e-06
5.976e-06
5.569e-06
5.163e-06
4.758e-06
4.354e-06
3.951e-06
3.549e-06
3.149e-06
2.75e-06
2.354e-06
1.959e-06
1.568e-06
1.18e-06
7.956e-07
3.41e-07
0.0002924
0.0002935
0.0002944
0.0002952
0.0002959
0.0002963
0.0002966
0.0002968
0.0002969
0.0002968
0.0002967
0.0002965
0.0002963
0.000296
0.0002957
0.0002954
0.0002951