/*--------------------------------*- C++ -*----------------------------------*\
  =========                 |
  \\      /  F ield         | OpenFOAM: The Open Source CFD Toolbox
   \\    /   O peration     | Website:  https://openfoam.org
    \\  /    A nd           | Version:  7
     \\/     M anipulation  |
\*---------------------------------------------------------------------------*/
FoamFile
{
    version     2.0;
    format      ascii;
    class       surfaceScalarField;
    location    "479.999473411093675";
    object      phi;
}
// * * * * * * * * * * * * * * * * * * * * * * * * * * * * * * * * * * * * * //

dimensions      [0 3 -1 0 0 0 0];

internalField   nonuniform List<scalar> 
8032
(
6.857e-10
2.518e-10
4.804e-10
2.053e-10
3.48e-10
1.324e-10
2.643e-10
8.372e-11
2.101e-10
5.415e-11
1.738e-10
3.635e-11
1.483e-10
2.547e-11
1.297e-10
1.861e-11
1.156e-10
1.409e-11
1.046e-10
1.098e-11
9.587e-11
8.738e-12
8.881e-11
7.069e-12
8.302e-11
5.785e-12
7.825e-11
4.771e-12
7.43e-11
3.952e-12
7.102e-11
3.276e-12
6.831e-11
2.71e-12
6.609e-11
2.226e-12
6.428e-11
1.807e-12
6.284e-11
1.437e-12
6.174e-11
1.106e-12
6.093e-11
8.056e-13
6.04e-11
5.277e-13
6.014e-11
2.67e-13
6.012e-11
1.854e-14
6.034e-11
-2.219e-13
6.08e-11
-4.578e-13
6.149e-11
-6.923e-13
6.242e-11
-9.283e-13
6.358e-11
-1.168e-12
6.5e-11
-1.414e-12
6.667e-11
-1.667e-12
6.86e-11
-1.93e-12
7.08e-11
-2.204e-12
7.329e-11
-2.489e-12
7.608e-11
-2.787e-12
7.917e-11
-3.097e-12
8.259e-11
-3.419e-12
8.635e-11
-3.753e-12
9.044e-11
-4.096e-12
9.489e-11
-4.447e-12
9.969e-11
-4.802e-12
1.048e-10
-5.159e-12
1.104e-10
-5.511e-12
1.162e-10
-5.854e-12
1.224e-10
-6.181e-12
1.289e-10
-6.484e-12
1.356e-10
-6.755e-12
1.426e-10
-6.984e-12
1.498e-10
-7.161e-12
1.571e-10
-7.276e-12
1.644e-10
-7.32e-12
1.717e-10
-7.281e-12
1.788e-10
-7.151e-12
1.857e-10
-6.923e-12
1.923e-10
-6.589e-12
1.985e-10
-6.148e-12
2.041e-10
-5.597e-12
2.09e-10
-4.941e-12
2.132e-10
-4.185e-12
2.165e-10
-3.34e-12
2.19e-10
-2.423e-12
2.204e-10
-1.453e-12
2.209e-10
-4.52e-13
2.203e-10
5.543e-13
2.188e-10
1.541e-12
2.163e-10
2.485e-12
2.129e-10
3.366e-12
2.087e-10
4.168e-12
2.039e-10
4.88e-12
1.984e-10
5.494e-12
1.924e-10
6.008e-12
1.859e-10
6.421e-12
1.792e-10
6.736e-12
1.723e-10
6.956e-12
1.652e-10
7.087e-12
1.58e-10
7.136e-12
1.509e-10
7.111e-12
1.439e-10
7.02e-12
1.37e-10
6.872e-12
1.303e-10
6.676e-12
1.239e-10
6.439e-12
1.177e-10
6.171e-12
1.119e-10
5.88e-12
1.063e-10
5.571e-12
1.01e-10
5.253e-12
9.611e-11
4.929e-12
9.15e-11
4.606e-12
8.721e-11
4.288e-12
8.323e-11
3.976e-12
7.956e-11
3.676e-12
7.617e-11
3.387e-12
7.306e-11
3.112e-12
7.021e-11
2.851e-12
6.76e-11
2.606e-12
6.523e-11
2.376e-12
6.307e-11
2.162e-12
6.11e-11
1.963e-12
5.932e-11
1.779e-12
5.771e-11
1.609e-12
5.626e-11
1.453e-12
5.495e-11
1.309e-12
5.377e-11
1.178e-12
5.272e-11
1.059e-12
5.177e-11
9.497e-13
5.092e-11
8.506e-13
5.015e-11
7.608e-13
4.947e-11
6.794e-13
4.887e-11
6.059e-13
4.833e-11
5.396e-13
4.785e-11
4.799e-13
4.742e-11
4.263e-13
4.704e-11
3.784e-13
4.671e-11
3.358e-13
4.641e-11
2.98e-13
4.615e-11
2.649e-13
4.591e-11
2.362e-13
4.57e-11
2.118e-13
4.551e-11
1.918e-13
4.533e-11
1.762e-13
4.516e-11
1.655e-13
4.5e-11
1.605e-13
4.484e-11
1.625e-13
4.467e-11
1.742e-13
4.447e-11
2.007e-13
4.422e-11
2.503e-13
4.388e-11
3.325e-13
4.321e-13
9.523e-10
2.37e-10
8.501e-10
3.075e-10
7.275e-10
2.55e-10
6.183e-10
1.929e-10
5.294e-10
1.43e-10
4.594e-10
1.064e-10
4.044e-10
8.043e-11
3.61e-10
6.201e-11
3.264e-10
4.874e-11
2.984e-10
3.898e-11
2.755e-10
3.161e-11
2.566e-10
2.592e-11
2.41e-10
2.143e-11
2.28e-10
1.781e-11
2.171e-10
1.484e-11
2.08e-10
1.237e-11
2.004e-10
1.027e-11
1.942e-10
8.465e-12
1.891e-10
6.889e-12
1.85e-10
5.493e-12
1.819e-10
4.238e-12
1.796e-10
3.093e-12
1.781e-10
2.032e-12
1.773e-10
1.036e-12
1.773e-10
8.462e-14
1.779e-10
-8.357e-13
1.792e-10
-1.739e-12
1.811e-10
-2.635e-12
1.837e-10
-3.536e-12
1.87e-10
-4.45e-12
1.91e-10
-5.384e-12
1.957e-10
-6.345e-12
2.011e-10
-7.34e-12
2.072e-10
-8.372e-12
2.142e-10
-9.444e-12
2.22e-10
-1.056e-11
2.306e-10
-1.172e-11
2.401e-10
-1.291e-11
2.505e-10
-1.415e-11
2.618e-10
-1.542e-11
2.74e-10
-1.671e-11
2.873e-10
-1.801e-11
3.014e-10
-1.931e-11
3.165e-10
-2.059e-11
3.325e-10
-2.183e-11
3.493e-10
-2.3e-11
3.669e-10
-2.408e-11
3.851e-10
-2.503e-11
4.04e-10
-2.583e-11
4.233e-10
-2.643e-11
4.428e-10
-2.68e-11
4.624e-10
-2.691e-11
4.818e-10
-2.672e-11
5.009e-10
-2.62e-11
5.193e-10
-2.532e-11
5.367e-10
-2.406e-11
5.53e-10
-2.242e-11
5.678e-10
-2.039e-11
5.808e-10
-1.798e-11
5.919e-10
-1.522e-11
6.007e-10
-1.216e-11
6.071e-10
-8.83e-12
6.11e-10
-5.318e-12
6.122e-10
-1.698e-12
6.108e-10
1.942e-12
6.069e-10
5.516e-12
6.004e-10
8.942e-12
5.916e-10
1.215e-11
5.807e-10
1.508e-11
5.679e-10
1.77e-11
5.534e-10
1.997e-11
5.375e-10
2.189e-11
5.205e-10
2.344e-11
5.026e-10
2.464e-11
4.84e-10
2.55e-11
4.651e-10
2.604e-11
4.46e-10
2.627e-11
4.268e-10
2.624e-11
4.079e-10
2.596e-11
3.893e-10
2.546e-11
3.712e-10
2.479e-11
3.537e-10
2.396e-11
3.368e-10
2.302e-11
3.207e-10
2.198e-11
3.054e-10
2.087e-11
2.91e-10
1.972e-11
2.773e-10
1.854e-11
2.646e-10
1.736e-11
2.527e-10
1.62e-11
2.416e-10
1.505e-11
2.313e-10
1.394e-11
2.219e-10
1.287e-11
2.131e-10
1.185e-11
2.051e-10
1.088e-11
1.977e-10
9.963e-12
1.91e-10
9.103e-12
1.849e-10
8.298e-12
1.793e-10
7.549e-12
1.742e-10
6.854e-12
1.696e-10
6.211e-12
1.654e-10
5.619e-12
1.617e-10
5.074e-12
1.583e-10
4.575e-12
1.552e-10
4.119e-12
1.525e-10
3.702e-12
1.5e-10
3.323e-12
1.478e-10
2.978e-12
1.458e-10
2.665e-12
1.44e-10
2.382e-12
1.424e-10
2.126e-12
1.41e-10
1.895e-12
1.398e-10
1.688e-12
1.386e-10
1.503e-12
1.376e-10
1.337e-12
1.367e-10
1.19e-12
1.359e-10
1.061e-12
1.352e-10
9.485e-13
1.346e-10
8.527e-13
1.34e-10
7.732e-13
1.335e-10
7.105e-13
1.33e-10
6.654e-13
1.325e-10
6.397e-13
1.32e-10
6.363e-13
1.315e-10
6.596e-13
1.31e-10
7.162e-13
1.305e-10
8.135e-13
1.298e-10
9.503e-13
1.079e-12
9.779e-10
1.966e-10
9.637e-10
3.217e-10
9.013e-10
3.174e-10
8.213e-10
2.729e-10
7.411e-10
2.232e-10
6.683e-10
1.792e-10
6.051e-10
1.436e-10
5.514e-10
1.157e-10
5.061e-10
9.4e-11
4.681e-10
7.703e-11
4.361e-10
6.364e-11
4.091e-10
5.293e-11
3.862e-10
4.424e-11
3.67e-10
3.708e-11
3.507e-10
3.111e-11
3.37e-10
2.606e-11
3.255e-10
2.174e-11
3.16e-10
1.798e-11
3.082e-10
1.467e-11
3.02e-10
1.172e-11
2.972e-10
9.058e-12
2.937e-10
6.616e-12
2.914e-10
4.346e-12
2.902e-10
2.206e-12
2.901e-10
1.599e-13
2.911e-10
-1.823e-12
2.931e-10
-3.768e-12
2.962e-10
-5.702e-12
3.003e-10
-7.642e-12
3.055e-10
-9.609e-12
3.117e-10
-1.162e-11
3.19e-10
-1.368e-11
3.275e-10
-1.581e-11
3.372e-10
-1.802e-11
3.48e-10
-2.031e-11
3.602e-10
-2.269e-11
3.736e-10
-2.515e-11
3.884e-10
-2.769e-11
4.045e-10
-3.031e-11
4.221e-10
-3.298e-11
4.411e-10
-3.57e-11
4.615e-10
-3.844e-11
4.834e-10
-4.116e-11
5.066e-10
-4.383e-11
5.312e-10
-4.641e-11
5.57e-10
-4.884e-11
5.84e-10
-5.107e-11
6.12e-10
-5.302e-11
6.408e-10
-5.464e-11
6.703e-10
-5.585e-11
7e-10
-5.657e-11
7.299e-10
-5.674e-11
7.594e-10
-5.628e-11
7.883e-10
-5.513e-11
8.163e-10
-5.323e-11
8.427e-10
-5.055e-11
8.674e-10
-4.707e-11
8.898e-10
-4.279e-11
9.095e-10
-3.772e-11
9.262e-10
-3.193e-11
9.396e-10
-2.551e-11
9.493e-10
-1.855e-11
9.552e-10
-1.121e-11
9.571e-10
-3.646e-12
9.551e-10
3.961e-12
9.492e-10
1.143e-11
9.395e-10
1.861e-11
9.264e-10
2.534e-11
9.099e-10
3.15e-11
8.906e-10
3.702e-11
8.688e-10
4.182e-11
8.448e-10
4.589e-11
8.19e-10
4.922e-11
7.918e-10
5.18e-11
7.637e-10
5.368e-11
7.348e-10
5.487e-11
7.057e-10
5.545e-11
6.764e-10
5.544e-11
6.475e-10
5.492e-11
6.19e-10
5.395e-11
5.912e-10
5.26e-11
5.642e-10
5.091e-11
5.383e-10
4.897e-11
5.134e-10
4.682e-11
4.898e-10
4.452e-11
4.674e-10
4.213e-11
4.462e-10
3.967e-11
4.264e-10
3.72e-11
4.078e-10
3.475e-11
3.906e-10
3.234e-11
3.745e-10
2.999e-11
3.596e-10
2.773e-11
3.459e-10
2.556e-11
3.333e-10
2.35e-11
3.217e-10
2.155e-11
3.111e-10
1.972e-11
3.014e-10
1.8e-11
2.926e-10
1.639e-11
2.845e-10
1.491e-11
2.772e-10
1.353e-11
2.706e-10
1.225e-11
2.646e-10
1.108e-11
2.591e-10
1e-11
2.542e-10
9.018e-12
2.498e-10
8.118e-12
2.458e-10
7.296e-12
2.423e-10
6.549e-12
2.391e-10
5.87e-12
2.362e-10
5.254e-12
2.336e-10
4.697e-12
2.313e-10
4.195e-12
2.293e-10
3.743e-12
2.274e-10
3.337e-12
2.258e-10
2.974e-12
2.243e-10
2.652e-12
2.23e-10
2.368e-12
2.219e-10
2.121e-12
2.208e-10
1.908e-12
2.198e-10
1.73e-12
2.19e-10
1.587e-12
2.181e-10
1.48e-12
2.174e-10
1.41e-12
2.166e-10
1.382e-12
2.159e-10
1.399e-12
2.151e-10
1.464e-12
2.144e-10
1.578e-12
2.136e-10
1.725e-12
1.844e-12
9.752e-10
1.589e-10
9.931e-10
3.038e-10
9.729e-10
3.376e-10
9.271e-10
3.188e-10
8.694e-10
2.809e-10
8.09e-10
2.396e-10
7.511e-10
2.015e-10
6.982e-10
1.686e-10
6.51e-10
1.412e-10
6.096e-10
1.184e-10
5.736e-10
9.966e-11
5.424e-10
8.41e-11
5.155e-10
7.111e-11
4.925e-10
6.017e-11
4.727e-10
5.087e-11
4.559e-10
4.287e-11
4.417e-10
3.593e-11
4.298e-10
2.983e-11
4.201e-10
2.442e-11
4.123e-10
1.955e-11
4.062e-10
1.512e-11
4.018e-10
1.104e-11
3.989e-10
7.222e-12
3.975e-10
3.614e-12
3.975e-10
1.555e-13
3.989e-10
-3.203e-12
4.016e-10
-6.505e-12
4.057e-10
-9.788e-12
4.112e-10
-1.308e-11
4.18e-10
-1.642e-11
4.262e-10
-1.983e-11
4.358e-10
-2.334e-11
4.47e-10
-2.695e-11
4.596e-10
-3.068e-11
4.739e-10
-3.455e-11
4.897e-10
-3.855e-11
5.073e-10
-4.269e-11
5.265e-10
-4.696e-11
5.476e-10
-5.135e-11
5.704e-10
-5.583e-11
5.951e-10
-6.037e-11
6.216e-10
-6.493e-11
6.499e-10
-6.946e-11
6.799e-10
-7.389e-11
7.117e-10
-7.816e-11
7.45e-10
-8.217e-11
7.798e-10
-8.583e-11
8.158e-10
-8.903e-11
8.528e-10
-9.166e-11
8.906e-10
-9.361e-11
9.287e-10
-9.474e-11
9.669e-10
-9.494e-11
1.005e-09
-9.41e-11
1.042e-09
-9.211e-11
1.077e-09
-8.889e-11
1.111e-09
-8.438e-11
1.143e-09
-7.854e-11
1.171e-09
-7.137e-11
1.196e-09
-6.292e-11
1.218e-09
-5.327e-11
1.235e-09
-4.257e-11
1.247e-09
-3.1e-11
1.255e-09
-1.878e-11
1.257e-09
-6.203e-12
1.255e-09
6.454e-12
1.247e-09
1.889e-11
1.235e-09
3.084e-11
1.219e-09
4.205e-11
1.198e-09
5.235e-11
1.173e-09
6.157e-11
1.145e-09
6.963e-11
1.115e-09
7.647e-11
1.082e-09
8.208e-11
1.047e-09
8.648e-11
1.011e-09
8.969e-11
9.743e-10
9.178e-11
9.369e-10
9.283e-11
8.994e-10
9.292e-11
8.622e-10
9.215e-11
8.255e-10
9.062e-11
7.897e-10
8.843e-11
7.549e-10
8.57e-11
7.214e-10
8.252e-11
6.892e-10
7.899e-11
6.585e-10
7.52e-11
6.294e-10
7.123e-11
6.019e-10
6.716e-11
5.761e-10
6.305e-11
5.519e-10
5.896e-11
5.293e-10
5.494e-11
5.083e-10
5.101e-11
4.888e-10
4.722e-11
4.707e-10
4.358e-11
4.541e-10
4.011e-11
4.389e-10
3.683e-11
4.249e-10
3.373e-11
4.12e-10
3.083e-11
4.003e-10
2.811e-11
3.896e-10
2.559e-11
3.799e-10
2.325e-11
3.711e-10
2.108e-11
3.631e-10
1.909e-11
3.558e-10
1.726e-11
3.493e-10
1.557e-11
3.433e-10
1.404e-11
3.38e-10
1.263e-11
3.332e-10
1.135e-11
3.289e-10
1.019e-11
3.25e-10
9.131e-12
3.215e-10
8.174e-12
3.184e-10
7.309e-12
3.156e-10
6.53e-12
3.131e-10
5.83e-12
3.109e-10
5.204e-12
3.089e-10
4.646e-12
3.071e-10
4.154e-12
3.055e-10
3.722e-12
3.041e-10
3.35e-12
3.028e-10
3.035e-12
3.016e-10
2.777e-12
3.005e-10
2.577e-12
2.995e-10
2.435e-12
2.985e-10
2.355e-12
2.976e-10
2.336e-12
2.966e-10
2.38e-12
2.957e-10
2.478e-12
2.949e-10
2.607e-12
2.706e-12
9.668e-10
1.296e-10
9.945e-10
2.761e-10
9.98e-10
3.34e-10
9.784e-10
3.384e-10
9.43e-10
3.162e-10
8.994e-10
2.833e-10
8.529e-10
2.48e-10
8.07e-10
2.146e-10
7.636e-10
1.845e-10
7.239e-10
1.582e-10
6.88e-10
1.355e-10
6.561e-10
1.16e-10
6.279e-10
9.927e-11
6.033e-10
8.481e-11
5.819e-10
7.226e-11
5.635e-10
6.13e-11
5.478e-10
5.163e-11
5.346e-10
4.304e-11
5.236e-10
3.533e-11
5.149e-10
2.834e-11
5.08e-10
2.193e-11
5.031e-10
1.598e-11
4.999e-10
1.039e-11
4.985e-10
5.078e-12
4.987e-10
-3.218e-14
5.005e-10
-5.008e-12
5.039e-10
-9.91e-12
5.089e-10
-1.479e-11
5.155e-10
-1.969e-11
5.237e-10
-2.466e-11
5.336e-10
-2.974e-11
5.452e-10
-3.494e-11
5.586e-10
-4.03e-11
5.738e-10
-4.585e-11
5.908e-10
-5.158e-11
6.098e-10
-5.751e-11
6.307e-10
-6.363e-11
6.537e-10
-6.994e-11
6.787e-10
-7.641e-11
7.059e-10
-8.3e-11
7.352e-10
-8.967e-11
7.666e-10
-9.636e-11
8.002e-10
-1.03e-10
8.357e-10
-1.095e-10
8.733e-10
-1.157e-10
9.127e-10
-1.215e-10
9.537e-10
-1.269e-10
9.961e-10
-1.315e-10
1.04e-09
-1.353e-10
1.084e-09
-1.381e-10
1.129e-09
-1.396e-10
1.174e-09
-1.399e-10
1.218e-09
-1.385e-10
1.262e-09
-1.356e-10
1.304e-09
-1.308e-10
1.344e-09
-1.241e-10
1.38e-09
-1.155e-10
1.414e-09
-1.049e-10
1.444e-09
-9.253e-11
1.469e-09
-7.836e-11
1.489e-09
-6.265e-11
1.504e-09
-4.566e-11
1.512e-09
-2.774e-11
1.516e-09
-9.272e-12
1.513e-09
9.31e-12
1.504e-09
2.757e-11
1.49e-09
4.512e-11
1.47e-09
6.16e-11
1.446e-09
7.673e-11
1.417e-09
9.03e-11
1.385e-09
1.022e-10
1.349e-09
1.123e-10
1.31e-09
1.206e-10
1.269e-09
1.272e-10
1.227e-09
1.32e-10
1.184e-09
1.352e-10
1.14e-09
1.368e-10
1.096e-09
1.37e-10
1.052e-09
1.36e-10
1.009e-09
1.339e-10
9.663e-10
1.308e-10
9.251e-10
1.268e-10
8.854e-10
1.222e-10
8.473e-10
1.171e-10
8.109e-10
1.116e-10
7.763e-10
1.058e-10
7.436e-10
9.987e-11
7.128e-10
9.386e-11
6.839e-10
8.786e-11
6.569e-10
8.194e-11
6.317e-10
7.616e-11
6.084e-10
7.057e-11
5.868e-10
6.52e-11
5.668e-10
6.007e-11
5.484e-10
5.521e-11
5.316e-10
5.062e-11
5.161e-10
4.631e-11
5.019e-10
4.228e-11
4.89e-10
3.852e-11
4.772e-10
3.503e-11
4.665e-10
3.181e-11
4.567e-10
2.883e-11
4.479e-10
2.609e-11
4.399e-10
2.357e-11
4.327e-10
2.126e-11
4.261e-10
1.916e-11
4.203e-10
1.723e-11
4.15e-10
1.548e-11
4.102e-10
1.389e-11
4.059e-10
1.245e-11
4.021e-10
1.115e-11
3.986e-10
9.972e-12
3.956e-10
8.914e-12
3.928e-10
7.965e-12
3.903e-10
7.119e-12
3.881e-10
6.368e-12
3.861e-10
5.709e-12
3.843e-10
5.137e-12
3.827e-10
4.649e-12
3.813e-10
4.243e-12
3.799e-10
3.919e-12
3.787e-10
3.675e-12
3.775e-10
3.513e-12
3.764e-10
3.43e-12
3.754e-10
3.423e-12
3.744e-10
3.48e-12
3.734e-10
3.572e-12
3.646e-12
9.592e-10
1.079e-10
9.876e-10
2.477e-10
1.003e-09
3.187e-10
1.001e-09
3.408e-10
9.832e-10
3.336e-10
9.555e-10
3.11e-10
9.217e-10
2.818e-10
8.854e-10
2.508e-10
8.49e-10
2.209e-10
8.139e-10
1.933e-10
7.811e-10
1.683e-10
7.51e-10
1.461e-10
7.238e-10
1.265e-10
6.995e-10
1.091e-10
6.781e-10
9.369e-11
6.594e-10
7.999e-11
6.433e-10
6.773e-11
6.296e-10
5.669e-11
6.183e-10
4.667e-11
6.091e-10
3.749e-11
6.021e-10
2.9e-11
5.97e-10
2.107e-11
5.938e-10
1.357e-11
5.925e-10
6.412e-12
5.929e-10
-5.06e-13
5.952e-10
-7.265e-12
5.992e-10
-1.394e-11
6.05e-10
-2.06e-11
6.126e-10
-2.729e-11
6.221e-10
-3.408e-11
6.333e-10
-4.102e-11
6.465e-10
-4.813e-11
6.617e-10
-5.546e-11
6.788e-10
-6.302e-11
6.981e-10
-7.084e-11
7.195e-10
-7.892e-11
7.431e-10
-8.725e-11
7.69e-10
-9.583e-11
7.972e-10
-1.046e-10
8.278e-10
-1.136e-10
8.607e-10
-1.226e-10
8.96e-10
-1.316e-10
9.336e-10
-1.406e-10
9.735e-10
-1.494e-10
1.016e-09
-1.577e-10
1.06e-09
-1.656e-10
1.105e-09
-1.727e-10
1.153e-09
-1.789e-10
1.202e-09
-1.84e-10
1.251e-09
-1.877e-10
1.301e-09
-1.898e-10
1.352e-09
-1.9e-10
1.401e-09
-1.882e-10
1.45e-09
-1.841e-10
1.496e-09
-1.775e-10
1.541e-09
-1.685e-10
1.582e-09
-1.568e-10
1.62e-09
-1.425e-10
1.653e-09
-1.256e-10
1.681e-09
-1.065e-10
1.703e-09
-8.516e-11
1.72e-09
-6.213e-11
1.73e-09
-3.781e-11
1.733e-09
-1.276e-11
1.73e-09
1.245e-11
1.721e-09
3.723e-11
1.705e-09
6.103e-11
1.683e-09
8.338e-11
1.656e-09
1.039e-10
1.624e-09
1.223e-10
1.587e-09
1.385e-10
1.548e-09
1.522e-10
1.505e-09
1.635e-10
1.459e-09
1.725e-10
1.412e-09
1.791e-10
1.364e-09
1.835e-10
1.315e-09
1.859e-10
1.265e-09
1.863e-10
1.216e-09
1.851e-10
1.168e-09
1.823e-10
1.121e-09
1.781e-10
1.074e-09
1.729e-10
1.03e-09
1.668e-10
9.871e-10
1.599e-10
9.462e-10
1.525e-10
9.074e-10
1.447e-10
8.705e-10
1.367e-10
8.358e-10
1.286e-10
8.032e-10
1.204e-10
7.728e-10
1.124e-10
7.443e-10
1.046e-10
7.179e-10
9.7e-11
6.934e-10
8.97e-11
6.707e-10
8.272e-11
6.499e-10
7.609e-11
6.306e-10
6.983e-11
6.13e-10
6.394e-11
5.969e-10
5.843e-11
5.821e-10
5.329e-11
5.686e-10
4.851e-11
5.563e-10
4.408e-11
5.452e-10
3.999e-11
5.35e-10
3.622e-11
5.258e-10
3.276e-11
5.175e-10
2.959e-11
5.1e-10
2.668e-11
5.032e-10
2.403e-11
4.971e-10
2.161e-11
4.916e-10
1.941e-11
4.866e-10
1.741e-11
4.821e-10
1.561e-11
4.781e-10
1.397e-11
4.746e-10
1.25e-11
4.713e-10
1.118e-11
4.685e-10
1e-11
4.659e-10
8.953e-12
4.636e-10
8.028e-12
4.615e-10
7.221e-12
4.596e-10
6.527e-12
4.579e-10
5.942e-12
4.563e-10
5.464e-12
4.549e-10
5.09e-12
4.536e-10
4.818e-12
4.524e-10
4.645e-12
4.513e-10
4.562e-12
4.502e-10
4.556e-12
4.492e-10
4.598e-12
4.643e-12
9.536e-10
9.177e-11
9.796e-10
2.217e-10
9.999e-10
2.984e-10
1.008e-09
3.327e-10
1.004e-09
3.38e-10
9.889e-10
3.257e-10
9.671e-10
3.036e-10
9.408e-10
2.771e-10
9.124e-10
2.493e-10
8.836e-10
2.221e-10
8.555e-10
1.964e-10
8.289e-10
1.728e-10
8.042e-10
1.512e-10
7.817e-10
1.316e-10
7.615e-10
1.139e-10
7.437e-10
9.784e-11
7.281e-10
8.327e-11
7.148e-10
6.997e-11
7.038e-10
5.775e-11
6.948e-10
4.645e-11
6.879e-10
3.59e-11
6.83e-10
2.597e-11
6.801e-10
1.652e-11
6.79e-10
7.45e-12
6.799e-10
-1.355e-12
6.826e-10
-9.99e-12
6.872e-10
-1.854e-11
6.937e-10
-2.709e-11
7.021e-10
-3.57e-11
7.124e-10
-4.444e-11
7.248e-10
-5.336e-11
7.392e-10
-6.252e-11
7.557e-10
-7.196e-11
7.744e-10
-8.169e-11
7.953e-10
-9.175e-11
8.185e-10
-1.021e-10
8.441e-10
-1.128e-10
8.721e-10
-1.238e-10
9.026e-10
-1.351e-10
9.356e-10
-1.466e-10
9.712e-10
-1.581e-10
1.009e-09
-1.697e-10
1.05e-09
-1.812e-10
1.093e-09
-1.923e-10
1.138e-09
-2.03e-10
1.186e-09
-2.131e-10
1.235e-09
-2.222e-10
1.286e-09
-2.301e-10
1.339e-09
-2.365e-10
1.392e-09
-2.411e-10
1.446e-09
-2.437e-10
1.5e-09
-2.44e-10
1.553e-09
-2.416e-10
1.606e-09
-2.363e-10
1.656e-09
-2.279e-10
1.704e-09
-2.163e-10
1.748e-09
-2.013e-10
1.789e-09
-1.83e-10
1.825e-09
-1.615e-10
1.855e-09
-1.369e-10
1.88e-09
-1.095e-10
1.897e-09
-7.998e-11
1.908e-09
-4.876e-11
1.912e-09
-1.656e-11
1.909e-09
1.583e-11
1.898e-09
4.766e-11
1.881e-09
7.822e-11
1.858e-09
1.069e-10
1.828e-09
1.332e-10
1.794e-09
1.568e-10
1.755e-09
1.775e-10
1.712e-09
1.951e-10
1.666e-09
2.097e-10
1.617e-09
2.212e-10
1.566e-09
2.298e-10
1.514e-09
2.356e-10
1.461e-09
2.387e-10
1.408e-09
2.394e-10
1.356e-09
2.379e-10
1.303e-09
2.344e-10
1.252e-09
2.292e-10
1.203e-09
2.226e-10
1.155e-09
2.148e-10
1.108e-09
2.061e-10
1.064e-09
1.967e-10
1.022e-09
1.868e-10
9.823e-10
1.765e-10
9.447e-10
1.661e-10
9.094e-10
1.558e-10
8.764e-10
1.455e-10
8.455e-10
1.355e-10
8.168e-10
1.257e-10
7.901e-10
1.163e-10
7.654e-10
1.074e-10
7.427e-10
9.886e-11
7.217e-10
9.08e-11
7.024e-10
8.321e-11
6.848e-10
7.61e-11
6.686e-10
6.946e-11
6.538e-10
6.329e-11
6.404e-10
5.756e-11
6.281e-10
5.226e-11
6.169e-10
4.738e-11
6.068e-10
4.289e-11
5.976e-10
3.877e-11
5.893e-10
3.499e-11
5.818e-10
3.154e-11
5.75e-10
2.839e-11
5.689e-10
2.552e-11
5.634e-10
2.292e-11
5.584e-10
2.056e-11
5.54e-10
1.842e-11
5.5e-10
1.65e-11
5.464e-10
1.477e-11
5.432e-10
1.322e-11
5.403e-10
1.184e-11
5.377e-10
1.061e-11
5.354e-10
9.543e-12
5.333e-10
8.616e-12
5.314e-10
7.825e-12
5.297e-10
7.168e-12
5.282e-10
6.639e-12
5.268e-10
6.234e-12
5.255e-10
5.947e-12
5.243e-10
5.769e-12
5.231e-10
5.684e-12
5.221e-10
5.667e-12
5.679e-12
9.498e-10
7.945e-11
9.726e-10
1.989e-10
9.942e-10
2.768e-10
1.008e-09
3.187e-10
1.013e-09
3.336e-10
1.008e-09
3.303e-10
9.961e-10
3.155e-10
9.791e-10
2.942e-10
9.587e-10
2.696e-10
9.366e-10
2.441e-10
9.141e-10
2.19e-10
8.919e-10
1.949e-10
8.708e-10
1.723e-10
8.51e-10
1.513e-10
8.33e-10
1.319e-10
8.168e-10
1.14e-10
8.026e-10
9.751e-11
7.903e-10
8.223e-11
7.801e-10
6.803e-11
7.718e-10
5.475e-11
7.654e-10
4.225e-11
7.61e-10
3.039e-11
7.585e-10
1.903e-11
7.579e-10
8.055e-12
7.592e-10
-2.646e-12
7.624e-10
-1.318e-11
7.675e-10
-2.365e-11
7.745e-10
-3.413e-11
7.835e-10
-4.471e-11
7.946e-10
-5.546e-11
8.076e-10
-6.646e-11
8.229e-10
-7.774e-11
8.403e-10
-8.936e-11
8.599e-10
-1.014e-10
8.819e-10
-1.137e-10
9.063e-10
-1.265e-10
9.332e-10
-1.397e-10
9.626e-10
-1.532e-10
9.945e-10
-1.671e-10
1.029e-09
-1.812e-10
1.066e-09
-1.954e-10
1.106e-09
-2.096e-10
1.149e-09
-2.236e-10
1.194e-09
-2.373e-10
1.241e-09
-2.504e-10
1.291e-09
-2.627e-10
1.342e-09
-2.738e-10
1.396e-09
-2.835e-10
1.451e-09
-2.914e-10
1.507e-09
-2.971e-10
1.563e-09
-3.002e-10
1.62e-09
-3.005e-10
1.676e-09
-2.976e-10
1.73e-09
-2.911e-10
1.783e-09
-2.808e-10
1.833e-09
-2.665e-10
1.88e-09
-2.481e-10
1.923e-09
-2.257e-10
1.961e-09
-1.992e-10
1.993e-09
-1.689e-10
2.018e-09
-1.353e-10
2.037e-09
-9.885e-11
2.049e-09
-6.032e-11
2.053e-09
-2.057e-11
2.049e-09
1.942e-11
2.038e-09
5.869e-11
2.02e-09
9.635e-11
1.995e-09
1.316e-10
1.965e-09
1.64e-10
1.928e-09
1.93e-10
1.887e-09
2.184e-10
1.842e-09
2.401e-10
1.794e-09
2.58e-10
1.743e-09
2.722e-10
1.69e-09
2.828e-10
1.636e-09
2.9e-10
1.58e-09
2.939e-10
1.525e-09
2.949e-10
1.47e-09
2.931e-10
1.415e-09
2.889e-10
1.362e-09
2.827e-10
1.31e-09
2.747e-10
1.259e-09
2.652e-10
1.211e-09
2.545e-10
1.165e-09
2.43e-10
1.12e-09
2.309e-10
1.079e-09
2.183e-10
1.039e-09
2.056e-10
1.002e-09
1.929e-10
9.674e-10
1.803e-10
9.349e-10
1.679e-10
9.047e-10
1.56e-10
8.766e-10
1.444e-10
8.506e-10
1.334e-10
8.266e-10
1.229e-10
8.044e-10
1.129e-10
7.84e-10
1.036e-10
7.654e-10
9.48e-11
7.482e-10
8.659e-11
7.326e-10
7.895e-11
7.182e-10
7.186e-11
7.052e-10
6.53e-11
6.933e-10
5.925e-11
6.826e-10
5.367e-11
6.728e-10
4.855e-11
6.639e-10
4.386e-11
6.559e-10
3.956e-11
6.486e-10
3.564e-11
6.421e-10
3.207e-11
6.362e-10
2.882e-11
6.309e-10
2.588e-11
6.261e-10
2.321e-11
6.218e-10
2.08e-11
6.179e-10
1.863e-11
6.145e-10
1.668e-11
6.114e-10
1.494e-11
6.086e-10
1.34e-11
6.061e-10
1.204e-11
6.038e-10
1.086e-11
6.018e-10
9.842e-12
6e-10
8.985e-12
5.983e-10
8.282e-12
5.969e-10
7.724e-12
5.955e-10
7.306e-12
5.943e-10
7.017e-12
5.931e-10
6.841e-12
5.92e-10
6.757e-12
6.734e-12
9.472e-10
6.974e-11
9.67e-10
1.791e-10
9.883e-10
2.556e-10
1.005e-09
3.017e-10
1.015e-09
3.236e-10
1.018e-09
3.276e-10
1.014e-09
3.194e-10
1.005e-09
3.033e-10
9.92e-10
2.826e-10
9.765e-10
2.596e-10
9.596e-10
2.358e-10
9.423e-10
2.122e-10
9.252e-10
1.894e-10
9.088e-10
1.677e-10
8.936e-10
1.472e-10
8.796e-10
1.279e-10
8.672e-10
1.099e-10
8.565e-10
9.299e-11
8.474e-10
7.708e-11
8.401e-10
6.205e-11
8.346e-10
4.776e-11
8.309e-10
3.41e-11
8.29e-10
2.093e-11
8.289e-10
8.13e-12
8.307e-10
-4.414e-12
8.343e-10
-1.681e-11
8.399e-10
-2.917e-11
8.473e-10
-4.158e-11
8.567e-10
-5.413e-11
8.682e-10
-6.691e-11
8.817e-10
-7.997e-11
8.973e-10
-9.34e-11
9.152e-10
-1.072e-10
9.354e-10
-1.215e-10
9.579e-10
-1.362e-10
9.828e-10
-1.515e-10
1.01e-09
-1.671e-10
1.04e-09
-1.832e-10
1.073e-09
-1.997e-10
1.108e-09
-2.164e-10
1.146e-09
-2.333e-10
1.187e-09
-2.502e-10
1.23e-09
-2.669e-10
1.276e-09
-2.832e-10
1.324e-09
-2.988e-10
1.375e-09
-3.133e-10
1.428e-09
-3.265e-10
1.482e-09
-3.38e-10
1.538e-09
-3.474e-10
1.595e-09
-3.542e-10
1.653e-09
-3.579e-10
1.711e-09
-3.583e-10
1.768e-09
-3.548e-10
1.824e-09
-3.471e-10
1.878e-09
-3.349e-10
1.93e-09
-3.18e-10
1.978e-09
-2.962e-10
2.021e-09
-2.695e-10
2.06e-09
-2.38e-10
2.093e-09
-2.02e-10
2.12e-09
-1.619e-10
2.139e-09
-1.184e-10
2.151e-09
-7.226e-11
2.155e-09
-2.468e-11
2.152e-09
2.32e-11
2.14e-09
7.016e-11
2.121e-09
1.151e-10
2.096e-09
1.572e-10
2.064e-09
1.956e-10
2.027e-09
2.301e-10
1.985e-09
2.603e-10
1.939e-09
2.861e-10
1.89e-09
3.074e-10
1.838e-09
3.243e-10
1.784e-09
3.37e-10
1.728e-09
3.455e-10
1.672e-09
3.503e-10
1.615e-09
3.515e-10
1.559e-09
3.495e-10
1.503e-09
3.446e-10
1.449e-09
3.373e-10
1.395e-09
3.278e-10
1.344e-09
3.166e-10
1.295e-09
3.04e-10
1.247e-09
2.903e-10
1.202e-09
2.759e-10
1.159e-09
2.61e-10
1.119e-09
2.459e-10
1.081e-09
2.308e-10
1.046e-09
2.158e-10
1.012e-09
2.012e-10
9.814e-10
1.869e-10
9.526e-10
1.732e-10
9.26e-10
1.601e-10
9.013e-10
1.475e-10
8.786e-10
1.357e-10
8.576e-10
1.245e-10
8.384e-10
1.14e-10
8.208e-10
1.042e-10
8.046e-10
9.51e-11
7.899e-10
8.662e-11
7.764e-10
7.877e-11
7.641e-10
7.151e-11
7.53e-10
6.483e-11
7.428e-10
5.869e-11
7.336e-10
5.305e-11
7.253e-10
4.789e-11
7.178e-10
4.318e-11
7.11e-10
3.888e-11
7.048e-10
3.497e-11
6.993e-10
3.141e-11
6.943e-10
2.819e-11
6.898e-10
2.528e-11
6.858e-10
2.266e-11
6.822e-10
2.03e-11
6.789e-10
1.819e-11
6.76e-10
1.631e-11
6.734e-10
1.465e-11
6.711e-10
1.32e-11
6.69e-10
1.194e-11
6.671e-10
1.087e-11
6.654e-10
9.977e-12
6.639e-10
9.253e-12
6.625e-10
8.691e-12
6.612e-10
8.279e-12
6.6e-10
8.004e-12
6.59e-10
7.848e-12
7.789e-12
9.454e-10
6.185e-11
9.626e-10
1.618e-10
9.828e-10
2.354e-10
1.001e-09
2.834e-10
1.015e-09
3.1e-10
1.023e-09
3.197e-10
1.025e-09
3.172e-10
1.022e-09
3.06e-10
1.015e-09
2.892e-10
1.006e-09
2.691e-10
9.946e-10
2.472e-10
9.821e-10
2.247e-10
9.692e-10
2.023e-10
9.565e-10
1.804e-10
9.443e-10
1.594e-10
9.329e-10
1.393e-10
9.227e-10
1.201e-10
9.138e-10
1.019e-10
9.062e-10
8.461e-11
9.002e-10
6.808e-11
8.957e-10
5.223e-11
8.929e-10
3.695e-11
8.917e-10
2.212e-11
8.922e-10
7.622e-12
8.944e-10
-6.658e-12
8.985e-10
-2.083e-11
9.043e-10
-3.5e-11
9.12e-10
-4.928e-11
9.216e-10
-6.374e-11
9.332e-10
-7.849e-11
9.468e-10
-9.36e-11
9.626e-10
-1.091e-10
9.805e-10
-1.251e-10
1.001e-09
-1.417e-10
1.023e-09
-1.587e-10
1.048e-09
-1.763e-10
1.075e-09
-1.945e-10
1.105e-09
-2.131e-10
1.138e-09
-2.322e-10
1.173e-09
-2.516e-10
1.211e-09
-2.711e-10
1.251e-09
-2.907e-10
1.294e-09
-3.1e-10
1.34e-09
-3.288e-10
1.388e-09
-3.469e-10
1.438e-09
-3.638e-10
1.491e-09
-3.791e-10
1.545e-09
-3.924e-10
1.601e-09
-4.033e-10
1.658e-09
-4.111e-10
1.716e-09
-4.156e-10
1.774e-09
-4.16e-10
1.831e-09
-4.12e-10
1.887e-09
-4.032e-10
1.941e-09
-3.891e-10
1.993e-09
-3.696e-10
2.041e-09
-3.444e-10
2.085e-09
-3.135e-10
2.124e-09
-2.77e-10
2.157e-09
-2.353e-10
2.184e-09
-1.887e-10
2.204e-09
-1.381e-10
2.216e-09
-8.43e-11
2.22e-09
-2.874e-11
2.216e-09
2.715e-11
2.204e-09
8.189e-11
2.185e-09
1.342e-10
2.159e-09
1.829e-10
2.128e-09
2.275e-10
2.09e-09
2.673e-10
2.048e-09
3.022e-10
2.003e-09
3.319e-10
1.953e-09
3.566e-10
1.901e-09
3.762e-10
1.848e-09
3.909e-10
1.792e-09
4.009e-10
1.736e-09
4.065e-10
1.679e-09
4.08e-10
1.623e-09
4.057e-10
1.568e-09
4.002e-10
1.513e-09
3.917e-10
1.46e-09
3.808e-10
1.409e-09
3.679e-10
1.36e-09
3.533e-10
1.312e-09
3.375e-10
1.267e-09
3.209e-10
1.225e-09
3.037e-10
1.184e-09
2.862e-10
1.147e-09
2.687e-10
1.111e-09
2.514e-10
1.078e-09
2.344e-10
1.047e-09
2.179e-10
1.018e-09
2.02e-10
9.915e-10
1.867e-10
9.669e-10
1.722e-10
9.441e-10
1.585e-10
9.231e-10
1.455e-10
9.038e-10
1.333e-10
8.861e-10
1.219e-10
8.699e-10
1.113e-10
8.551e-10
1.014e-10
8.415e-10
9.231e-11
8.292e-10
8.386e-11
8.179e-10
7.607e-11
8.077e-10
6.891e-11
7.984e-10
6.233e-11
7.9e-10
5.631e-11
7.824e-10
5.08e-11
7.755e-10
4.577e-11
7.693e-10
4.119e-11
7.637e-10
3.703e-11
7.586e-10
3.326e-11
7.54e-10
2.984e-11
7.499e-10
2.675e-11
7.463e-10
2.398e-11
7.43e-10
2.149e-11
7.4e-10
1.927e-11
7.373e-10
1.73e-11
7.35e-10
1.557e-11
7.328e-10
1.407e-11
7.309e-10
1.277e-11
7.292e-10
1.168e-11
7.277e-10
1.078e-11
7.263e-10
1.007e-11
7.251e-10
9.53e-12
7.239e-10
9.151e-12
7.229e-10
8.921e-12
8.824e-12
9.441e-10
5.527e-11
9.592e-10
1.467e-10
9.781e-10
2.165e-10
9.966e-10
2.649e-10
1.012e-09
2.943e-10
1.024e-09
3.083e-10
1.031e-09
3.103e-10
1.033e-09
3.035e-10
1.032e-09
2.905e-10
1.028e-09
2.733e-10
1.021e-09
2.537e-10
1.013e-09
2.327e-10
1.004e-09
2.111e-10
9.953e-10
1.896e-10
9.863e-10
1.684e-10
9.777e-10
1.479e-10
9.698e-10
1.28e-10
9.629e-10
1.089e-10
9.57e-10
9.046e-11
9.524e-10
7.271e-11
9.491e-10
5.554e-11
9.472e-10
3.885e-11
9.468e-10
2.255e-11
9.479e-10
6.521e-12
9.505e-10
-9.346e-12
9.549e-10
-2.516e-11
9.609e-10
-4.103e-11
9.687e-10
-5.705e-11
9.783e-10
-7.333e-11
9.897e-10
-8.995e-11
1.003e-09
-1.07e-10
1.019e-09
-1.245e-10
1.036e-09
-1.426e-10
1.056e-09
-1.613e-10
1.078e-09
-1.806e-10
1.102e-09
-2.006e-10
1.128e-09
-2.211e-10
1.158e-09
-2.422e-10
1.189e-09
-2.638e-10
1.223e-09
-2.857e-10
1.26e-09
-3.079e-10
1.299e-09
-3.3e-10
1.341e-09
-3.519e-10
1.386e-09
-3.733e-10
1.433e-09
-3.938e-10
1.482e-09
-4.129e-10
1.533e-09
-4.303e-10
1.586e-09
-4.454e-10
1.641e-09
-4.578e-10
1.696e-09
-4.667e-10
1.752e-09
-4.718e-10
1.809e-09
-4.723e-10
1.865e-09
-4.679e-10
1.919e-09
-4.579e-10
1.972e-09
-4.42e-10
2.023e-09
-4.2e-10
2.07e-09
-3.915e-10
2.113e-09
-3.566e-10
2.151e-09
-3.153e-10
2.184e-09
-2.68e-10
2.21e-09
-2.151e-10
2.23e-09
-1.575e-10
2.241e-09
-9.611e-11
2.245e-09
-3.26e-11
2.241e-09
3.125e-11
2.229e-09
9.368e-11
2.21e-09
1.531e-10
2.185e-09
2.083e-10
2.154e-09
2.586e-10
2.118e-09
3.036e-10
2.077e-09
3.429e-10
2.032e-09
3.765e-10
1.984e-09
4.044e-10
1.934e-09
4.266e-10
1.882e-09
4.433e-10
1.828e-09
4.548e-10
1.773e-09
4.612e-10
1.718e-09
4.63e-10
1.663e-09
4.606e-10
1.609e-09
4.543e-10
1.556e-09
4.448e-10
1.504e-09
4.325e-10
1.454e-09
4.179e-10
1.406e-09
4.014e-10
1.36e-09
3.836e-10
1.316e-09
3.647e-10
1.275e-09
3.452e-10
1.235e-09
3.254e-10
1.199e-09
3.056e-10
1.164e-09
2.86e-10
1.132e-09
2.667e-10
1.101e-09
2.48e-10
1.073e-09
2.3e-10
1.047e-09
2.127e-10
1.023e-09
1.963e-10
1.001e-09
1.807e-10
9.805e-10
1.66e-10
9.616e-10
1.522e-10
9.443e-10
1.392e-10
9.284e-10
1.272e-10
9.139e-10
1.16e-10
9.006e-10
1.056e-10
8.885e-10
9.598e-11
8.774e-10
8.712e-11
8.674e-10
7.896e-11
8.582e-10
7.147e-11
8.5e-10
6.46e-11
8.424e-10
5.831e-11
8.356e-10
5.258e-11
8.295e-10
4.735e-11
8.239e-10
4.259e-11
8.189e-10
3.826e-11
8.144e-10
3.435e-11
8.104e-10
3.081e-11
8.067e-10
2.762e-11
8.034e-10
2.476e-11
8.005e-10
2.22e-11
7.979e-10
1.993e-11
7.955e-10
1.792e-11
7.934e-10
1.617e-11
7.916e-10
1.465e-11
7.899e-10
1.336e-11
7.884e-10
1.228e-11
7.87e-10
1.141e-11
7.858e-10
1.074e-11
7.847e-10
1.026e-11
7.837e-10
9.952e-12
9.817e-12
9.431e-10
4.966e-11
9.565e-10
1.333e-10
9.741e-10
1.99e-10
9.924e-10
2.466e-10
1.009e-09
2.776e-10
1.023e-09
2.945e-10
1.033e-09
3.002e-10
1.04e-09
2.97e-10
1.043e-09
2.874e-10
1.043e-09
2.731e-10
1.041e-09
2.557e-10
1.037e-09
2.364e-10
1.032e-09
2.16e-10
1.027e-09
1.952e-10
1.021e-09
1.743e-10
1.015e-09
1.537e-10
1.009e-09
1.335e-10
1.004e-09
1.137e-10
1e-09
9.456e-11
9.972e-10
7.587e-11
9.951e-10
5.764e-11
9.942e-10
3.978e-11
9.945e-10
2.222e-11
9.962e-10
4.86e-12
9.992e-10
-1.241e-11
1.004e-09
-2.97e-11
1.01e-09
-4.71e-11
1.018e-09
-6.472e-11
1.027e-09
-8.266e-11
1.038e-09
-1.01e-10
1.051e-09
-1.199e-10
1.066e-09
-1.393e-10
1.082e-09
-1.593e-10
1.101e-09
-1.801e-10
1.122e-09
-2.015e-10
1.145e-09
-2.236e-10
1.17e-09
-2.464e-10
1.198e-09
-2.698e-10
1.228e-09
-2.938e-10
1.26e-09
-3.182e-10
1.295e-09
-3.428e-10
1.332e-09
-3.674e-10
1.372e-09
-3.917e-10
1.414e-09
-4.155e-10
1.459e-09
-4.383e-10
1.506e-09
-4.596e-10
1.554e-09
-4.79e-10
1.605e-09
-4.958e-10
1.656e-09
-5.096e-10
1.709e-09
-5.196e-10
1.763e-09
-5.252e-10
1.816e-09
-5.258e-10
1.869e-09
-5.209e-10
1.921e-09
-5.098e-10
1.971e-09
-4.922e-10
2.019e-09