/*--------------------------------*- C++ -*----------------------------------*\
  =========                 |
  \\      /  F ield         | OpenFOAM: The Open Source CFD Toolbox
   \\    /   O peration     | Website:  https://openfoam.org
    \\  /    A nd           | Version:  7
     \\/     M anipulation  |
\*---------------------------------------------------------------------------*/
FoamFile
{
    version     2.0;
    format      ascii;
    class       volVectorField;
    location    "479.999473411093675";
    object      U;
}
// * * * * * * * * * * * * * * * * * * * * * * * * * * * * * * * * * * * * * //

dimensions      [0 1 -1 0 0 0 0];

internalField   nonuniform List<vector> 
4096
(
(0.001039 0.0001611 0)
(0.0007463 0.0001314 0)
(0.0005302 8.474e-05 0)
(0.0003918 5.358e-05 0)
(0.0003036 3.465e-05 0)
(0.0002457 2.326e-05 0)
(0.0002061 1.63e-05 0)
(0.0001779 1.191e-05 0)
(0.000157 9.019e-06 0)
(0.0001409 7.026e-06 0)
(0.0001283 5.593e-06 0)
(0.0001182 4.524e-06 0)
(0.00011 3.702e-06 0)
(0.0001032 3.053e-06 0)
(9.763e-05 2.529e-06 0)
(9.3e-05 2.097e-06 0)
(8.917e-05 1.734e-06 0)
(8.601e-05 1.425e-06 0)
(8.343e-05 1.156e-06 0)
(8.136e-05 9.198e-07 0)
(7.973e-05 7.081e-07 0)
(7.851e-05 5.156e-07 0)
(7.765e-05 3.377e-07 0)
(7.714e-05 1.709e-07 0)
(7.696e-05 1.187e-08 0)
(7.709e-05 -1.42e-07 0)
(7.753e-05 -2.93e-07 0)
(7.826e-05 -4.431e-07 0)
(7.93e-05 -5.941e-07 0)
(8.064e-05 -7.476e-07 0)
(8.229e-05 -9.048e-07 0)
(8.427e-05 -1.067e-06 0)
(8.657e-05 -1.235e-06 0)
(8.921e-05 -1.411e-06 0)
(9.222e-05 -1.593e-06 0)
(9.559e-05 -1.784e-06 0)
(9.936e-05 -1.982e-06 0)
(0.0001035 -2.188e-06 0)
(0.0001081 -2.402e-06 0)
(0.0001131 -2.621e-06 0)
(0.0001186 -2.846e-06 0)
(0.0001245 -3.073e-06 0)
(0.0001309 -3.302e-06 0)
(0.0001377 -3.527e-06 0)
(0.000145 -3.747e-06 0)
(0.0001527 -3.956e-06 0)
(0.0001608 -4.15e-06 0)
(0.0001693 -4.323e-06 0)
(0.0001781 -4.47e-06 0)
(0.0001871 -4.583e-06 0)
(0.0001964 -4.657e-06 0)
(0.0002057 -4.685e-06 0)
(0.0002151 -4.66e-06 0)
(0.0002243 -4.577e-06 0)
(0.0002333 -4.431e-06 0)
(0.000242 -4.217e-06 0)
(0.0002501 -3.935e-06 0)
(0.0002576 -3.582e-06 0)
(0.0002644 -3.162e-06 0)
(0.0002702 -2.678e-06 0)
(0.000275 -2.138e-06 0)
(0.0002787 -1.551e-06 0)
(0.0002812 -9.298e-07 0)
(0.0002824 -2.893e-07 0)
(0.0002823 3.547e-07 0)
(0.000281 9.862e-07 0)
(0.0002784 1.59e-06 0)
(0.0002747 2.154e-06 0)
(0.0002699 2.667e-06 0)
(0.0002641 3.123e-06 0)
(0.0002574 3.516e-06 0)
(0.0002501 3.845e-06 0)
(0.0002421 4.11e-06 0)
(0.0002337 4.311e-06 0)
(0.0002249 4.452e-06 0)
(0.0002159 4.536e-06 0)
(0.0002068 4.567e-06 0)
(0.0001977 4.551e-06 0)
(0.0001887 4.493e-06 0)
(0.0001798 4.398e-06 0)
(0.0001711 4.272e-06 0)
(0.0001627 4.121e-06 0)
(0.0001547 3.95e-06 0)
(0.0001469 3.763e-06 0)
(0.0001396 3.566e-06 0)
(0.0001327 3.362e-06 0)
(0.0001262 3.155e-06 0)
(0.0001201 2.948e-06 0)
(0.0001144 2.744e-06 0)
(0.0001091 2.545e-06 0)
(0.0001042 2.352e-06 0)
(9.967e-05 2.167e-06 0)
(9.551e-05 1.991e-06 0)
(9.169e-05 1.825e-06 0)
(8.82e-05 1.668e-06 0)
(8.501e-05 1.521e-06 0)
(8.211e-05 1.384e-06 0)
(7.947e-05 1.256e-06 0)
(7.707e-05 1.138e-06 0)
(7.49e-05 1.03e-06 0)
(7.295e-05 9.298e-07 0)
(7.118e-05 8.381e-07 0)
(6.959e-05 7.541e-07 0)
(6.815e-05 6.776e-07 0)
(6.687e-05 6.078e-07 0)
(6.572e-05 5.444e-07 0)
(6.468e-05 4.869e-07 0)
(6.376e-05 4.348e-07 0)
(6.294e-05 3.878e-07 0)
(6.221e-05 3.453e-07 0)
(6.155e-05 3.071e-07 0)
(6.097e-05 2.729e-07 0)
(6.046e-05 2.422e-07 0)
(6e-05 2.149e-07 0)
(5.96e-05 1.907e-07 0)
(5.924e-05 1.695e-07 0)
(5.892e-05 1.512e-07 0)
(5.863e-05 1.356e-07 0)
(5.837e-05 1.227e-07 0)
(5.814e-05 1.128e-07 0)
(5.792e-05 1.059e-07 0)
(5.771e-05 1.027e-07 0)
(5.75e-05 1.04e-07 0)
(5.729e-05 1.115e-07 0)
(5.705e-05 1.284e-07 0)
(5.676e-05 1.602e-07 0)
(5.638e-05 2.128e-07 0)
(5.589e-05 2.766e-07 0)
(0.001209 0.0003128 0)
(0.001154 0.0003282 0)
(0.00101 0.000248 0)
(0.0008613 0.000177 0)
(0.0007345 0.0001262 0)
(0.0006328 9.136e-05 0)
(0.0005528 6.778e-05 0)
(0.0004899 5.16e-05 0)
(0.0004399 4.022e-05 0)
(0.0003998 3.197e-05 0)
(0.0003673 2.583e-05 0)
(0.0003406 2.112e-05 0)
(0.0003185 1.742e-05 0)
(0.0003001 1.445e-05 0)
(0.0002848 1.203e-05 0)
(0.000272 1.001e-05 0)
(0.0002614 8.307e-06 0)
(0.0002525 6.842e-06 0)
(0.0002453 5.565e-06 0)
(0.0002394 4.435e-06 0)
(0.0002348 3.42e-06 0)
(0.0002314 2.495e-06 0)
(0.0002289 1.638e-06 0)
(0.0002275 8.337e-07 0)
(0.000227 6.602e-08 0)
(0.0002273 -6.768e-07 0)
(0.0002285 -1.406e-06 0)
(0.0002306 -2.13e-06 0)
(0.0002335 -2.857e-06 0)
(0.0002373 -3.595e-06 0)
(0.0002419 -4.351e-06 0)
(0.0002474 -5.128e-06 0)
(0.0002539 -5.933e-06 0)
(0.0002613 -6.768e-06 0)
(0.0002697 -7.637e-06 0)
(0.0002791 -8.541e-06 0)
(0.0002896 -9.48e-06 0)
(0.0003012 -1.045e-05 0)
(0.0003139 -1.146e-05 0)
(0.0003278 -1.249e-05 0)
(0.0003429 -1.354e-05 0)
(0.0003592 -1.46e-05 0)
(0.0003767 -1.566e-05 0)
(0.0003955 -1.67e-05 0)
(0.0004153 -1.772e-05 0)
(0.0004363 -1.868e-05 0)
(0.0004583 -1.956e-05 0)
(0.0004813 -2.034e-05 0)
(0.000505 -2.1e-05 0)
(0.0005294 -2.15e-05 0)
(0.0005543 -2.181e-05 0)
(0.0005793 -2.191e-05 0)
(0.0006043 -2.176e-05 0)
(0.0006289 -2.134e-05 0)
(0.0006529 -2.064e-05 0)
(0.0006758 -1.962e-05 0)
(0.0006974 -1.828e-05 0)
(0.0007173 -1.663e-05 0)
(0.0007351 -1.467e-05 0)
(0.0007505 -1.242e-05 0)
(0.0007633 -9.917e-06 0)
(0.000773 -7.202e-06 0)
(0.0007796 -4.333e-06 0)
(0.0007828 -1.376e-06 0)
(0.0007828 1.598e-06 0)
(0.0007793 4.516e-06 0)
(0.0007726 7.313e-06 0)
(0.0007629 9.93e-06 0)
(0.0007503 1.232e-05 0)
(0.0007351 1.445e-05 0)
(0.0007176 1.63e-05 0)
(0.0006982 1.785e-05 0)
(0.0006771 1.911e-05 0)
(0.0006548 2.008e-05 0)
(0.0006314 2.077e-05 0)
(0.0006074 2.12e-05 0)
(0.0005831 2.138e-05 0)
(0.0005586 2.134e-05 0)
(0.0005342 2.111e-05 0)
(0.0005102 2.07e-05 0)
(0.0004867 2.014e-05 0)
(0.0004639 1.946e-05 0)
(0.0004419 1.868e-05 0)
(0.0004208 1.783e-05 0)
(0.0004007 1.692e-05 0)
(0.0003817 1.598e-05 0)
(0.0003637 1.502e-05 0)
(0.0003468 1.406e-05 0)
(0.0003311 1.311e-05 0)
(0.0003163 1.218e-05 0)
(0.0003027 1.127e-05 0)
(0.00029 1.041e-05 0)
(0.0002784 9.575e-06 0)
(0.0002676 8.788e-06 0)
(0.0002578 8.044e-06 0)
(0.0002488 7.346e-06 0)
(0.0002406 6.694e-06 0)
(0.0002331 6.088e-06 0)
(0.0002262 5.525e-06 0)
(0.00022 5.005e-06 0)
(0.0002144 4.526e-06 0)
(0.0002094 4.086e-06 0)
(0.0002048 3.682e-06 0)
(0.0002006 3.313e-06 0)
(0.0001969 2.977e-06 0)
(0.0001936 2.671e-06 0)
(0.0001906 2.393e-06 0)
(0.0001879 2.14e-06 0)
(0.0001855 1.912e-06 0)
(0.0001833 1.706e-06 0)
(0.0001814 1.52e-06 0)
(0.0001797 1.353e-06 0)
(0.0001782 1.204e-06 0)
(0.0001768 1.071e-06 0)
(0.0001756 9.523e-07 0)
(0.0001745 8.485e-07 0)
(0.0001735 7.582e-07 0)
(0.0001727 6.813e-07 0)
(0.0001719 6.176e-07 0)
(0.0001712 5.675e-07 0)
(0.0001705 5.318e-07 0)
(0.0001699 5.121e-07 0)
(0.0001693 5.112e-07 0)
(0.0001687 5.336e-07 0)
(0.000168 5.868e-07 0)
(0.0001673 6.809e-07 0)
(0.0001666 8.21e-07 0)
(0.0001658 9.674e-07 0)
(0.001226 0.0002775 0)
(0.001243 0.0004027 0)
(0.001194 0.0003664 0)
(0.001102 0.0002981 0)
(0.001 0.0002343 0)
(0.000902 0.0001828 0)
(0.000815 0.0001434 0)
(0.0007402 0.0001137 0)
(0.0006768 9.136e-05 0)
(0.0006235 7.425e-05 0)
(0.0005787 6.096e-05 0)
(0.0005409 5.047e-05 0)
(0.000509 4.203e-05 0)
(0.0004821 3.513e-05 0)
(0.0004593 2.941e-05 0)
(0.0004401 2.46e-05 0)
(0.000424 2.048e-05 0)
(0.0004106 1.692e-05 0)
(0.0003995 1.38e-05 0)
(0.0003906 1.102e-05 0)
(0.0003835 8.51e-06 0)
(0.0003782 6.214e-06 0)
(0.0003744 4.082e-06 0)
(0.0003722 2.074e-06 0)
(0.0003714 1.565e-07 0)
(0.000372 -1.701e-06 0)
(0.0003739 -3.524e-06 0)
(0.0003772 -5.336e-06 0)
(0.0003818 -7.154e-06 0)
(0.0003877 -8.998e-06 0)
(0.000395 -1.088e-05 0)
(0.0004037 -1.282e-05 0)
(0.0004138 -1.482e-05 0)
(0.0004254 -1.689e-05 0)
(0.0004385 -1.904e-05 0)
(0.0004532 -2.128e-05 0)
(0.0004696 -2.359e-05 0)
(0.0004877 -2.599e-05 0)
(0.0005075 -2.845e-05 0)
(0.000529 -3.098e-05 0)
(0.0005524 -3.354e-05 0)
(0.0005777 -3.613e-05 0)
(0.0006047 -3.87e-05 0)
(0.0006336 -4.123e-05 0)
(0.0006642 -4.367e-05 0)
(0.0006965 -4.598e-05 0)
(0.0007303 -4.809e-05 0)
(0.0007655 -4.996e-05 0)
(0.0008018 -5.15e-05 0)
(0.0008391 -5.266e-05 0)
(0.000877 -5.336e-05 0)
(0.0009151 -5.354e-05 0)
(0.0009531 -5.312e-05 0)
(0.0009906 -5.205e-05 0)
(0.001027 -5.027e-05 0)
(0.001062 -4.775e-05 0)
(0.001094 -4.448e-05 0)
(0.001125 -4.043e-05 0)
(0.001152 -3.565e-05 0)
(0.001175 -3.018e-05 0)
(0.001194 -2.41e-05 0)
(0.001209 -1.752e-05 0)
(0.001219 -1.058e-05 0)
(0.001224 -3.421e-06 0)
(0.001224 3.778e-06 0)
(0.001219 1.085e-05 0)
(0.001209 1.763e-05 0)
(0.001194 2.399e-05 0)
(0.001175 2.981e-05 0)
(0.001152 3.502e-05 0)
(0.001126 3.955e-05 0)
(0.001097 4.338e-05 0)
(0.001065 4.65e-05 0)
(0.001031 4.893e-05 0)
(0.0009955 5.067e-05 0)
(0.000959 5.178e-05 0)
(0.0009219 5.23e-05 0)
(0.0008845 5.227e-05 0)
(0.0008473 5.176e-05 0)
(0.0008105 5.083e-05 0)
(0.0007745 4.953e-05 0)
(0.0007395 4.792e-05 0)
(0.0007056 4.607e-05 0)
(0.0006731 4.403e-05 0)
(0.0006421 4.185e-05 0)
(0.0006126 3.958e-05 0)
(0.0005847 3.726e-05 0)
(0.0005585 3.492e-05 0)
(0.0005339 3.261e-05 0)
(0.000511 3.033e-05 0)
(0.0004896 2.812e-05 0)
(0.0004699 2.599e-05 0)
(0.0004516 2.394e-05 0)
(0.0004347 2.2e-05 0)
(0.0004192 2.017e-05 0)
(0.000405 1.844e-05 0)
(0.000392 1.683e-05 0)
(0.0003801 1.532e-05 0)
(0.0003693 1.393e-05 0)
(0.0003595 1.263e-05 0)
(0.0003506 1.144e-05 0)
(0.0003425 1.034e-05 0)
(0.0003352 9.331e-06 0)
(0.0003285 8.408e-06 0)
(0.0003226 7.565e-06 0)
(0.0003172 6.796e-06 0)
(0.0003124 6.097e-06 0)
(0.0003081 5.462e-06 0)
(0.0003042 4.887e-06 0)
(0.0003007 4.367e-06 0)
(0.0002976 3.898e-06 0)
(0.0002948 3.476e-06 0)
(0.0002923 3.097e-06 0)
(0.0002901 2.759e-06 0)
(0.0002881 2.459e-06 0)
(0.0002863 2.195e-06 0)
(0.0002847 1.964e-06 0)
(0.0002833 1.767e-06 0)
(0.000282 1.602e-06 0)
(0.0002808 1.47e-06 0)
(0.0002798 1.373e-06 0)
(0.0002787 1.312e-06 0)
(0.0002778 1.292e-06 0)
(0.0002768 1.317e-06 0)
(0.0002759 1.395e-06 0)
(0.0002749 1.53e-06 0)
(0.0002739 1.712e-06 0)
(0.0002729 1.871e-06 0)
(0.001224 0.0002275 0)
(0.00126 0.0004003 0)
(0.001258 0.0004192 0)
(0.001216 0.0003787 0)
(0.00115 0.0003226 0)
(0.001074 0.0002681 0)
(0.0009984 0.0002209 0)
(0.0009275 0.000182 0)
(0.0008635 0.0001505 0)
(0.0008068 0.0001251 0)
(0.0007573 0.0001045 0)
(0.0007143 8.77e-05 0)
(0.0006771 7.383e-05 0)
(0.0006451 6.225e-05 0)
(0.0006177 5.247e-05 0)
(0.0005943 4.412e-05 0)
(0.0005745 3.691e-05 0)
(0.0005578 3.06e-05 0)
(0.000544 2.502e-05 0)
(0.0005327 2.001e-05 0)
(0.0005238 1.547e-05 0)
(0.0005171 1.13e-05 0)
(0.0005125 7.403e-06 0)
(0.0005097 3.725e-06 0)
(0.0005088 2.018e-07 0)
(0.0005097 -3.217e-06 0)
(0.0005123 -6.575e-06 0)
(0.0005167 -9.913e-06 0)
(0.0005228 -1.327e-05 0)
(0.0005306 -1.666e-05 0)
(0.0005403 -2.013e-05 0)
(0.0005517 -2.369e-05 0)
(0.000565 -2.737e-05 0)
(0.0005802 -3.117e-05 0)
(0.0005974 -3.511e-05 0)
(0.0006167 -3.919e-05 0)
(0.0006381 -4.342e-05 0)
(0.0006616 -4.778e-05 0)
(0.0006874 -5.226e-05 0)
(0.0007155 -5.684e-05 0)
(0.0007459 -6.149e-05 0)
(0.0007787 -6.616e-05 0)
(0.0008137 -7.08e-05 0)
(0.0008511 -7.534e-05 0)
(0.0008907 -7.972e-05 0)
(0.0009323 -8.385e-05 0)
(0.0009759 -8.761e-05 0)
(0.001021 -9.091e-05 0)
(0.001068 -9.363e-05 0)
(0.001116 -9.565e-05 0)
(0.001164 -9.684e-05 0)
(0.001213 -9.708e-05 0)
(0.001262 -9.624e-05 0)
(0.00131 -9.423e-05 0)
(0.001356 -9.096e-05 0)
(0.001401 -8.636e-05 0)
(0.001442 -8.039e-05 0)
(0.001481 -7.306e-05 0)
(0.001515 -6.441e-05 0)
(0.001545 -5.453e-05 0)
(0.00157 -4.357e-05 0)
(0.001589 -3.171e-05 0)
(0.001601 -1.919e-05 0)
(0.001608 -6.303e-06 0)
(0.001608 6.665e-06 0)
(0.001602 1.941e-05 0)
(0.001589 3.165e-05 0)
(0.00157 4.313e-05 0)
(0.001546 5.366e-05 0)
(0.001517 6.309e-05 0)
(0.001484 7.133e-05 0)
(0.001446 7.832e-05 0)
(0.001406 8.403e-05 0)
(0.001363 8.85e-05 0)
(0.001317 9.175e-05 0)
(0.001271 9.386e-05 0)
(0.001223 9.49e-05 0)
(0.001175 9.495e-05 0)
(0.001127 9.413e-05 0)
(0.00108 9.253e-05 0)
(0.001034 9.026e-05 0)
(0.0009886 8.743e-05 0)
(0.0009448 8.415e-05 0)
(0.0009028 8.052e-05 0)
(0.0008626 7.662e-05 0)
(0.0008243 7.255e-05 0)
(0.0007881 6.837e-05 0)
(0.0007539 6.417e-05 0)
(0.0007219 5.998e-05 0)
(0.0006919 5.586e-05 0)
(0.000664 5.184e-05 0)
(0.0006381 4.797e-05 0)
(0.0006141 4.425e-05 0)
(0.0005919 4.071e-05 0)
(0.0005715 3.736e-05 0)
(0.0005528 3.421e-05 0)
(0.0005356 3.125e-05 0)
(0.0005199 2.848e-05 0)
(0.0005056 2.592e-05 0)
(0.0004925 2.353e-05 0)
(0.0004806 2.133e-05 0)
(0.0004698 1.931e-05 0)
(0.0004601 1.745e-05 0)
(0.0004512 1.574e-05 0)
(0.0004433 1.418e-05 0)
(0.0004361 1.275e-05 0)
(0.0004296 1.146e-05 0)
(0.0004237 1.028e-05 0)
(0.0004185 9.206e-06 0)
(0.0004138 8.238e-06 0)
(0.0004096 7.363e-06 0)
(0.0004058 6.575e-06 0)
(0.0004024 5.867e-06 0)
(0.0003994 5.234e-06 0)
(0.0003967 4.671e-06 0)
(0.0003943 4.174e-06 0)
(0.0003921 3.739e-06 0)
(0.0003901 3.365e-06 0)
(0.0003884 3.049e-06 0)
(0.0003868 2.793e-06 0)
(0.0003853 2.596e-06 0)
(0.000384 2.461e-06 0)
(0.0003827 2.392e-06 0)
(0.0003815 2.39e-06 0)
(0.0003803 2.46e-06 0)
(0.0003791 2.596e-06 0)
(0.000378 2.772e-06 0)
(0.0003769 2.912e-06 0)
(0.001219 0.0001847 0)
(0.001255 0.0003712 0)
(0.001275 0.0004298 0)
(0.001265 0.0004206 0)
(0.00123 0.0003821 0)
(0.001179 0.0003346 0)
(0.001121 0.0002877 0)
(0.001062 0.0002452 0)
(0.001005 0.0002084 0)
(0.000952 0.000177 0)
(0.0009036 0.0001505 0)
(0.0008602 0.0001281 0)
(0.0008218 0.000109 0)
(0.000788 9.279e-05 0)
(0.0007585 7.881e-05 0)
(0.000733 6.667e-05 0)
(0.0007112 5.604e-05 0)
(0.0006927 4.664e-05 0)
(0.0006773 3.824e-05 0)
(0.0006646 3.065e-05 0)
(0.0006547 2.371e-05 0)
(0.0006471 1.729e-05 0)
(0.000642 1.127e-05 0)
(0.000639 5.563e-06 0)
(0.0006382 7.894e-08 0)
(0.0006394 -5.256e-06 0)
(0.0006428 -1.051e-05 0)
(0.0006482 -1.573e-05 0)
(0.0006556 -2.098e-05 0)
(0.0006651 -2.63e-05 0)
(0.0006767 -3.172e-05 0)
(0.0006905 -3.73e-05 0)
(0.0007064 -4.304e-05 0)
(0.0007247 -4.898e-05 0)
(0.0007453 -5.512e-05 0)
(0.0007683 -6.148e-05 0)
(0.0007939 -6.805e-05 0)
(0.000822 -7.482e-05 0)
(0.0008527 -8.176e-05 0)
(0.0008861 -8.885e-05 0)
(0.0009223 -9.603e-05 0)
(0.0009612 -0.0001032 0)
(0.001003 -0.0001104 0)
(0.001047 -0.0001174 0)
(0.001094 -0.0001241 0)
(0.001143 -0.0001304 0)
(0.001194 -0.0001361 0)
(0.001248 -0.0001411 0)
(0.001303 -0.0001452 0)
(0.001359 -0.0001483 0)
(0.001417 -0.00015 0)
(0.001474 -0.0001503 0)
(0.001531 -0.0001489 0)
(0.001587 -0.0001457 0)
(0.001642 -0.0001406 0)
(0.001694 -0.0001334 0)
(0.001743 -0.0001242 0)
(0.001789 -0.0001128 0)
(0.001829 -9.949e-05 0)
(0.001864 -8.425e-05 0)
(0.001893 -6.734e-05 0)
(0.001915 -4.906e-05 0)
(0.00193 -2.977e-05 0)
(0.001938 -9.904e-06 0)
(0.001938 1.009e-05 0)
(0.001931 2.974e-05 0)
(0.001916 4.861e-05 0)
(0.001894 6.634e-05 0)
(0.001866 8.261e-05 0)
(0.001832 9.72e-05 0)
(0.001793 0.00011 0)
(0.001749 0.0001208 0)
(0.001702 0.0001297 0)
(0.001651 0.0001367 0)
(0.001598 0.0001419 0)
(0.001543 0.0001452 0)
(0.001487 0.000147 0)
(0.001431 0.0001472 0)
(0.001374 0.000146 0)
(0.001319 0.0001437 0)
(0.001264 0.0001403 0)
(0.001211 0.000136 0)
(0.001159 0.000131 0)
(0.001109 0.0001255 0)
(0.001061 0.0001196 0)
(0.001016 0.0001133 0)
(0.0009727 0.0001069 0)
(0.0009321 0.0001004 0)
(0.0008939 9.396e-05 0)
(0.0008581 8.76e-05 0)
(0.0008247 8.139e-05 0)
(0.0007937 7.538e-05 0)
(0.0007649 6.962e-05 0)
(0.0007383 6.412e-05 0)
(0.0007138 5.89e-05 0)
(0.0006912 5.398e-05 0)
(0.0006705 4.937e-05 0)
(0.0006515 4.505e-05 0)
(0.0006342 4.103e-05 0)
(0.0006183 3.73e-05 0)
(0.0006039 3.385e-05 0)
(0.0005908 3.067e-05 0)
(0.000579 2.774e-05 0)
(0.0005682 2.505e-05 0)
(0.0005584 2.259e-05 0)
(0.0005496 2.034e-05 0)
(0.0005417 1.829e-05 0)
(0.0005345 1.643e-05 0)
(0.0005281 1.474e-05 0)
(0.0005223 1.32e-05 0)
(0.0005171 1.181e-05 0)
(0.0005125 1.056e-05 0)
(0.0005083 9.436e-06 0)
(0.0005045 8.428e-06 0)
(0.0005012 7.53e-06 0)
(0.0004982 6.734e-06 0)
(0.0004955 6.036e-06 0)
(0.0004931 5.432e-06 0)
(0.0004909 4.918e-06 0)
(0.0004889 4.493e-06 0)
(0.0004871 4.157e-06 0)
(0.0004855 3.911e-06 0)
(0.000484 3.755e-06 0)
(0.0004825 3.691e-06 0)
(0.0004811 3.714e-06 0)
(0.0004798 3.813e-06 0)
(0.0004786 3.955e-06 0)
(0.0004774 4.065e-06 0)
(0.001214 0.000152 0)
(0.001246 0.0003352 0)
(0.001274 0.0004178 0)
(0.001282 0.0004347 0)
(0.00127 0.0004159 0)
(0.001241 0.0003803 0)
(0.001201 0.0003391 0)
(0.001157 0.0002978 0)
(0.00111 0.0002595 0)
(0.001064 0.0002249 0)
(0.001021 0.0001945 0)
(0.0009805 0.0001678 0)
(0.0009439 0.0001445 0)
(0.0009109 0.0001241 0)
(0.0008816 0.0001062 0)
(0.000856 9.042e-05 0)
(0.0008337 7.639e-05 0)
(0.0008147 6.383e-05 0)
(0.0007987 5.248e-05 0)
(0.0007856 4.213e-05 0)
(0.0007752 3.259e-05 0)
(0.0007674 2.371e-05 0)
(0.0007621 1.533e-05 0)
(0.0007592 7.354e-06 0)
(0.0007587 -3.444e-07 0)
(0.0007604 -7.855e-06 0)
(0.0007644 -1.526e-05 0)
(0.0007707 -2.265e-05 0)
(0.0007793 -3.007e-05 0)
(0.0007902 -3.76e-05 0)
(0.0008034 -4.528e-05 0)
(0.0008191 -5.317e-05 0)
(0.0008372 -6.129e-05 0)
(0.0008579 -6.967e-05 0)
(0.0008812 -7.835e-05 0)
(0.0009073 -8.731e-05 0)
(0.0009361 -9.657e-05 0)
(0.0009678 -0.0001061 0)
(0.001002 -0.0001158 0)
(0.00104 -0.0001258 0)
(0.001081 -0.0001358 0)
(0.001124 -0.0001459 0)
(0.001171 -0.0001559 0)
(0.001221 -0.0001657 0)
(0.001273 -0.000175 0)
(0.001328 -0.0001838 0)
(0.001386 -0.0001917 0)
(0.001445 -0.0001987 0)
(0.001507 -0.0002043 0)
(0.00157 -0.0002085 0)
(0.001634 -0.0002108 0)
(0.001698 -0.0002111 0)
(0.001762 -0.0002091 0)
(0.001825 -0.0002046 0)
(0.001886 -0.0001973 0)
(0.001944 -0.0001872 0)
(0.001999 -0.0001743 0)
(0.002049 -0.0001584 0)
(0.002094 -0.0001396 0)
(0.002133 -0.0001183 0)
(0.002166 -9.46e-05 0)
(0.002191 -6.899e-05 0)
(0.002208 -4.195e-05 0)
(0.002216 -1.41e-05 0)
(0.002217 1.393e-05 0)
(0.002209 4.148e-05 0)
(0.002192 6.794e-05 0)
(0.002168 9.279e-05 0)
(0.002137 0.0001156 0)
(0.002099 0.0001361 0)
(0.002055 0.000154 0)
(0.002006 0.0001693 0)
(0.001953 0.0001819 0)
(0.001897 0.0001918 0)
(0.001838 0.0001991 0)
(0.001777 0.000204 0)
(0.001714 0.0002065 0)
(0.001651 0.000207 0)
(0.001588 0.0002055 0)
(0.001526 0.0002023 0)
(0.001465 0.0001977 0)
(0.001405 0.0001918 0)
(0.001347 0.000185 0)
(0.001291 0.0001773 0)
(0.001237 0.000169 0)
(0.001186 0.0001603 0)
(0.001138 0.0001514 0)
(0.001092 0.0001423 0)
(0.001049 0.0001333 0)
(0.001009 0.0001244 0)
(0.0009709 0.0001157 0)
(0.0009358 0.0001072 0)
(0.0009032 9.913e-05 0)
(0.000873 9.139e-05 0)
(0.0008452 8.403e-05 0)
(0.0008195 7.709e-05 0)
(0.0007959 7.056e-05 0)
(0.0007743 6.445e-05 0)
(0.0007545 5.876e-05 0)
(0.0007365 5.347e-05 0)
(0.00072 4.857e-05 0)
(0.000705 4.404e-05 0)
(0.0006913 3.988e-05 0)
(0.000679 3.605e-05 0)
(0.0006677 3.254e-05 0)
(0.0006576 2.934e-05 0)
(0.0006484 2.641e-05 0)
(0.0006402 2.374e-05 0)
(0.0006327 2.132e-05 0)
(0.000626 1.912e-05 0)
(0.00062 1.712e-05 0)
(0.0006146 1.533e-05 0)
(0.0006097 1.371e-05 0)
(0.0006054 1.225e-05 0)
(0.0006015 1.096e-05 0)
(0.000598 9.805e-06 0)
(0.0005948 8.792e-06 0)
(0.000592 7.909e-06 0)
(0.0005895 7.153e-06 0)
(0.0005872 6.519e-06 0)
(0.0005851 6.005e-06 0)
(0.0005832 5.609e-06 0)
(0.0005815 5.332e-06 0)
(0.0005799 5.168e-06 0)
(0.0005784 5.111e-06 0)
(0.0005769 5.143e-06 0)
(0.0005756 5.229e-06 0)
(0.0005743 5.305e-06 0)
(0.00121 0.0001278 0)
(0.001237 0.0003004 0)
(0.001267 0.000395 0)
(0.001285 0.000431 0)
(0.001287 0.0004298 0)
(0.001275 0.0004075 0)
(0.001252 0.0003747 0)
(0.001221 0.0003379 0)
(0.001186 0.0003009 0)
(0.001149 0.0002658 0)
(0.001113 0.0002335 0)
(0.001078 0.0002041 0)
(0.001045 0.0001777 0)
(0.001015 0.000154 0)
(0.0009877 0.0001328 0)
(0.0009633 0.0001138 0)
(0.0009419 9.664e-05 0)
(0.0009235 8.106e-05 0)
(0.0009079 6.683e-05 0)
(0.0008951 5.372e-05 0)
(0.0008849 4.153e-05 0)
(0.0008774 3.01e-05 0)
(0.0008724 1.926e-05 0)
(0.0008698 8.872e-06 0)
(0.0008697 -1.191e-06 0)
(0.000872 -1.104e-05 0)
(0.0008767 -2.079e-05 0)
(0.0008838 -3.052e-05 0)
(0.0008933 -4.031e-05 0)
(0.0009053 -5.025e-05 0)
(0.0009198 -6.04e-05 0)
(0.0009369 -7.082e-05 0)
(0.0009567 -8.154e-05 0)
(0.0009792 -9.261e-05 0)
(0.001005 -0.0001041 0)
(0.001033 -0.0001159 0)
(0.001064 -0.0001281 0)
(0.001098 -0.0001406 0)
(0.001136 -0.0001534 0)
(0.001176 -0.0001665 0)
(0.00122 -0.0001797 0)
(0.001267 -0.0001929 0)
(0.001318 -0.0002059 0)
(0.001371 -0.0002187 0)
(0.001428 -0.0002309 0)
(0.001487 -0.0002423 0)
(0.001549 -0.0002527 0)
(0.001613 -0.0002618 0)
(0.00168 -0.0002691 0)
(0.001748 -0.0002745 0)
(0.001816 -0.0002775 0)
(0.001885 -0.0002778 0)
(0.001954 -0.000275 0)
(0.002022 -0.000269 0)
(0.002087 -0.0002595 0)
(0.00215 -0.0002463 0)
(0.002209 -0.0002292 0)
(0.002264 -0.0002083 0)
(0.002313 -0.0001837 0)
(0.002355 -0.0001557 0)
(0.00239 -0.0001246 0)
(0.002417 -9.095e-05 0)
(0.002436 -5.54e-05 0)
(0.002445 -1.876e-05 0)
(0.002445 1.81e-05 0)
(0.002437 5.433e-05 0)
(0.002419 8.912e-05 0)
(0.002393 0.0001218 0)
(0.002359 0.0001517 0)
(0.002318 0.0001786 0)
(0.002271 0.0002022 0)
(0.002219 0.0002223 0)
(0.002162 0.0002389 0)
(0.002101 0.000252 0)
(0.002037 0.0002617 0)
(0.001972 0.0002682 0)
(0.001904 0.0002717 0)
(0.001837 0.0002725 0)
(0.001769 0.0002707 0)
(0.001702 0.0002667 0)
(0.001636 0.0002607 0)
(0.001571 0.0002531 0)
(0.001509 0.0002442 0)
(0.001448 0.0002343 0)
(0.00139 0.0002235 0)
(0.001335 0.0002121 0)
(0.001283 0.0002005 0)
(0.001233 0.0001886 0)
(0.001187 0.0001768 0)
(0.001143 0.0001651 0)
(0.001102 0.0001536 0)
(0.001064 0.0001425 0)
(0.001028 0.0001319 0)
(0.0009955 0.0001217 0)
(0.0009652 0.000112 0)
(0.0009372 0.0001028 0)
(0.0009115 9.418e-05 0)
(0.0008878 8.61e-05 0)
(0.0008662 7.856e-05 0)
(0.0008464 7.155e-05 0)
(0.0008283 6.505e-05 0)
(0.0008118 5.904e-05 0)
(0.0007968 5.351e-05 0)
(0.0007832 4.842e-05 0)
(0.0007708 4.374e-05 0)
(0.0007596 3.947e-05 0)
(0.0007495 3.556e-05 0)
(0.0007404 3.2e-05 0)
(0.0007321 2.876e-05 0)
(0.0007247 2.581e-05 0)
(0.000718 2.315e-05 0)
(0.000712 2.073e-05 0)
(0.0007066 1.856e-05 0)
(0.0007017 1.661e-05 0)
(0.0006974 1.486e-05 0)
(0.0006935 1.33e-05 0)
(0.0006899 1.193e-05 0)
(0.0006868 1.073e-05 0)
(0.000684 9.691e-06 0)
(0.0006814 8.811e-06 0)
(0.0006791 8.084e-06 0)
(0.0006771 7.506e-06 0)
(0.0006752 7.073e-06 0)
(0.0006734 6.779e-06 0)
(0.0006718 6.612e-06 0)
(0.0006703 6.553e-06 0)
(0.0006689 6.57e-06 0)
(0.0006676 6.606e-06 0)
(0.001208 0.0001096 0)
(0.00123 0.0002692 0)
(0.001259 0.0003682 0)
(0.001282 0.0004169 0)
(0.001293 0.0004299 0)
(0.001293 0.0004198 0)
(0.001283 0.0003963 0)
(0.001264 0.0003656 0)
(0.00124 0.0003321 0)
(0.001213 0.0002984 0)
(0.001184 0.0002659 0)
(0.001156 0.0002353 0)
(0.001128 0.000207 0)
(0.001102 0.0001811 0)
(0.001078 0.0001573 0)
(0.001056 0.0001356 0)
(0.001036 0.0001157 0)
(0.001019 9.741e-05 0)
(0.001005 8.05e-05 0)
(0.0009932 6.477e-05 0)
(0.0009838 5.001e-05 0)
(0.0009769 3.607e-05 0)
(0.0009725 2.275e-05 0)
(0.0009705 9.923e-06 0)
(0.0009709 -2.561e-06 0)
(0.0009738 -1.483e-05 0)
(0.0009791 -2.7e-05 0)
(0.0009869 -3.918e-05 0)
(0.0009971 -5.146e-05 0)
(0.00101 -6.394e-05 0)
(0.001025 -7.668e-05 0)
(0.001044 -8.977e-05 0)
(0.001064 -0.0001032 0)
(0.001088 -0.0001171 0)
(0.001115 -0.0001315 0)
(0.001144 -0.0001463 0)
(0.001177 -0.0001616 0)
(0.001213 -0.0001773 0)
(0.001253 -0.0001934 0)
(0.001295 -0.0002097 0)
(0.001341 -0.0002262 0)
(0.00139 -0.0002427 0)
(0.001443 -0.0002591 0)
(0.001499 -0.000275 0)
(0.001558 -0.0002902 0)
(0.00162 -0.0003045 0)
(0.001685 -0.0003174 0)
(0.001752 -0.0003287 0)
(0.001822 -0.0003378 0)
(0.001893 -0.0003445 0)
(0.001965 -0.0003481 0)
(0.002037 -0.0003485 0)
(0.002109 -0.0003451 0)
(0.00218 -0.0003375 0)
(0.002249 -0.0003256 0)
(0.002315 -0.000309 0)
(0.002377 -0.0002877 0)
(0.002434 -0.0002616 0)
(0.002485 -0.0002308 0)
(0.00253 -0.0001957 0)
(0.002567 -0.0001567 0)
(0.002596 -0.0001145 0)
(0.002615 -6.981e-05 0)
(0.002625 -2.377e-05 0)
(0.002625 2.256e-05 0)
(0.002616 6.807e-05 0)
(0.002597 0.0001117 0)
(0.00257 0.0001526 0)
(0.002534 0.0001902 0)
(0.002491 0.0002239 0)
(0.002442 0.0002534 0)
(0.002387 0.0002786 0)
(0.002327 0.0002994 0)
(0.002264 0.0003158 0)
(0.002197 0.0003281 0)
(0.002129 0.0003364 0)
(0.002058 0.0003409 0)
(0.001987 0.0003419 0)
(0.001917 0.0003398 0)
(0.001846 0.0003349 0)
(0.001777 0.0003276 0)
(0.00171 0.0003183 0)
(0.001644 0.0003072 0)
(0.001581 0.0002948 0)
(0.00152 0.0002814 0)
(0.001462 0.0002673 0)
(0.001407 0.0002527 0)
(0.001355 0.0002379 0)
(0.001306 0.0002231 0)
(0.00126 0.0002085 0)
(0.001217 0.0001942 0)
(0.001177 0.0001803 0)
(0.00114 0.0001669 0)
(0.001105 0.0001541 0)
(0.001073 0.0001419 0)
(0.001044 0.0001304 0)
(0.001017 0.0001195 0)
(0.0009916 0.0001094 0)
(0.0009687 9.987e-05 0)
(0.0009477 9.103e-05 0)
(0.0009285 8.283e-05 0)
(0.000911 7.524e-05 0)
(0.0008951 6.824e-05 0)
(0.0008806 6.18e-05 0)
(0.0008674 5.588e-05 0)
(0.0008555 5.046e-05 0)
(0.0008447 4.55e-05 0)
(0.0008349 4.098e-05 0)
(0.0008261 3.686e-05 0)
(0.0008181 3.312e-05 0)
(0.0008109 2.972e-05 0)
(0.0008044 2.664e-05 0)
(0.0007986 2.387e-05 0)
(0.0007934 2.137e-05 0)
(0.0007887 1.913e-05 0)
(0.0007845 1.714e-05 0)
(0.0007808 1.537e-05 0)
(0.0007774 1.381e-05 0)
(0.0007743 1.246e-05 0)
(0.0007716 1.131e-05 0)
(0.0007692 1.034e-05 0)
(0.0007669 9.549e-06 0)
(0.0007649 8.933e-06 0)
(0.0007631 8.482e-06 0)
(0.0007614 8.183e-06 0)
(0.0007599 8.016e-06 0)
(0.0007585 7.951e-06 0)
(0.0007571 7.944e-06 0)
(0.001206 9.549e-05 0)
(0.001225 0.0002419 0)
(0.001251 0.0003407 0)
(0.001276 0.000397 0)
(0.001293 0.0004206 0)
(0.001301 0.0004211 0)
(0.001301 0.0004063 0)
(0.001292 0.0003824 0)
(0.001278 0.0003535 0)
(0.00126 0.0003224 0)
(0.001239 0.0002911 0)
(0.001217 0.0002606 0)
(0.001195 0.0002315 0)
(0.001174 0.0002042 0)
(0.001154 0.0001786 0)
(0.001135 0.0001549 0)
(0.001118 0.0001327 0)
(0.001103 0.0001121 0)
(0.001091 9.287e-05 0)
(0.00108 7.475e-05 0)
(0.001072 5.761e-05 0)
(0.001066 4.127e-05 0)
(0.001062 2.557e-05 0)
(0.001061 1.036e-05 0)
(0.001062 -4.519e-06 0)
(0.001066 -1.92e-05 0)
(0.001071 -3.38e-05 0)
(0.00108 -4.845e-05 0)
(0.001091 -6.326e-05 0)
(0.001104 -7.832e-05 0)
(0.00112 -9.372e-05 0)
(0.001139 -0.0001095 0)
(0.00116 -0.0001258 0)
(0.001184 -0.0001426 0)
(0.001212 -0.00016 0)
(0.001242 -0.0001779 0)
(0.001276 -0.0001964 0)
(0.001312 -0.0002153 0)
(0.001352 -0.0002347 0)
(0.001396 -0.0002545 0)
(0.001443 -0.0002744 0)
(0.001493 -0.0002943 0)
(0.001547 -0.0003139 0)
(0.001604 -0.0003331 0)
(0.001664 -0.0003515 0)
(0.001727 -0.0003687 0)
(0.001794 -0.0003842 0)
(0.001862 -0.0003978 0)
(0.001933 -0.0004088 0)
(0.002005 -0.0004168 0)
(0.002079 -0.0004212 0)
(0.002153 -0.0004216 0)
(0.002226 -0.0004175 0)
(0.002299 -0.0004084 0)
(0.002369 -0.0003941 0)
(0.002437 -0.0003741 0)
(0.002501 -0.0003484 0)
(0.002559 -0.0003169 0)
(0.002612 -0.0002798 0)
(0.002658 -0.0002374 0)
(0.002696 -0.0001902 0)
(0.002726 -0.000139 0)
(0.002746 -8.486e-05 0)
(0.002756 -2.896e-05 0)
(0.002757 2.728e-05 0)
(0.002747 8.247e-05 0)
(0.002727 0.0001353 0)
(0.002699 0.0001848 0)
(0.002663 0.0002302 0)
(0.002619 0.0002708 0)
(0.002568 0.0003064 0)
(0.002512 0.0003367 0)
(0.002451 0.0003619 0)
(0.002386 0.0003818 0)
(0.002318 0.0003967 0)
(0.002248 0.0004067 0)
(0.002176 0.0004123 0)
(0.002104 0.0004137 0)
(0.002031 0.0004113 0)
(0.00196 0.0004055 0)
(0.001889 0.0003968 0)
(0.00182 0.0003856 0)
(0.001753 0.0003723 0)
(0.001689 0.0003575 0)
(0.001627 0.0003413 0)
(0.001568 0.0003243 0)
(0.001511 0.0003068 0)
(0.001458 0.000289 0)
(0.001408 0.0002712 0)
(0.001361 0.0002535 0)
(0.001317 0.0002362 0)
(0.001276 0.0002194 0)
(0.001238 0.0002033 0)
(0.001202 0.0001878 0)
(0.001169 0.0001731 0)
(0.001139 0.0001591 0)
(0.001111 0.000146 0)
(0.001085 0.0001336 0)
(0.001062 0.0001221 0)
(0.00104 0.0001114 0)
(0.00102 0.0001014 0)
(0.001002 9.22e-05 0)
(0.0009859 8.369e-05 0)
(0.0009709 7.584e-05 0)
(0.0009573 6.863e-05 0)
(0.0009449 6.202e-05 0)
(0.0009337 5.597e-05 0)
(0.0009236 5.045e-05 0)
(0.0009144 4.541e-05 0)
(0.0009061 4.083e-05 0)
(0.0008986 3.667e-05 0)
(0.0008919 3.29e-05 0)
(0.0008858 2.949e-05 0)
(0.0008804 2.642e-05 0)
(0.0008755 2.367e-05 0)
(0.0008711 2.12e-05 0)
(0.0008672 1.901e-05 0)
(0.0008636 1.708e-05 0)
(0.0008605 1.54e-05 0)
(0.0008576 1.394e-05 0)
(0.0008551 1.271e-05 0)
(0.0008528 1.169e-05 0)
(0.0008507 1.087e-05 0)
(0.0008488 1.024e-05 0)
(0.0008472 9.79e-06 0)
(0.0008456 9.501e-06 0)
(0.0008442 9.347e-06 0)
(0.0008428 9.295e-06 0)
(0.001205 8.422e-05 0)
(0.001221 0.0002182 0)
(0.001245 0.0003142 0)
(0.00127 0.0003745 0)
(0.00129 0.0004055 0)
(0.001304 0.0004143 0)
(0.00131 0.0004074 0)
(0.00131 0.00039 0)
(0.001304 0.000366 0)
(0.001294 0.0003384 0)
(0.00128 0.0003092 0)
(0.001265 0.0002797 0)
(0.001249 0.0002507 0)
(0.001232 0.0002228 0)
(0.001216 0.0001962 0)
(0.001201 0.000171 0)
(0.001188 0.0001472 0)
(0.001175 0.0001247 0)
(0.001165 0.0001035 0)
(0.001156 8.328e-05 0)
(0.001149 6.4e-05 0)
(0.001145 4.547e-05 0)
(0.001142 2.755e-05 0)
(0.001142 1.008e-05 0)
(0.001143 -7.086e-06 0)
(0.001147 -2.409e-05 0)
(0.001154 -4.107e-05 0)
(0.001162 -5.815e-05 0)
(0.001174 -7.544e-05 0)
(0.001187 -9.305e-05 0)
(0.001203 -0.0001111 0)
(0.001222 -0.0001296 0)
(0.001244 -0.0001487 0)
(0.001268 -0.0001684 0)
(0.001295 -0.0001888 0)
(0.001325 -0.0002098 0)
(0.001359 -0.0002314 0)
(0.001396 -0.0002537 0)
(0.001435 -0.0002764 0)
(0.001479 -0.0002995 0)
(0.001525 -0.0003228 0)
(0.001576 -0.0003462 0)
(0.001629 -0.0003692 0)
(0.001686 -0.0003917 0)
(0.001746 -0.0004132 0)
(0.001809 -0.0004333 0)
(0.001875 -0.0004516 0)
(0.001943 -0.0004675 0)
(0.002014 -0.0004804 0)
(0.002086 -0.0004898 0)
(0.002159 -0.000495 0)
(0.002233 -0.0004955 0)
(0.002307 -0.0004908 0)
(0.002379 -0.0004802 0)
(0.00245 -0.0004634 0)
(0.002518 -0.0004401 0)
(0.002581 -0.00041 0)
(0.00264 -0.0003731 0)
(0.002694 -0.0003296 0)
(0.00274 -0.0002798 0)
(0.002778 -0.0002244 0)
(0.002808 -0.0001641 0)
(0.002829 -0.0001002 0)
(0.002839 -3.419e-05 0)
(0.002839 3.222e-05 0)
(0.002829 9.731e-05 0)
(0.002809 0.0001595 0)
(0.00278 0.0002177 0)
(0.002744 0.0002708 0)
(0.002699 0.0003183 0)
(0.002649 0.00036 0)
(0.002593 0.0003955 0)
(0.002532 0.0004249 0)
(0.002467 0.0004483 0)
(0.002399 0.0004658 0)
(0.002329 0.0004777 0)
(0.002258 0.0004843 0)
(0.002186 0.0004861 0)
(0.002114 0.0004834 0)
(0.002042 0.0004767 0)
(0.001972 0.0004666 0)
(0.001903 0.0004535 0)
(0.001836 0.0004381 0)
(0.001772 0.0004207 0)