/*--------------------------------*- C++ -*----------------------------------*\
  =========                 |
  \\      /  F ield         | OpenFOAM: The Open Source CFD Toolbox
   \\    /   O peration     | Website:  https://openfoam.org
    \\  /    A nd           | Version:  7
     \\/     M anipulation  |
\*---------------------------------------------------------------------------*/
FoamFile
{
    version     2.0;
    format      ascii;
    class       volScalarField;
    location    "479.999473411093675";
    object      Y.K;
}
// * * * * * * * * * * * * * * * * * * * * * * * * * * * * * * * * * * * * * //

dimensions      [0 0 0 0 0 0 0];

internalField   nonuniform List<scalar> 
4096
(
3.11e-68
-2.687e-69
4.421e-67
-3.243e-67
-5.091e-68
1.665e-67
-1.038e-67
-1.194e-67
1.421e-67
-2.727e-66
3.059e-65
-4.634e-64
6.989e-63
-9.358e-62
1.225e-60
-1.487e-59
1.71e-58
-1.888e-57
1.933e-56
-1.923e-55
1.822e-54
-1.65e-53
1.441e-52
-1.209e-51
9.887e-51
-7.546e-50
5.899e-49
-4.696e-48
3.774e-47
-3.029e-46
2.395e-45
-1.841e-44
1.353e-43
-9.314e-43
5.837e-42
-3.088e-41
1.227e-40
-1.58e-41
-6.626e-39
8.483e-38
-8.171e-37
6.294e-36
-4.301e-35
2.663e-34
-1.465e-33
7.272e-33
-3.331e-32
1.427e-31
-5.495e-31
2.076e-30
-4.466e-30
1.432e-29
1.611e-28
1.006e-28
9.147e-27
1.675e-26
2.96e-25
1.201e-24
4.204e-24
3.113e-23
1.501e-22
1.158e-21
5.771e-21
7.64e-20
1.053e-18
3.289e-18
7.653e-18
1.584e-17
3.076e-17
5.717e-17
1.026e-16
1.787e-16
3.028e-16
5.004e-16
8.071e-16
1.273e-15
1.965e-15
2.971e-15
4.405e-15
6.413e-15
9.174e-15
1.291e-14
1.787e-14
2.439e-14
3.282e-14
4.358e-14
5.716e-14
7.411e-14
9.506e-14
1.207e-13
1.518e-13
1.893e-13
2.341e-13
2.873e-13
3.5e-13
4.237e-13
5.097e-13
6.097e-13
7.253e-13
8.586e-13
1.012e-12
1.187e-12
1.387e-12
1.614e-12
1.872e-12
2.164e-12
2.493e-12
2.864e-12
3.281e-12
3.749e-12
4.273e-12
4.859e-12
5.512e-12
6.24e-12
7.049e-12
7.948e-12
8.944e-12
1.005e-11
1.127e-11
1.261e-11
1.41e-11
1.573e-11
1.751e-11
1.946e-11
2.155e-11
2.373e-11
2.585e-11
2.75e-11
7.324e-67
-4.226e-66
5.338e-66
-8.713e-67
-6.05e-66
6.954e-66
2.662e-67
-7.339e-66
6.682e-66
-1.61e-64
1.682e-63
-2.606e-62
3.843e-61
-5.302e-60
6.852e-59
-8.318e-58
9.513e-57
-1.03e-55
1.059e-54
-1.038e-53
9.745e-53
-8.776e-52
7.602e-51
-6.338e-50
5.131e-49
-3.903e-48
3.041e-47
-2.413e-46
1.933e-45
-1.547e-44
1.22e-43
-9.363e-43
6.879e-42
-4.743e-41
2.989e-40
-1.61e-39
6.848e-39
-7.117e-39
-2.779e-37
3.792e-36
-3.747e-35
2.897e-34
-1.984e-33
1.233e-32
-6.751e-32
3.388e-31
-1.551e-30
6.661e-30
-2.51e-29
9.61e-29
-1.908e-28
7.061e-28
7.574e-27
1.683e-26
4.199e-25
1.241e-24
1.474e-23
5.881e-23
2.176e-22
1.446e-21
6.612e-21
4.412e-20
1.749e-19
1.104e-18
3.339e-18
7.793e-18
1.63e-17
3.193e-17
5.968e-17
1.074e-16
1.87e-16
3.159e-16
5.192e-16
8.318e-16
1.301e-15
1.99e-15
2.98e-15
4.376e-15
6.308e-15
8.937e-15
1.246e-14
1.711e-14
2.316e-14
3.093e-14
4.081e-14
5.323e-14
6.868e-14
8.772e-14
1.11e-13
1.392e-13
1.732e-13
2.138e-13
2.62e-13
3.189e-13
3.858e-13
4.64e-13
5.551e-13
6.605e-13
7.822e-13
9.222e-13
1.083e-12
1.266e-12
1.475e-12
1.712e-12
1.981e-12
2.285e-12
2.628e-12
3.014e-12
3.447e-12
3.933e-12
4.477e-12
5.085e-12
5.762e-12
6.517e-12
7.355e-12
8.286e-12
9.318e-12
1.046e-11
1.172e-11
1.311e-11
1.465e-11
1.634e-11
1.819e-11
2.021e-11
2.241e-11
2.476e-11
2.719e-11
2.945e-11
-1.664e-65
1.175e-64
-3.241e-64
5.217e-64
-4.662e-64
8.86e-65
3.214e-64
-3.471e-64
2.763e-64
-9.386e-63
9.028e-62
-1.395e-60
2.055e-59
-2.826e-58
3.634e-57
-4.382e-56
4.975e-55
-5.341e-54
5.445e-53
-5.294e-52
4.924e-51
-4.393e-50
3.769e-49
-3.113e-48
2.49e-47
-1.883e-46
1.459e-45
-1.151e-44
9.175e-44
-7.314e-43
5.76e-42
-4.42e-41
3.257e-40
-2.262e-39
1.446e-38
-8.072e-38
3.71e-37
-7.658e-37
-8.602e-36
1.423e-34
-1.502e-33
1.184e-32
-8.201e-32
5.175e-31
-2.834e-30
1.425e-29
-6.533e-29
2.832e-28
-1.056e-27
4.17e-27
-6.863e-27
3.74e-26
3.316e-25
1.601e-24
1.75e-23
8.753e-23
7.478e-22
2.923e-21
1.12e-20
6.528e-20
2.665e-19
1.388e-18
4.222e-18
1.013e-17
2.192e-17
4.445e-17
8.566e-17
1.581e-16
2.806e-16
4.806e-16
7.961e-16
1.278e-15
1.994e-15
3.028e-15
4.485e-15
6.489e-15
9.19e-15
1.276e-14
1.74e-14
2.333e-14
3.081e-14
4.013e-14
5.162e-14
6.565e-14
8.265e-14
1.031e-13
1.275e-13
1.566e-13
1.909e-13
2.313e-13
2.787e-13
3.34e-13
3.985e-13
4.732e-13
5.596e-13
6.592e-13
7.737e-13
9.051e-13
1.055e-12
1.227e-12
1.422e-12
1.643e-12
1.894e-12
2.178e-12
2.498e-12
2.859e-12
3.264e-12
3.719e-12
4.228e-12
4.798e-12
5.434e-12
6.144e-12
6.933e-12
7.81e-12
8.783e-12
9.862e-12
1.105e-11
1.237e-11
1.383e-11
1.543e-11
1.719e-11
1.913e-11
2.126e-11
2.358e-11
2.612e-11
2.887e-11
3.184e-11
3.511e-11
2.611e-64
-2.098e-63
8.154e-63
-2.132e-62
3.901e-62
-4.887e-62
3.721e-62
-9.299e-63
1.435e-62
-5.392e-61
4.604e-60
-7.065e-59
1.036e-57
-1.416e-56
1.804e-55
-2.154e-54
2.417e-53
-2.564e-52
2.583e-51
-2.48e-50
2.278e-49
-2.007e-48
1.7e-47
-1.385e-46
1.091e-45
-8.171e-45
6.269e-44
-4.901e-43
3.878e-42
-3.076e-41
2.418e-40
-1.859e-39
1.378e-38
-9.702e-38
6.352e-37
-3.727e-36
1.904e-35
-6.223e-35
-7.296e-35
3.858e-33
-4.813e-32
4.001e-31
-2.844e-30
1.86e-29
-1.025e-28
5.189e-28
-2.399e-27
1.064e-26
-3.878e-26
1.597e-25
-1.288e-25
1.901e-24
1.517e-23
1.071e-22
8.908e-22
4.856e-21
3.543e-20
1.389e-19
4.845e-19
2.281e-18
7.183e-18
1.812e-17
4.144e-17
8.876e-17
1.8e-16
3.474e-16
6.405e-16
1.131e-15
1.919e-15
3.136e-15
4.944e-15
7.542e-15
1.116e-14
1.604e-14
2.246e-14
3.07e-14
4.106e-14
5.38e-14
6.924e-14
8.765e-14
1.094e-13
1.347e-13
1.64e-13
1.977e-13
2.363e-13
2.803e-13
3.303e-13
3.872e-13
4.517e-13
5.249e-13
6.079e-13
7.019e-13
8.084e-13
9.29e-13
1.066e-12
1.22e-12
1.395e-12
1.592e-12
1.815e-12
2.066e-12
2.349e-12
2.667e-12
3.024e-12
3.426e-12
3.876e-12
4.38e-12
4.943e-12
5.572e-12
6.273e-12
7.054e-12
7.922e-12
8.886e-12
9.955e-12
1.114e-11
1.245e-11
1.39e-11
1.549e-11
1.725e-11
1.919e-11
2.131e-11
2.364e-11
2.62e-11
2.899e-11
3.203e-11
3.535e-11
3.896e-11
4.292e-11
4.78e-11
-3.376e-63
2.931e-62
-1.423e-61
5.065e-61
-1.357e-60
2.736e-60
-4.067e-60
4.201e-60
-6.046e-61
-2.988e-59
2.24e-58
-3.398e-57
4.934e-56
-6.652e-55
8.351e-54
-9.804e-53
1.082e-51
-1.128e-50
1.116e-49
-1.054e-48
9.52e-48
-8.246e-47
6.861e-46
-5.493e-45
4.24e-44
-3.131e-43
2.366e-42
-1.822e-41
1.424e-40
-1.12e-39
8.773e-39
-6.761e-38
5.06e-37
-3.627e-36
2.449e-35
-1.525e-34
8.445e-34
-3.836e-33
1.053e-32
3.174e-32
-1.024e-30
1.03e-29
-7.687e-29
5.466e-28
-3.054e-27
1.565e-26
-7.39e-26
3.448e-25
-1.184e-24
5.05e-24
3.58e-24
8.542e-23
8.21e-22
6.13e-21
4.398e-20
2.377e-19
1.293e-18
4.658e-18
1.354e-17
3.564e-17
8.743e-17
2.017e-16
4.394e-16
9.063e-16
1.773e-15
3.296e-15
5.838e-15
9.875e-15
1.6e-14
2.488e-14
3.727e-14
5.389e-14
7.543e-14
1.025e-13
1.354e-13
1.746e-13
2.201e-13
2.718e-13
3.298e-13
3.938e-13
4.638e-13
5.398e-13
6.22e-13
7.107e-13
8.063e-13
9.098e-13
1.022e-12
1.144e-12
1.277e-12
1.423e-12
1.584e-12
1.761e-12
1.957e-12
2.175e-12
2.417e-12
2.687e-12
2.988e-12
3.324e-12
3.699e-12
4.118e-12
4.586e-12
5.108e-12
5.69e-12
6.339e-12
7.062e-12
7.867e-12
8.762e-12
9.756e-12
1.086e-11
1.208e-11
1.344e-11
1.493e-11
1.659e-11
1.841e-11
2.043e-11
2.264e-11
2.508e-11
2.775e-11
3.068e-11
3.388e-11
3.739e-11
4.121e-11
4.538e-11
4.991e-11
5.482e-11
6.015e-11
6.598e-11
7.371e-11
3.704e-62
-3.363e-61
1.925e-60
-8.715e-60
3.116e-59
-8.717e-59
1.89e-58
-3.135e-58
3.801e-58
-1.695e-57
1.049e-56
-1.552e-55
2.21e-54
-2.915e-53
3.574e-52
-4.094e-51
4.407e-50
-4.484e-49
4.336e-48
-4.002e-47
3.536e-46
-2.998e-45
2.441e-44
-1.91e-43
1.438e-42
-1.041e-41
7.685e-41
-5.783e-40
4.425e-39
-3.425e-38
2.659e-37
-2.048e-36
1.547e-35
-1.132e-34
7.915e-34
-5.218e-33
3.19e-32
-1.741e-31
8.23e-31
-2.51e-30
-1.787e-30
1.057e-28
-1.296e-27
1.176e-26
-7.027e-26
3.643e-25
-1.826e-24
9.639e-24
-2.794e-23
1.168e-22
6.408e-22
4.573e-21
4.644e-20
2.906e-19
1.714e-18
6.827e-18
2.217e-17
6.523e-17
1.783e-16
4.561e-16
1.094e-15
2.468e-15
5.24e-15
1.049e-14
1.983e-14
3.549e-14
6.027e-14
9.742e-14
1.503e-13
2.222e-13
3.153e-13
4.312e-13
5.7e-13
7.301e-13
9.092e-13
1.104e-12
1.309e-12
1.522e-12
1.739e-12
1.957e-12
2.174e-12
2.389e-12
2.604e-12
2.819e-12
3.037e-12
3.259e-12
3.489e-12
3.73e-12
3.986e-12
4.261e-12
4.559e-12
4.884e-12
5.241e-12
5.635e-12
6.072e-12
6.556e-12
7.095e-12
7.694e-12
8.362e-12
9.104e-12
9.931e-12
1.085e-11
1.187e-11
1.301e-11
1.427e-11
1.567e-11
1.722e-11
1.894e-11
2.084e-11
2.294e-11
2.525e-11
2.78e-11
3.061e-11
3.37e-11
3.709e-11
4.082e-11
4.489e-11
4.935e-11
5.423e-11
5.954e-11
6.533e-11
7.163e-11
7.846e-11
8.586e-11
9.387e-11
1.025e-10
1.119e-10
1.249e-10
-3.299e-61
3.054e-60
-2.028e-59
1.147e-58
-5.32e-58
1.972e-57
-5.756e-57
1.305e-56
-2.236e-56
-4.165e-56
4.445e-55
-6.677e-54
9.237e-53
-1.179e-51
1.396e-50
-1.545e-49
1.608e-48
-1.585e-47
1.487e-46
-1.334e-45
1.148e-44
-9.487e-44
7.533e-43
-5.748e-42
4.205e-41
-2.967e-40
2.121e-39
-1.539e-38
1.136e-37
-8.514e-37
6.457e-36
-4.916e-35
3.72e-34
-2.767e-33
2.002e-32
-1.395e-31
9.29e-31
-5.779e-30
3.291e-29
-1.653e-28
7.075e-28
-1.979e-27
-1.132e-27
7.045e-26
-6.045e-25
4.623e-24
-3.086e-23
2.239e-22
-3.492e-22
3.956e-21
3.467e-20
2.718e-19
1.837e-18
8.268e-18
3.062e-17
1.028e-16
3.201e-16
9.274e-16
2.507e-15
6.325e-15
1.491e-14
3.289e-14
6.796e-14
1.317e-13
2.401e-13
4.124e-13
6.699e-13
1.032e-12
1.514e-12
2.12e-12
2.846e-12
3.675e-12
4.579e-12
5.522e-12
6.472e-12
7.387e-12
8.239e-12
9.006e-12
9.685e-12
1.026e-11
1.075e-11
1.117e-11
1.152e-11
1.182e-11
1.209e-11
1.235e-11
1.261e-11
1.289e-11
1.319e-11
1.353e-11
1.393e-11
1.438e-11
1.491e-11
1.552e-11
1.623e-11
1.703e-11
1.794e-11
1.898e-11
2.015e-11
2.147e-11
2.295e-11
2.461e-11
2.646e-11
2.852e-11
3.082e-11
3.336e-11
3.618e-11
3.931e-11
4.275e-11
4.656e-11
5.075e-11
5.535e-11
6.041e-11
6.596e-11
7.204e-11
7.87e-11
8.596e-11
9.389e-11
1.025e-10
1.119e-10
1.221e-10
1.332e-10
1.451e-10
1.58e-10
1.719e-10
1.869e-10
2.029e-10
2.26e-10
1.804e-60
-1.567e-59
1.293e-58
-1.07e-57
6.888e-57
-3.382e-56
1.311e-55
-4.008e-55
9.826e-55
-3.931e-54
2.054e-53
-2.698e-52
3.549e-51
-4.322e-50
4.884e-49
-5.162e-48
5.143e-47
-4.868e-46
4.402e-45
-3.821e-44
3.19e-43
-2.566e-42
1.986e-41
-1.478e-40
1.053e-39
-7.233e-39
4.981e-38
-3.443e-37
2.399e-36
-1.693e-35
1.213e-34
-8.828e-34
6.5e-33
-4.809e-32
3.55e-31
-2.6e-30
1.882e-29
-1.294e-28
8.476e-28
-5.088e-27
2.769e-26
-1.359e-25
5.985e-25
-2.223e-24
6.991e-24
-4.712e-24
-1.134e-22
2.761e-21
3.88e-21
1.611e-19
1.435e-18
7.576e-18
3.278e-17
1.282e-16
4.63e-16
1.55e-15
4.817e-15
1.389e-14
3.72e-14
9.253e-14
2.14e-13
4.604e-13
9.233e-13
1.728e-12
3.028e-12
4.98e-12
7.715e-12
1.13e-11
1.571e-11
2.081e-11
2.638e-11
3.209e-11
3.766e-11
4.267e-11
4.706e-11
5.041e-11
5.281e-11
5.428e-11
5.503e-11
5.487e-11
5.431e-11
5.336e-11
5.215e-11
5.08e-11
4.942e-11
4.809e-11
4.688e-11
4.584e-11
4.499e-11
4.437e-11
4.396e-11
4.386e-11
4.4e-11
4.437e-11
4.502e-11
4.596e-11
4.72e-11
4.874e-11
5.059e-11
5.279e-11
5.533e-11
5.825e-11
6.158e-11
6.533e-11
6.955e-11
7.426e-11
7.951e-11
8.534e-11
9.179e-11
9.891e-11
1.068e-10
1.154e-10
1.248e-10
1.352e-10
1.465e-10
1.589e-10
1.724e-10
1.871e-10
2.031e-10
2.204e-10
2.391e-10
2.594e-10
2.812e-10
3.048e-10
3.3e-10
3.572e-10
3.86e-10
4.285e-10
1.035e-59
-1.291e-58
3.196e-58
3.279e-57
-5.238e-56
4.276e-55
-2.257e-54
9.096e-54
-2.672e-53
-3.355e-53
6.517e-52
-9.766e-51
1.224e-49
-1.399e-48
1.485e-47
-1.479e-46
1.396e-45
-1.258e-44
1.09e-43
-9.119e-43
7.379e-42
-5.78e-41
4.378e-40
-3.198e-39
2.239e-38
-1.515e-37
1.015e-36
-6.723e-36
4.401e-35
-2.856e-34
1.846e-33
-1.198e-32
7.867e-32
-5.268e-31
3.603e-30
-2.499e-29
1.748e-28
-1.233e-27
8.316e-27
-5.2e-26
3.166e-25
-1.85e-24
1.048e-23
-4.961e-23
3.103e-22
-1.361e-21
4.156e-21
4.785e-20
5.272e-19
4.471e-18
2.5e-17
1.172e-16
5.001e-16
1.968e-15
7.156e-15
2.404e-14
7.462e-14
2.139e-13
5.663e-13
1.385e-12
3.134e-12
6.561e-12
1.273e-11
2.295e-11
3.853e-11
6.047e-11
8.909e-11
1.237e-10
1.627e-10
2.034e-10
2.431e-10
2.782e-10
3.071e-10
3.262e-10
3.392e-10
3.388e-10
3.342e-10
3.241e-10
3.097e-10
2.923e-10
2.735e-10
2.544e-10
2.358e-10
2.183e-10
2.023e-10
1.88e-10
1.753e-10
1.644e-10
1.55e-10
1.472e-10
1.408e-10
1.358e-10
1.319e-10
1.292e-10
1.274e-10
1.268e-10
1.271e-10
1.283e-10
1.303e-10
1.332e-10
1.371e-10
1.418e-10
1.475e-10
1.541e-10
1.617e-10
1.704e-10
1.802e-10
1.912e-10
2.034e-10
2.17e-10
2.32e-10
2.485e-10
2.666e-10
2.865e-10
3.082e-10
3.318e-10
3.576e-10
3.856e-10
4.16e-10
4.489e-10
4.844e-10
5.227e-10
5.639e-10
6.082e-10
6.556e-10
7.065e-10
7.598e-10
8.401e-10
-5.328e-58
5.648e-57
-3.522e-56
1.433e-55
-2.16e-56
-2.77e-54
2.886e-53
-1.668e-52
8.274e-52
-4.642e-51
3.016e-50
-3.263e-49
3.649e-48
-3.829e-47
3.746e-46
-3.461e-45
3.055e-44
-2.601e-43
2.148e-42
-1.727e-41
1.354e-40
-1.036e-39
7.724e-39
-5.598e-38
3.922e-37
-2.68e-36
1.805e-35
-1.193e-34
7.699e-34
-4.832e-33
2.931e-32
-1.708e-31
9.504e-31
-5.017e-30
2.504e-29
-1.187e-28
5.437e-28
-2.976e-27
1.61e-26
-5.535e-26
1.878e-25
-7.051e-25
5.869e-24
6.523e-23
1.001e-21
-1.793e-21
1.767e-19
2.002e-18
1.336e-17
7.454e-17
3.784e-16
1.771e-15
7.645e-15
3.041e-14
1.113e-13
3.748e-13
1.16e-12
3.296e-12
8.607e-12
2.065e-11
4.557e-11
9.255e-11
1.733e-10
2.997e-10
4.804e-10
7.173e-10
1.002e-09
1.315e-09
1.633e-09
1.922e-09
2.165e-09
2.323e-09
2.41e-09
2.392e-09
2.326e-09
2.209e-09
2.054e-09
1.877e-09
1.692e-09
1.51e-09
1.338e-09
1.182e-09
1.042e-09
9.196e-10
8.14e-10
7.24e-10
6.478e-10
5.839e-10
5.306e-10
4.865e-10
4.502e-10
4.206e-10
3.968e-10
3.779e-10
3.634e-10
3.527e-10
3.455e-10
3.409e-10
3.401e-10
3.414e-10
3.45e-10
3.511e-10
3.596e-10
3.704e-10
3.835e-10
3.991e-10
4.171e-10
4.376e-10
4.608e-10
4.868e-10
5.157e-10
5.476e-10
5.828e-10
6.215e-10
6.637e-10
7.099e-10
7.601e-10
8.146e-10
8.736e-10
9.374e-10
1.006e-09
1.08e-09
1.16e-09
1.245e-09
1.336e-09
1.434e-09
1.535e-09
1.69e-09
1.056e-56
-1.093e-55
7.562e-55
-4.108e-54
1.653e-53
-2.996e-53
-9.731e-53
1.871e-51
-8.465e-51
-2.227e-50
6.157e-49
-8.324e-48
8.778e-47
-8.203e-46
7.183e-45
-6.039e-44
4.933e-43
-3.94e-42
3.089e-41
-2.381e-40
1.807e-39
-1.352e-38
9.953e-38
-7.21e-37
5.13e-36
-3.617e-35
2.532e-34
-1.753e-33
1.197e-32
-8.022e-32
5.242e-31
-3.317e-30
2.021e-29
-1.175e-28
6.448e-28
-3.282e-27
1.516e-26
-6.24e-26
1.499e-25
2.064e-25
-6.486e-24
6.305e-23
-4.543e-22
4.688e-21
-4.131e-21
3.457e-19
4.222e-18
3.073e-17
1.894e-16
1.065e-15
5.518e-15
2.63e-14
1.152e-13
4.627e-13
1.702e-12
5.729e-12
1.762e-11
4.954e-11
1.272e-10
2.985e-10
6.403e-10
1.257e-09
2.263e-09
3.74e-09
5.703e-09
8.07e-09
1.065e-08
1.32e-08
1.544e-08
1.706e-08
1.815e-08
1.806e-08
1.756e-08
1.656e-08
1.517e-08
1.357e-08
1.19e-08
1.027e-08
8.768e-09
7.421e-09
6.251e-09
5.256e-09
4.422e-09
3.733e-09
3.167e-09
2.706e-09
2.33e-09
2.026e-09
1.78e-09
1.58e-09
1.418e-09
1.288e-09
1.183e-09
1.098e-09
1.032e-09
9.793e-10
9.393e-10
9.098e-10
8.898e-10
8.774e-10
8.734e-10
8.762e-10
8.846e-10
8.992e-10
9.196e-10
9.458e-10
9.776e-10
1.015e-09
1.059e-09
1.108e-09
1.164e-09
1.226e-09
1.295e-09
1.371e-09
1.454e-09
1.545e-09
1.644e-09
1.752e-09
1.868e-09
1.994e-09
2.129e-09
2.275e-09
2.431e-09
2.598e-09
2.776e-09
2.966e-09
3.163e-09
3.466e-09
-1.502e-55
1.53e-54
-1.119e-53
7.007e-53
-3.689e-52
1.547e-51
-2.507e-51
-1.732e-50
2.929e-49
-2.925e-48
2.467e-47
-1.921e-46
1.478e-45
-1.132e-44
8.672e-44
-6.633e-43
5.044e-42
-3.802e-41
2.834e-40
-2.09e-39
1.524e-38
-1.101e-37
7.899e-37
-5.636e-36
3.998e-35
-2.841e-34
2.019e-33
-1.429e-32
1.007e-31
-7.059e-31
4.858e-30
-3.274e-29
2.165e-28
-1.4e-27
8.84e-27
-5.43e-26
3.238e-25
-1.869e-24
1.043e-23
-5.581e-23
2.933e-22
-1.434e-21
8.247e-21
2.047e-20
6.172e-19
7.605e-18
6.012e-17
4.096e-16
2.559e-15
1.472e-14
7.785e-14
3.774e-13
1.673e-12
6.768e-12
2.495e-11
8.368e-11
2.552e-10
7.071e-10
1.779e-09
4.066e-09
8.447e-09
1.597e-08
2.751e-08
4.328e-08
6.252e-08
8.352e-08
1.039e-07
1.215e-07
1.334e-07
1.383e-07
1.359e-07
1.292e-07
1.184e-07
1.052e-07
9.09e-08
7.682e-08
6.376e-08
5.221e-08
4.233e-08
3.411e-08
2.742e-08
2.204e-08
1.777e-08
1.441e-08
1.176e-08
9.692e-09
8.066e-09
6.789e-09
5.784e-09
4.989e-09
4.36e-09
3.859e-09
3.461e-09
3.143e-09
2.89e-09
2.69e-09
2.532e-09
2.411e-09
2.319e-09
2.253e-09
2.21e-09
2.181e-09
2.181e-09
2.19e-09
2.215e-09
2.253e-09
2.306e-09
2.372e-09
2.452e-09
2.545e-09
2.652e-09
2.772e-09
2.907e-09
3.057e-09
3.222e-09
3.402e-09
3.599e-09
3.813e-09
4.045e-09
4.296e-09
4.566e-09
4.855e-09
5.165e-09
5.496e-09
5.849e-09
6.225e-09
6.611e-09
7.212e-09
1.626e-54
-1.594e-53
1.209e-52
-8.475e-52
5.49e-51
-3.293e-50
1.836e-49
-9.619e-49
4.88e-48
-2.505e-47
1.543e-46
-9.36e-46
7.546e-45
-6.273e-44
5.193e-43
-4.181e-42
3.25e-41
-2.439e-40
1.77e-39
-1.244e-38
8.477e-38
-5.604e-37
3.593e-36
-2.232e-35
1.344e-34
-8.088e-34
4.892e-33
-2.978e-32
1.874e-31
-1.188e-30
7.479e-30
-4.625e-29
2.875e-28
-1.787e-27
1.107e-26
-6.801e-26
4.122e-25
-2.451e-24
1.432e-23
-7.832e-23
5.179e-22
-2.228e-21
7.98e-20
1.28e-18
1.204e-17
9.801e-17
7.359e-16
5.114e-15
3.277e-14
1.929e-13
1.039e-12
5.106e-12
2.284e-11
9.273e-11
3.413e-10
1.137e-09
3.422e-09
9.301e-09
2.282e-08
5.057e-08
1.013e-07
1.834e-07
3.01e-07
4.486e-07
6.115e-07
7.682e-07
9.016e-07
9.964e-07
1.01e-06
9.828e-07
9.181e-07
8.236e-07
7.129e-07
5.986e-07
4.901e-07
3.932e-07
3.104e-07
2.422e-07
1.875e-07
1.446e-07
1.115e-07
8.612e-08
6.687e-08
5.23e-08
4.129e-08
3.295e-08
2.661e-08
2.178e-08
1.806e-08
1.52e-08
1.297e-08
1.123e-08
9.866e-09
8.788e-09
7.934e-09
7.258e-09
6.725e-09
6.305e-09
5.98e-09
5.732e-09
5.55e-09
5.422e-09
5.345e-09
5.312e-09
5.324e-09
5.367e-09
5.443e-09
5.552e-09
5.693e-09
5.864e-09
6.066e-09
6.299e-09
6.562e-09
6.857e-09
7.184e-09
7.544e-09
7.938e-09
8.367e-09
8.832e-09
9.334e-09
9.875e-09
1.046e-08
1.108e-08
1.174e-08
1.244e-08
1.319e-08
1.396e-08
1.516e-08
-8.825e-54
8.426e-53
-6.461e-52
4.859e-51
-3.492e-50
2.367e-49
-1.483e-48
8.37e-48
-4.008e-47
1.43e-46
3.92e-46
-7.469e-45
8.951e-44
-8.545e-43
7.213e-42
-5.663e-41
4.233e-40
-3.049e-39
2.131e-38
-1.451e-37
9.626e-37
-6.22e-36
3.901e-35
-2.355e-34
1.376e-33
-7.797e-33
4.247e-32
-2.157e-31
1.133e-30
-4.983e-30
1.144e-29
2.448e-29
-6.948e-28
7.359e-27
-6.148e-26
4.549e-25
-3.101e-24
1.987e-23
-1.196e-22
7.186e-22
-2.634e-21
7.606e-20
1.364e-18
1.419e-17
1.285e-16
1.074e-15
8.32e-15
5.944e-14
3.9e-13
2.34e-12
1.279e-11
6.35e-11
2.853e-10
1.157e-09
4.229e-09
1.391e-08
4.107e-08
1.088e-07
2.588e-07
5.525e-07
1.06e-06
1.829e-06
2.845e-06
4e-06
5.126e-06
6.047e-06
6.793e-06
6.789e-06
6.568e-06
6.069e-06
5.363e-06
4.557e-06
3.745e-06
2.992e-06
2.335e-06
1.789e-06
1.352e-06
1.012e-06
7.53e-07
5.591e-07
4.157e-07
3.104e-07
2.334e-07
1.771e-07
1.358e-07
1.055e-07
8.31e-08
6.64e-08
5.386e-08
4.438e-08
3.714e-08
3.157e-08
2.725e-08
2.388e-08
2.123e-08
1.914e-08
1.749e-08
1.619e-08
1.517e-08
1.438e-08
1.377e-08
1.332e-08
1.301e-08
1.281e-08
1.27e-08
1.272e-08
1.281e-08
1.296e-08
1.32e-08
1.35e-08
1.388e-08
1.432e-08
1.483e-08
1.541e-08
1.606e-08
1.678e-08
1.757e-08
1.843e-08
1.937e-08
2.038e-08
2.147e-08
2.264e-08
2.389e-08
2.522e-08
2.663e-08
2.814e-08
2.967e-08
3.208e-08
1.707e-53
-9.064e-53
7.711e-52
-7.651e-51
9.204e-50
-1.007e-48
9.814e-48
-8.713e-47
7.19e-46
-5.608e-45
4.191e-44
-3.029e-43
2.137e-42
-1.48e-41
1.011e-40
-6.839e-40
4.592e-39
-3.067e-38
2.041e-37
-1.354e-36
8.954e-36
-5.904e-35
3.878e-34
-2.536e-33
1.646e-32
-1.06e-31
6.763e-31
-4.27e-30
2.665e-29
-1.642e-28
9.979e-28
-5.97e-27
3.512e-26
-2.028e-25
1.148e-24
-6.355e-24
3.441e-23
-1.805e-22
9.427e-22
-4.224e-21
3.962e-20
1.118e-18
1.34e-17
1.353e-16
1.257e-15
1.083e-14
8.616e-14
6.303e-13
4.217e-12
2.568e-11
1.418e-10
7.065e-10
3.168e-09
1.275e-08
4.591e-08
1.478e-07
4.242e-07
1.085e-06
2.479e-06
5.055e-06
9.217e-06
1.506e-05
2.21e-05
2.923e-05
3.51e-05
3.968e-05
4.019e-05
3.884e-05
3.574e-05
3.136e-05
2.638e-05
2.14e-05
1.683e-05
1.29e-05
9.683e-06
7.147e-06
5.211e-06
3.769e-06
2.715e-06
1.955e-06
1.411e-06
1.025e-06
7.508e-07
5.558e-07
4.166e-07
3.166e-07
2.443e-07
1.915e-07
1.526e-07
1.236e-07
1.018e-07
8.527e-08
7.259e-08
6.277e-08
5.513e-08
4.913e-08
4.441e-08
4.069e-08
3.775e-08
3.544e-08
3.365e-08
3.228e-08
3.126e-08
3.055e-08
3.01e-08
2.986e-08
2.99e-08
3.009e-08
3.045e-08
3.097e-08
3.165e-08
3.249e-08
3.347e-08
3.461e-08
3.589e-08
3.732e-08
3.89e-08
4.063e-08
4.252e-08
4.456e-08
4.676e-08
4.912e-08
5.164e-08
5.433e-08
5.719e-08
6.022e-08
6.329e-08
6.815e-08
6.369e-52
-6.214e-51
4.868e-50
-3.646e-49
2.605e-48
-1.783e-47
1.175e-46
-7.492e-46
4.651e-45
-2.827e-44
1.693e-43
-1.004e-42
5.927e-42
-3.503e-41
2.084e-40
-1.253e-39
7.654e-39
-4.765e-38
3.031e-37
-1.971e-36
1.31e-35
-8.872e-35
6.113e-34
-4.244e-33
2.906e-32
-1.969e-31
1.32e-30
-8.752e-30
5.734e-29
-3.71e-28
2.368e-27
-1.49e-26
9.232e-26
-5.627e-25
3.371e-24
-1.98e-23
1.146e-22
-6.333e-22
3.712e-21
-1.551e-20
4.927e-19
9.66e-18
1.128e-16
1.163e-15
1.112e-14
9.832e-14
8.006e-13
5.967e-12
4.049e-11
2.488e-10
1.377e-09
6.838e-09
3.034e-08
1.199e-07
4.208e-07
1.309e-06
3.604e-06
8.79e-06
1.904e-05
3.661e-05
6.28e-05
9.65e-05
0.0001333
0.0001654
0.0001894
0.0001978
0.000192
0.0001775
0.0001563
0.0001317
0.0001067
8.363e-05
6.371e-05
4.738e-05
3.456e-05
2.482e-05
1.762e-05
1.243e-05
8.738e-06
6.147e-06
4.342e-06
3.088e-06
2.217e-06
1.611e-06
1.187e-06
8.871e-07
6.74e-07
5.207e-07
4.093e-07
3.274e-07
2.665e-07
2.207e-07
1.859e-07
1.592e-07
1.385e-07
1.224e-07
1.097e-07
9.969e-08
9.179e-08
8.556e-08
8.067e-08
7.687e-08
7.398e-08
7.186e-08
7.039e-08
6.949e-08
6.906e-08
6.92e-08
6.968e-08
7.053e-08
7.173e-08
7.329e-08
7.517e-08
7.738e-08
7.991e-08
8.276e-08
8.592e-08
8.94e-08
9.32e-08
9.732e-08
1.018e-07
1.065e-07
1.116e-07
1.171e-07
1.228e-07
1.29e-07
1.351e-07
1.449e-07
-2.211e-51
2.125e-50
-1.664e-49
1.262e-48
-9.239e-48
6.538e-47
-4.489e-46
3.005e-45
-1.971e-44
1.274e-43
-8.142e-43
5.171e-42
-3.274e-41
2.07e-40
-1.31e-39
8.299e-39
-5.266e-38
3.348e-37
-2.133e-36
1.362e-35
-8.716e-35
5.598e-34
-3.611e-33
2.331e-32
-1.491e-31
9.49e-31
-6.001e-30
3.768e-29
-2.348e-28
1.45e-27
-8.877e-27
5.377e-26
-3.22e-25
1.905e-24
-1.111e-23
6.403e-23
-3.574e-22
2.174e-21
-8.6e-21
2.783e-19
5.899e-18
7.475e-17
8.468e-16
8.931e-15
8.746e-14
7.905e-13
6.552e-12
4.948e-11
3.383e-10
2.081e-09
1.146e-08
5.61e-08
2.434e-07
9.32e-07
3.139e-06
9.279e-06
2.407e-05
5.509e-05
0.0001113
0.0001986
0.0003168
0.0004557
0.0005905
0.0006944
0.0007593
0.0007468
0.0007018
0.0006275
0.0005364
0.0004407
0.0003494
0.0002686
0.000201
0.000147
0.0001055
7.452e-05
5.209e-05
3.616e-05
2.503e-05
1.734e-05
1.207e-05
8.467e-06
5.999e-06
4.305e-06
3.133e-06
2.317e-06
1.742e-06
1.333e-06
1.038e-06
8.234e-07
6.649e-07
5.466e-07
4.571e-07
3.888e-07
3.361e-07
2.951e-07
2.63e-07
2.377e-07
2.177e-07
2.019e-07
1.894e-07
1.796e-07
1.72e-07
1.663e-07
1.622e-07
1.595e-07
1.577e-07
1.574e-07
1.579e-07
1.591e-07
1.612e-07
1.641e-07
1.677e-07
1.72e-07
1.769e-07
1.826e-07
1.889e-07
1.959e-07
2.036e-07
2.119e-07
2.209e-07
2.305e-07
2.408e-07
2.518e-07
2.635e-07
2.758e-07
2.882e-07
3.08e-07
4.703e-51
-4.585e-50
3.625e-49
-2.768e-48
2.033e-47
-1.438e-46
9.8e-46
-6.45e-45
4.107e-44
-2.537e-43
1.525e-42
-8.961e-42
5.169e-41
-2.947e-40
1.675e-39
-9.578e-39
5.58e-38
-3.348e-37
2.087e-36
-1.355e-35
9.13e-35
-6.337e-34
4.495e-33
-3.18e-32
2.204e-31
-1.499e-30
1.003e-29
-6.615e-29
4.299e-28
-2.757e-27
1.745e-26
-1.091e-25
6.73e-25
-4.1e-24
2.468e-23
-1.455e-22
8.991e-22
-2.928e-21
1.227e-19
2.83e-18
3.897e-17
4.83e-16
5.595e-15
6.04e-14
6.036e-13
5.547e-12
4.654e-11
3.538e-10
2.419e-09
1.477e-08
8.001e-08
3.819e-07
1.598e-06
5.83e-06
1.85e-05
5.092e-05
0.0001222
0.000258
0.0004766
0.0007775
0.001144
0.001536
0.001873
0.002126
0.002178
0.002103
0.001931
0.001694
0.001431
0.001168
0.0009216
0.0007062
0.0005272
0.0003845
0.0002749
0.0001934
0.0001345
9.277e-05
6.379e-05
4.39e-05
3.034e-05
2.113e-05
1.487e-05
1.06e-05
7.667e-06
5.636e-06
4.215e-06
3.209e-06
2.487e-06
1.964e-06
1.58e-06
1.293e-06
1.078e-06
9.133e-07
7.868e-07
6.886e-07
6.116e-07
5.51e-07
5.03e-07
4.65e-07
4.348e-07
4.11e-07
3.925e-07
3.783e-07
3.678e-07
3.603e-07
3.557e-07
3.529e-07
3.534e-07
3.552e-07
3.588e-07
3.64e-07
3.708e-07
3.791e-07
3.889e-07
4.002e-07
4.128e-07
4.268e-07
4.422e-07
4.59e-07
4.771e-07
4.966e-07
5.175e-07
5.397e-07
5.632e-07
5.881e-07
6.131e-07
6.53e-07
-1.597e-50
1.452e-49
-1.11e-48
8.522e-48
-6.512e-47
4.93e-46
-3.683e-45
2.707e-44
-1.955e-43
1.385e-42
-9.625e-42
6.571e-41
-4.412e-40
2.917e-39
-1.903e-38
1.226e-37
-7.817e-37
4.939e-36
-3.096e-35
1.927e-34
-1.192e-33
7.333e-33
-4.485e-32
2.726e-31
-1.646e-30
9.872e-30
-5.887e-29
3.49e-28
-2.057e-27
1.205e-26
-7.022e-26
4.068e-25
-2.343e-24
1.343e-23
-7.626e-23
4.439e-22
-1.936e-21
3.2e-20
1.045e-18
1.601e-17
2.165e-16
2.739e-15
3.242e-14
3.566e-13
3.619e-12
3.364e-11
2.839e-10
2.158e-09
1.464e-08
8.793e-08
4.634e-07
2.127e-06
8.448e-06
2.886e-05
8.458e-05
0.0002127
0.0004648
0.0008899
0.001478
0.002201
0.002976
0.003723
0.004388
0.00475
0.004687
0.004433
0.004006
0.003501
0.00298
0.002461
0.001968
0.001528
0.001155
0.0008522
0.0006148
0.0004355
0.0003042
0.0002106
0.000145
9.988e-05
6.904e-05
4.806e-05
3.38e-05
2.408e-05
1.74e-05
1.279e-05
9.555e-06
7.27e-06
5.633e-06
4.446e-06
3.573e-06
2.924e-06
2.435e-06
2.063e-06
1.776e-06
1.553e-06
1.378e-06
1.241e-06
1.131e-06
1.044e-06
9.753e-07
9.206e-07
8.777e-07
8.444e-07
8.194e-07
8.012e-07
7.895e-07
7.813e-07
7.808e-07
7.832e-07
7.892e-07
7.988e-07
8.118e-07
8.28e-07
8.474e-07
8.697e-07
8.95e-07
9.232e-07
9.542e-07
9.88e-07
1.025e-06
1.064e-06
1.106e-06
1.151e-06
1.198e-06
1.248e-06
1.298e-06
1.379e-06
-4.264e-50
4.175e-49
-3.345e-48
2.613e-47
-1.979e-46
1.455e-45
-1.038e-44
7.207e-44
-4.875e-43
3.222e-42
-2.087e-41
1.329e-40
-8.348e-40
5.194e-39
-3.212e-38
1.981e-37
-1.223e-36
7.573e-36
-4.716e-35
2.958e-34
-1.869e-33
1.19e-32
-7.633e-32
4.899e-31
-3.121e-30
1.972e-29
-1.237e-28
7.712e-28
-4.778e-27
2.944e-26
-1.805e-25
1.102e-24
-6.694e-24
4.054e-23
-2.433e-22
1.532e-21
-5.564e-21
1.968e-19
5.033e-18
7.657e-17
1.054e-15
1.359e-14
1.637e-13
1.827e-12
1.875e-11
1.753e-10
1.48e-09
1.117e-08
7.465e-08
4.367e-07
2.215e-06
9.65e-06
3.581e-05
0.0001126
0.0002994
0.0006786
0.001336
0.002281
0.003402
0.004732
0.005868
0.006852
0.008433
0.009308
0.008993
0.007855
0.006579
0.005765
0.005036
0.004266
0.003491
0.002777
0.00215
0.001621
0.001191
0.0008575
0.0006072
0.000425
0.0002956
0.0002052
0.0001428
9.998e-05
7.069e-05
5.059e-05
3.673e-05
2.709e-05
2.033e-05
1.552e-05
1.207e-05
9.557e-06
7.706e-06
6.324e-06
5.28e-06
4.483e-06
3.867e-06
3.387e-06
3.011e-06
2.713e-06
2.476e-06
2.287e-06
2.136e-06
2.017e-06
1.922e-06
1.849e-06
1.793e-06
1.752e-06
1.724e-06
1.707e-06
1.7e-06
1.704e-06
1.715e-06
1.733e-06
1.758e-06
1.79e-06
1.828e-06
1.873e-06
1.924e-06
1.98e-06
2.043e-06
2.111e-06
2.184e-06
2.264e-06
2.348e-06
2.438e-06
2.534e-06
2.635e-06
2.735e-06
2.896e-06
9.988e-50
-9.11e-49
6.972e-48
-5.348e-47
4.073e-46
-3.07e-45
2.284e-44
-1.674e-43
1.206e-42
-8.547e-42
5.95e-41
-4.071e-40
2.739e-39
-1.813e-38
1.182e-37
-7.601e-37
4.823e-36
-3.024e-35
1.875e-34
-1.151e-33
7.003e-33
-4.226e-32
2.532e-31
-1.503e-30
8.875e-30
-5.218e-29
3.057e-28
-1.786e-27
1.041e-26
-6.054e-26
3.519e-25
-2.044e-24
1.188e-23
-6.897e-23
4.102e-22
-1.885e-21
3.865e-20
1.296e-18
2.162e-17
3.216e-16
4.493e-15
5.887e-14
7.186e-13
8.106e-12
8.373e-11
7.844e-10
6.592e-09
4.914e-08
3.209e-07
1.814e-06
8.76e-06
3.576e-05
0.0001222
0.0003481
0.00083
0.001689
0.002989
0.004473
0.006208
0.008434
0.01018
0.01027
0.01007
0.0104
0.01044
0.009983
0.01034
0.009973
0.008296
0.006589
0.005407
0.004393
0.003495
0.002703
0.002035
0.001496
0.00108
0.0007694
0.0005435
0.0003826
0.0002696
0.000191
0.0001365
9.864e-05
7.228e-05
5.378e-05
4.068e-05
3.13e-05
2.452e-05
1.955e-05
1.586e-05
1.309e-05
1.099e-05
9.379e-06
8.128e-06
7.149e-06
6.376e-06
5.763e-06
5.274e-06
4.883e-06
4.571e-06
4.321e-06
4.124e-06
3.97e-06
3.852e-06
3.765e-06
3.705e-06
3.668e-06
3.651e-06
3.657e-06
3.677e-06
3.713e-06
3.763e-06
3.826e-06
3.904e-06
3.993e-06
4.096e-06
4.21e-06
4.335e-06
4.472e-06
4.621e-06
4.78e-06
4.95e-06
5.131e-06
5.322e-06
5.524e-06
5.725e-06
6.047e-06
2.597e-49
-2.438e-48
1.906e-47
-1.483e-46
1.138e-45
-8.591e-45
6.374e-44
-4.641e-43
3.315e-42
-2.323e-41
1.598e-40
-1.079e-39
7.171e-39
-4.691e-38
3.025e-37
-1.926e-36
1.212e-35
-7.548e-35
4.66e-34
-2.854e-33
1.737e-32
-1.051e-31
6.325e-31
-3.797e-30
2.269e-29
-1.351e-28
8.029e-28
-4.764e-27
2.825e-26
-1.676e-25
9.96e-25
-5.934e-24
3.55e-23
-2.127e-22
1.325e-21
-5.977e-21
1.353e-19
4.645e-18
7.836e-17
1.183e-15
1.676e-14
2.224e-13
2.744e-12
3.118e-11
3.231e-10
3.02e-09
2.516e-08
1.843e-07
1.169e-06
6.337e-06
2.888e-05
0.0001093
0.0003398
0.0008674
0.001844
0.003415
0.005465
0.007095
0.01014
0.01
0.011
0.01024
0.01023
0.0105
0.01038
0.009979
0.01119
0.01095
0.01018
0.01018
0.007835
0.006334
0.005161
0.004081
0.003135
0.002355
0.001737
0.001263
0.00091
0.0006525
0.0004679
0.0003369
0.0002444
0.0001792
0.0001331
0.0001003
7.681e-05
5.979e-05
4.734e-05
3.812e-05
3.123e-05
2.601e-05
2.201e-05
1.892e-05
1.651e-05
1.461e-05
1.311e-05
1.191e-05
1.095e-05
1.017e-05
9.554e-06
9.06e-06
8.667e-06
8.36e-06
8.126e-06
7.953e-06
7.833e-06
7.759e-06
7.728e-06
7.742e-06
7.784e-06
7.856e-06
7.958e-06
8.088e-06
8.245e-06
8.427e-06
8.634e-06
8.864e-06
9.117e-06
9.393e-06
9.691e-06
1.001e-05
1.035e-05
1.071e-05
1.109e-05
1.149e-05
1.189e-05
1.253e-05
3.615e-49
-3.522e-48
2.835e-47
-2.246e-46
1.739e-45
-1.315e-44
9.714e-44
-7.007e-43
4.942e-42
-3.413e-41
2.311e-40
-1.538e-39
1.008e-38
-6.52e-38
4.17e-37
-2.642e-36
1.663e-35
-1.041e-34
6.493e-34
-4.042e-33
2.515e-32
-1.567e-31
9.772e-31
-6.081e-30
3.768e-29
-2.329e-28
1.437e-27
-8.868e-27
5.478e-26
-3.391e-25
2.107e-24
-1.316e-23
8.277e-23
-5.218e-22
3.504e-21
-1.354e-20
5.29e-19
1.499e-17
2.505e-16
3.821e-15
5.479e-14
7.345e-13
9.131e-12
1.042e-10
1.081e-09
1.006e-08
8.275e-08
5.933e-07
3.643e-06
1.882e-05
8.032e-05
0.000279
0.0007822
0.001779
0.00338
0.005952
0.008839
0.01008
0.01185
0.01016
0.01018
0.00997
0.009969
0.00997
0.00997
0.00997
0.00997
0.01025
0.01008
0.01202
0.01008
0.009715
0.007375
0.005751
0.004458
0.003405
0.002563
0.001905
0.001402
0.001027
0.000752
0.0005523
0.0004084
0.000305
0.0002305
0.0001766
0.0001374
0.0001085
8.713e-05
7.11e-05
5.896e-05
4.967e-05
4.249e-05
3.689e-05
3.248e-05
2.898e-05
2.619e-05
2.395e-05
2.215e-05
2.07e-05
1.953e-05
1.86e-05
1.786e-05
1.728e-05
1.684e-05
1.652e-05
1.63e-05
1.616e-05
1.613e-05