0.0125 	0.547837 	68.897 	9.39897e-11 	0 	0 	0.0972525 	0.00703755 	0 	0.0178726
0.0375 	0.521814 	68.8968 	7.26222e-11 	0 	0 	0.138089 	0.0070917 	0 	0.00300471
0.0625 	0.503174 	68.8965 	6.03198e-11 	0 	6.6141e-18 	0.158269 	0.007846 	0 	0.000711182
0.0875 	0.374391 	68.8961 	1.56706e-11 	0 	0.119149 	0.162157 	0.0141372 	0 	0.00016588
0.1125 	0.181442 	68.894 	1.04192e-12 	0 	0.303332 	0.137064 	0.0481601 	0 	1.94976e-06
0.1375 	0.124878 	68.8687 	2.97188e-13 	0 	0.347518 	0.100481 	0.0971025 	0 	2.10496e-05
0.1625 	0.0922254 	68.7855 	1.11253e-13 	0 	0.375252 	0.0749092 	0.127613 	0 	0
0.1875 	0.0827746 	68.6067 	7.8787e-14 	0 	0.392103 	0.059106 	0.136017 	0 	0
0.2125 	0.0743396 	68.3547 	5.60367e-14 	0 	0.403082 	0.0407174 	0.151861 	0 	0
0.2375 	0.0680918 	68.0098 	4.24867e-14 	0 	0.409966 	0.0173536 	0.174588 	0 	0
0.2625 	0.0679548 	67.6087 	4.22184e-14 	0 	0.414066 	0.00603146 	0.181947 	0 	0
0.2875 	0.0696217 	67.2216 	4.55648e-14 	0 	0.418615 	0.00218812 	0.179575 	0 	8.88267e-27
0.3125 	0.0655612 	66.8136 	3.77184e-14 	0 	0.42566 	0.000899688 	0.177879 	2.73115e-18 	2.0002e-12
0.3375 	0.054815 	66.2403 	2.15467e-14 	0 	0.43183 	0.000618802 	0.158136 	0.0246 	4.44134e-27
0.3625 	0.0354638 	64.9888 	5.60314e-15 	0 	0.434087 	6.17095e-05 	0.0963893 	0.103999 	0
0.3875 	0.0358149 	62.0026 	5.77543e-15 	0 	0.436896 	3.31273e-05 	0.081232 	0.116024 	0
0.4125 	0.0368366 	59.1882 	6.29729e-15 	0 	0.438919 	2.30805e-05 	0.0649929 	0.129229 	0
0.4375 	0.0299274 	55.6585 	3.32899e-15 	0 	0.441986 	1.50388e-05 	0.0553172 	0.142755 	0
0.4625 	0.0187009 	47.4169 	7.93785e-16 	0 	0.446648 	1.09047e-05 	0.0517467 	0.152893 	0
0.4875 	0.00869417 	8.44871 	7.81599e-17 	4.60263e-17 	0.451745 	1.37293e-05 	0.0506282 	0.158919 	0
0.5125 	0.0317628 	0.106574 	3.99491e-15 	0.0207284 	0.416889 	6.13256e-06 	0.0502968 	0.150316 	0
0.5375 	0.256647 	0.0970818 	3.57548e-12 	0.171243 	0.131196 	1.19149e-21 	0.050028 	0.0608856 	0
0.5625 	0.27189 	0.092838 	4.43096e-12 	0.183021 	0.107829 	0 	0.0500065 	0.0572535 	0
0.5875 	0.282851 	0.0892888 	5.14243e-12 	0.191251 	0.0911357 	0 	0.0500015 	0.0547611 	0
0.6125 	0.2927 	0.0862 	5.85832e-12 	0.197772 	0.0765024 	0 	0.0500004 	0.0530253 	0
0.6375 	0.301438 	0.0834639 	6.55988e-12 	0.202817 	0.0638562 	0 	0.0500001 	0.0518894 	0
0.6625 	0.309081 	0.0809997 	7.22903e-12 	0.206655 	0.0530872 	0 	0.05 	0.0511768 	0
0.6875 	0.315687 	0.0787467 	7.85186e-12 	0.209552 	0.0440194 	0 	0.05 	0.0507423 	0
0.7125 	0.321333 	0.0766584 	8.41914e-12 	0.21174 	0.0364464 	0 	0.05 	0.0504804 	0
0.7375 	0.326116 	0.0746995 	8.92611e-12 	0.213404 	0.030158 	0 	0.05 	0.0503222 	0
0.7625 	0.330138 	0.0728426 	9.37198e-12 	0.214682 	0.0249554 	0 	0.05 	0.0502248 	0
0.7875 	0.333501 	0.0710665 	9.75902e-12 	0.215676 	0.0206599 	0 	0.05 	0.050163 	0
0.8125 	0.3363 	0.0693548 	1.00915e-11 	0.21646 	0.0171172 	0 	0.05 	0.0501223 	0
0.8375 	0.338624 	0.0676946 	1.03746e-11 	0.217085 	0.0141961 	0 	0.05 	0.0500943 	0
0.8625 	0.34055 	0.0660757 	1.06144e-11 	0.217589 	0.0117863 	0 	0.05 	0.0500743 	0
0.8875 	0.342146 	0.0644902 	1.08165e-11 	0.217999 	0.00979618 	0 	0.05 	0.0500594 	0
0.9125 	0.343466 	0.0629318 	1.09864e-11 	0.218334 	0.00815115 	0 	0.05 	0.0500481 	0
0.9375 	0.344561 	0.0613954 	1.11287e-11 	0.218611 	0.00678976 	0 	0.05 	0.0500393 	0
0.9625 	0.345467 	0.0598769 	1.12479e-11 	0.218839 	0.00566196 	0 	0.05 	0.0500322 	0
0.9875 	0.346219 	0.0583732 	1.13476e-11 	0.219028 	0.00472597 	0 	0.05 	0.0500266 	0
1.0125 	0.346844 	0.0568815 	1.1431e-11 	0.219186 	0.00394829 	0 	0.05 	0.050022 	0
1.0375 	0.347363 	0.0553998 	1.15007e-11 	0.219317 	0.00330149 	0 	0.05 	0.0500183 	0
1.0625 	0.347795 	0.0539263 	1.15589e-11 	0.219427 	0.0027629 	0 	0.05 	0.0500152 	0
1.0875 	0.348155 	0.0524596 	1.16077e-11 	0.219518 	0.00231389 	0 	0.05 	0.0500127 	0
1.1125 	0.348455 	0.0509986 	1.16485e-11 	0.219595 	0.00193911 	0 	0.05 	0.0500106 	0
1.1375 	0.348706 	0.0495422 	1.16826e-11 	0.219659 	0.00162619 	0 	0.05 	0.0500088 	0
1.1625 	0.348915 	0.0480898 	1.17112e-11 	0.219713 	0.00136452 	0 	0.05 	0.0500074 	0
1.1875 	0.34909 	0.0466406 	1.17351e-11 	0.219758 	0.00114569 	0 	0.05 	0.0500062 	0
1.2125 	0.349237 	0.0451941 	1.17551e-11 	0.219795 	0.000962769 	0 	0.05 	0.0500052 	0
1.2375 	0.34936 	0.0437499 	1.1772e-11 	0.219827 	0.000808883 	0 	0.05 	0.0500044 	0
1.2625 	0.349462 	0.0423076 	1.17861e-11 	0.219854 	0.000680127 	0 	0.05 	0.0500037 	0
1.2875 	0.349549 	0.0408669 	1.1798e-11 	0.219876 	0.000571896 	0 	0.05 	0.0500031 	0
1.3125 	0.349621 	0.0394275 	1.18079e-11 	0.219895 	0.000481634 	0 	0.05 	0.0500026 	0
1.3375 	0.349682 	0.0379892 	1.18163e-11 	0.219911 	0.000405551 	0 	0.05 	0.0500022 	0
1.3625 	0.349733 	0.0365519 	1.18233e-11 	0.219924 	0.000341567 	0 	0.05 	0.0500018 	0
1.3875 	0.349775 	0.0351153 	1.18292e-11 	0.219935 	0.000287794 	0 	0.05 	0.0500015 	0
1.4125 	0.349811 	0.0336794 	1.18342e-11 	0.219945 	0.000242643 	0 	0.05 	0.0500013 	0
1.4375 	0.349842 	0.0322441 	1.18384e-11 	0.219953 	0.000204495 	0 	0.05 	0.0500011 	0
1.4625 	0.349867 	0.0308092 	1.18419e-11 	0.219959 	0.000172499 	0 	0.05 	0.0500009 	0
1.4875 	0.349889 	0.0293747 	1.18448e-11 	0.219965 	0.000145563 	0 	0.05 	0.0500008 	0
1.5125 	0.349907 	0.0279406 	1.18473e-11 	0.21997 	0.000122979 	0 	0.05 	0.0500006 	0
1.5375 	0.349922 	0.0265067 	1.18494e-11 	0.219974 	0.000103914 	0 	0.05 	0.0500006 	0
1.5625 	0.349935 	0.0250731 	1.18512e-11 	0.219977 	8.77803e-05 	0 	0.05 	0.0500004 	0
1.5875 	0.349946 	0.0236396 	1.18527e-11 	0.21998 	7.42018e-05 	0 	0.05 	0.0500004 	0
1.6125 	0.349955 	0.0222064 	1.18539e-11 	0.219982 	6.27514e-05 	0 	0.05 	0.0500003 	0
1.6375 	0.349962 	0.0207732 	1.1855e-11 	0.219984 	5.30726e-05 	0 	0.05 	0.0500003 	0
1.6625 	0.349969 	0.0193402 	1.18559e-11 	0.219986 	4.49141e-05 	0 	0.05 	0.0500002 	0
1.6875 	0.349974 	0.0179073 	1.18567e-11 	0.219988 	3.80222e-05 	0 	0.05 	0.0500002 	0
1.7125 	0.349979 	0.0164745 	1.18573e-11 	0.219989 	3.22039e-05 	0 	0.05 	0.0500002 	0
1.7375 	0.349983 	0.0150417 	1.18578e-11 	0.21999 	2.72936e-05 	0 	0.05 	0.0500001 	0
1.7625 	0.349986 	0.013609 	1.18583e-11 	0.219991 	2.3134e-05 	0 	0.05 	0.0500001 	0
1.7875 	0.349989 	0.0121763 	1.18587e-11 	0.219991 	1.96193e-05 	0 	0.05 	0.0500001 	0
1.8125 	0.349991 	0.0107437 	1.1859e-11 	0.219992 	1.66463e-05 	0 	0.05 	0.0500001 	0
1.8375 	0.349993 	0.00931116 	1.18592e-11 	0.219993 	1.41546e-05 	0 	0.05 	0.0500001 	0
1.8625 	0.349995 	0.00787862 	1.18595e-11 	0.219993 	1.19903e-05 	0 	0.05 	0.05 	0
1.8875 	0.349996 	0.0064461 	1.18597e-11 	0.219994 	1.01849e-05 	0 	0.05 	0.05 	0
1.9125 	0.349997 	0.00501361 	1.18598e-11 	0.219994 	8.65543e-06 	0 	0.05 	0.05 	0
1.9375 	0.349998 	0.00358113 	1.186e-11 	0.219994 	7.35732e-06 	0 	0.05 	0.05 	0
1.9625 	0.349999 	0.00214867 	1.18601e-11 	0.219994 	6.2733e-06 	0 	0.05 	0.0500001 	0
1.9875 	0.35 	0.000716221 	1.18602e-11 	0.219995 	5.31968e-06 	0 	0.05 	0.05 	0
