/*--------------------------------*- C++ -*----------------------------------*\
  =========                 |
  \\      /  F ield         | OpenFOAM: The Open Source CFD Toolbox
   \\    /   O peration     | Website:  https://openfoam.org
    \\  /    A nd           | Version:  7
     \\/     M anipulation  |
\*---------------------------------------------------------------------------*/
FoamFile
{
    version     2.0;
    format      ascii;
    class       volScalarField;
    location    "2159.99947343539543";
    object      p;
}
// * * * * * * * * * * * * * * * * * * * * * * * * * * * * * * * * * * * * * //

dimensions      [0 2 -2 0 0 0 0];

internalField   nonuniform List<scalar> 
4096
(
0.0005652
0.0003943
0.00031
0.0002678
0.0002445
0.0002306
0.0002216
0.0002155
0.0002112
0.0002079
0.0002053
0.0002033
0.0002017
0.0002003
0.0001991
0.0001981
0.0001972
0.0001964
0.0001957
0.000195
0.0001944
0.0001939
0.0001933
0.0001928
0.0001923
0.0001918
0.0001913
0.0001909
0.0001904
0.0001899
0.0001894
0.000189
0.0001885
0.000188
0.0001874
0.0001869
0.0001863
0.0001857
0.000185
0.0001843
0.0001835
0.0001826
0.0001816
0.0001805
0.0001792
0.0001778
0.0001763
0.0001745
0.0001725
0.0001703
0.0001678
0.000165
0.0001619
0.0001585
0.0001548
0.0001508
0.0001464
0.0001416
0.0001366
0.0001313
0.0001258
0.0001201
0.0001142
0.0001082
0.0001022
9.617e-05
9.023e-05
8.443e-05
7.879e-05
7.336e-05
6.817e-05
6.325e-05
5.861e-05
5.427e-05
5.023e-05
4.649e-05
4.306e-05
3.992e-05
3.705e-05
3.446e-05
3.211e-05
3e-05
2.811e-05
2.641e-05
2.488e-05
2.352e-05
2.229e-05
2.119e-05
2.02e-05
1.93e-05
1.848e-05
1.773e-05
1.704e-05
1.64e-05
1.58e-05
1.523e-05
1.469e-05
1.417e-05
1.367e-05
1.318e-05
1.27e-05
1.223e-05
1.177e-05
1.131e-05
1.085e-05
1.039e-05
9.937e-06
9.481e-06
9.022e-06
8.563e-06
8.102e-06
7.638e-06
7.172e-06
6.704e-06
6.232e-06
5.759e-06
5.282e-06
4.802e-06
4.32e-06
3.835e-06
3.347e-06
2.857e-06
2.367e-06
1.877e-06
1.39e-06
9.135e-07
4.581e-07
9.475e-08
0.0004207
0.0003569
0.0003072
0.0002751
0.0002542
0.0002399
0.0002298
0.0002225
0.000217
0.0002128
0.0002095
0.0002068
0.0002046
0.0002028
0.0002012
0.0001999
0.0001987
0.0001977
0.0001968
0.000196
0.0001952
0.0001945
0.0001938
0.0001932
0.0001925
0.0001919
0.0001914
0.0001908
0.0001902
0.0001896
0.0001891
0.0001885
0.0001879
0.0001873
0.0001867
0.000186
0.0001853
0.0001846
0.0001838
0.0001829
0.000182
0.000181
0.0001799
0.0001787
0.0001773
0.0001758
0.0001741
0.0001723
0.0001702
0.000168
0.0001654
0.0001626
0.0001596
0.0001562
0.0001526
0.0001486
0.0001444
0.0001398
0.000135
0.0001299
0.0001246
0.0001192
0.0001136
0.0001079
0.0001022
9.646e-05
9.082e-05
8.529e-05
7.991e-05
7.472e-05
6.974e-05
6.501e-05
6.053e-05
5.632e-05
5.238e-05
4.872e-05
4.533e-05
4.221e-05
3.935e-05
3.673e-05
3.435e-05
3.218e-05
3.022e-05
2.844e-05
2.683e-05
2.538e-05
2.406e-05
2.286e-05
2.177e-05
2.077e-05
1.985e-05
1.901e-05
1.822e-05
1.749e-05
1.681e-05
1.616e-05
1.554e-05
1.495e-05
1.438e-05
1.383e-05
1.329e-05
1.277e-05
1.225e-05
1.175e-05
1.124e-05
1.075e-05
1.026e-05
9.767e-06
9.279e-06
8.793e-06
8.307e-06
7.822e-06
7.336e-06
6.85e-06
6.364e-06
5.876e-06
5.387e-06
4.897e-06
4.406e-06
3.914e-06
3.42e-06
2.927e-06
2.433e-06
1.942e-06
1.454e-06
9.744e-07
5.087e-07
1.157e-07
0.0003372
0.0003156
0.0002901
0.0002693
0.0002538
0.0002421
0.0002331
0.0002261
0.0002205
0.000216
0.0002124
0.0002094
0.0002069
0.0002048
0.000203
0.0002015
0.0002001
0.0001989
0.0001978
0.0001968
0.0001959
0.000195
0.0001942
0.0001935
0.0001928
0.0001921
0.0001914
0.0001907
0.00019
0.0001894
0.0001887
0.000188
0.0001873
0.0001866
0.0001859
0.0001851
0.0001843
0.0001835
0.0001826
0.0001816
0.0001806
0.0001795
0.0001783
0.000177
0.0001755
0.0001739
0.0001722
0.0001703
0.0001682
0.0001658
0.0001633
0.0001605
0.0001575
0.0001542
0.0001506
0.0001467
0.0001426
0.0001382
0.0001336
0.0001287
0.0001236
0.0001184
0.000113
0.0001076
0.0001021
9.669e-05
9.13e-05
8.602e-05
8.087e-05
7.589e-05
7.111e-05
6.655e-05
6.221e-05
5.813e-05
5.429e-05
5.07e-05
4.737e-05
4.428e-05
4.143e-05
3.88e-05
3.64e-05
3.419e-05
3.218e-05
3.034e-05
2.866e-05
2.712e-05
2.572e-05
2.444e-05
2.326e-05
2.217e-05
2.117e-05
2.024e-05
1.937e-05
1.855e-05
1.779e-05
1.706e-05
1.637e-05
1.571e-05
1.508e-05
1.447e-05
1.387e-05
1.33e-05
1.273e-05
1.218e-05
1.164e-05
1.111e-05
1.058e-05
1.006e-05
9.541e-06
9.028e-06
8.518e-06
8.011e-06
7.506e-06
7.002e-06
6.499e-06
5.998e-06
5.497e-06
4.996e-06
4.496e-06
3.995e-06
3.495e-06
2.996e-06
2.497e-06
2e-06
1.506e-06
1.017e-06
5.353e-07
1.191e-07
0.0002925
0.0002854
0.0002721
0.0002589
0.000248
0.0002393
0.0002321
0.0002263
0.0002214
0.0002172
0.0002138
0.0002108
0.0002083
0.0002061
0.0002042
0.0002025
0.0002011
0.0001997
0.0001985
0.0001974
0.0001964
0.0001955
0.0001946
0.0001937
0.0001929
0.0001921
0.0001914
0.0001906
0.0001899
0.0001891
0.0001884
0.0001876
0.0001868
0.000186
0.0001852
0.0001844
0.0001835
0.0001826
0.0001816
0.0001805
0.0001794
0.0001782
0.0001769
0.0001755
0.000174
0.0001724
0.0001706
0.0001686
0.0001664
0.0001641
0.0001616
0.0001588
0.0001558
0.0001525
0.000149
0.0001452
0.0001412
0.0001369
0.0001324
0.0001277
0.0001228
0.0001178
0.0001126
0.0001074
0.0001021
9.685e-05
9.166e-05
8.656e-05
8.159e-05
7.679e-05
7.216e-05
6.774e-05
6.354e-05
5.956e-05
5.581e-05
5.229e-05
4.901e-05
4.596e-05
4.313e-05
4.051e-05
3.809e-05
3.587e-05
3.382e-05
3.194e-05
3.021e-05
2.862e-05
2.715e-05
2.58e-05
2.456e-05
2.34e-05
2.233e-05
2.132e-05
2.038e-05
1.95e-05
1.867e-05
1.788e-05
1.713e-05
1.641e-05
1.572e-05
1.505e-05
1.441e-05
1.379e-05
1.318e-05
1.259e-05
1.201e-05
1.144e-05
1.088e-05
1.033e-05
9.785e-06
9.248e-06
8.716e-06
8.188e-06
7.665e-06
7.145e-06
6.628e-06
6.113e-06
5.601e-06
5.089e-06
4.58e-06
4.071e-06
3.564e-06
3.057e-06
2.552e-06
2.048e-06
1.545e-06
1.045e-06
5.474e-07
1.163e-07
0.0002656
0.0002646
0.0002577
0.000249
0.0002413
0.0002347
0.0002292
0.0002245
0.0002204
0.0002169
0.0002138
0.0002111
0.0002088
0.0002067
0.0002048
0.0002031
0.0002016
0.0002002
0.000199
0.0001978
0.0001968
0.0001958
0.0001948
0.0001939
0.000193
0.0001922
0.0001913
0.0001905
0.0001897
0.0001889
0.0001881
0.0001872
0.0001864
0.0001855
0.0001846
0.0001837
0.0001828
0.0001818
0.0001807
0.0001796
0.0001784
0.0001771
0.0001758
0.0001743
0.0001727
0.000171
0.0001692
0.0001672
0.0001651
0.0001627
0.0001602
0.0001574
0.0001544
0.0001512
0.0001478
0.0001441
0.0001401
0.000136
0.0001316
0.000127
0.0001222
0.0001173
0.0001123
0.0001072
0.000102
9.694e-05
9.189e-05
8.694e-05
8.212e-05
7.745e-05
7.295e-05
6.865e-05
6.455e-05
6.066e-05
5.699e-05
5.354e-05
5.031e-05
4.73e-05
4.449e-05
4.188e-05
3.947e-05
3.723e-05
3.517e-05
3.326e-05
3.15e-05
2.987e-05
2.836e-05
2.696e-05
2.566e-05
2.445e-05
2.332e-05
2.226e-05
2.126e-05
2.032e-05
1.944e-05
1.859e-05
1.779e-05
1.702e-05
1.628e-05
1.557e-05
1.488e-05
1.422e-05
1.358e-05
1.295e-05
1.234e-05
1.174e-05
1.115e-05
1.057e-05
1.001e-05
9.447e-06
8.895e-06
8.35e-06
7.81e-06
7.276e-06
6.745e-06
6.219e-06
5.695e-06
5.175e-06
4.656e-06
4.14e-06
3.625e-06
3.111e-06
2.598e-06
2.087e-06
1.576e-06
1.065e-06
5.548e-07
1.132e-07
0.0002482
0.0002498
0.0002464
0.0002407
0.000235
0.00023
0.0002256
0.0002219
0.0002186
0.0002157
0.0002131
0.0002107
0.0002086
0.0002066
0.0002049
0.0002033
0.0002018
0.0002005
0.0001992
0.000198
0.0001969
0.0001959
0.0001949
0.0001939
0.000193
0.0001921
0.0001912
0.0001904
0.0001895
0.0001886
0.0001878
0.0001869
0.000186
0.0001851
0.0001841
0.0001831
0.0001821
0.0001811
0.00018
0.0001788
0.0001775
0.0001762
0.0001748
0.0001733
0.0001717
0.00017
0.0001681
0.0001661
0.000164
0.0001616
0.0001591
0.0001563
0.0001534
0.0001502
0.0001468
0.0001432
0.0001393
0.0001353
0.0001309
0.0001264
0.0001217
0.0001169
0.000112
0.000107
0.000102
9.697e-05
9.203e-05
8.719e-05
8.247e-05
7.791e-05
7.351e-05
6.931e-05
6.529e-05
6.148e-05
5.788e-05
5.449e-05
5.131e-05
4.833e-05
4.555e-05
4.296e-05
4.055e-05
3.832e-05
3.625e-05
3.433e-05
3.254e-05
3.089e-05
2.935e-05
2.791e-05
2.658e-05
2.532e-05
2.415e-05
2.305e-05
2.201e-05
2.102e-05
2.009e-05
1.92e-05
1.835e-05
1.754e-05
1.676e-05
1.602e-05
1.529e-05
1.46e-05
1.392e-05
1.326e-05
1.262e-05
1.2e-05
1.139e-05
1.079e-05
1.02e-05
9.621e-06
9.052e-06
8.491e-06
7.938e-06
7.39e-06
6.848e-06
6.311e-06
5.778e-06
5.249e-06
4.723e-06
4.199e-06
3.677e-06
3.157e-06
2.638e-06
2.119e-06
1.601e-06
1.082e-06
5.607e-07
1.109e-07
0.0002363
0.0002388
0.0002375
0.0002339
0.0002297
0.0002257
0.0002222
0.0002191
0.0002164
0.000214
0.0002118
0.0002098
0.0002079
0.0002062
0.0002046
0.0002031
0.0002017
0.0002004
0.0001992
0.000198
0.000197
0.0001959
0.0001949
0.0001939
0.000193
0.0001921
0.0001911
0.0001902
0.0001893
0.0001884
0.0001875
0.0001866
0.0001857
0.0001847
0.0001837
0.0001827
0.0001816
0.0001805
0.0001794
0.0001781
0.0001769
0.0001755
0.0001741
0.0001725
0.0001709
0.0001692
0.0001673
0.0001653
0.0001631
0.0001608
0.0001583
0.0001556
0.0001527
0.0001495
0.0001462
0.0001426
0.0001388
0.0001348
0.0001305
0.000126
0.0001214
0.0001167
0.0001118
0.0001068
0.0001019
9.695e-05
9.208e-05
8.732e-05
8.268e-05
7.82e-05
7.388e-05
6.974e-05
6.58e-05
6.205e-05
5.851e-05
5.516e-05
5.202e-05
4.908e-05
4.633e-05
4.376e-05
4.137e-05
3.914e-05
3.707e-05
3.515e-05
3.335e-05
3.168e-05
3.012e-05
2.867e-05
2.73e-05
2.602e-05
2.482e-05
2.368e-05
2.261e-05
2.159e-05
2.062e-05
1.97e-05
1.882e-05
1.797e-05
1.716e-05
1.638e-05
1.563e-05
1.491e-05
1.42e-05
1.352e-05
1.286e-05
1.221e-05
1.158e-05
1.096e-05
1.036e-05
9.765e-06
9.182e-06
8.609e-06
8.043e-06
7.485e-06
6.933e-06
6.388e-06
5.847e-06
5.311e-06
4.778e-06
4.248e-06
3.721e-06
3.195e-06
2.67e-06
2.146e-06
1.622e-06
1.096e-06
5.664e-07
1.099e-07
0.0002277
0.0002305
0.0002303
0.0002281
0.0002251
0.0002219
0.0002191
0.0002165
0.0002142
0.0002122
0.0002103
0.0002086
0.0002069
0.0002054
0.000204
0.0002027
0.0002014
0.0002002
0.000199
0.0001979
0.0001968
0.0001958
0.0001948
0.0001938
0.0001929
0.000192
0.000191
0.0001901
0.0001892
0.0001883
0.0001873
0.0001864
0.0001854
0.0001844
0.0001834
0.0001823
0.0001812
0.0001801
0.0001789
0.0001777
0.0001764
0.000175
0.0001735
0.000172
0.0001703
0.0001686
0.0001667
0.0001647
0.0001625
0.0001602
0.0001577
0.000155
0.0001522
0.0001491
0.0001458
0.0001422
0.0001384
0.0001344
0.0001302
0.0001258
0.0001212
0.0001165
0.0001116
0.0001067
0.0001018
9.688e-05
9.205e-05
8.734e-05
8.275e-05
7.832e-05
7.406e-05
6.998e-05
6.609e-05
6.239e-05
5.889e-05
5.559e-05
5.249e-05
4.957e-05
4.685e-05
4.43e-05
4.193e-05
3.972e-05
3.766e-05
3.573e-05
3.394e-05
3.227e-05
3.07e-05
2.923e-05
2.785e-05
2.655e-05
2.532e-05
2.416e-05
2.307e-05
2.202e-05
2.103e-05
2.008e-05
1.917e-05
1.831e-05
1.747e-05
1.667e-05
1.59e-05
1.515e-05
1.443e-05
1.372e-05
1.304e-05
1.238e-05
1.173e-05
1.11e-05
1.048e-05
9.877e-06
9.283e-06
8.699e-06
8.125e-06
7.558e-06
6.999e-06
6.447e-06
5.9e-06
5.358e-06
4.82e-06
4.286e-06
3.754e-06
3.225e-06
2.696e-06
2.168e-06
1.639e-06
1.108e-06
5.724e-07
1.105e-07
0.0002213
0.0002239
0.0002245
0.0002232
0.0002211
0.0002186
0.0002163
0.0002141
0.0002122
0.0002104
0.0002088
0.0002073
0.0002059
0.0002045
0.0002033
0.0002021
0.0002009
0.0001998
0.0001987
0.0001976
0.0001966
0.0001956
0.0001947
0.0001937
0.0001928
0.0001918
0.0001909
0.00019
0.000189
0.0001881
0.0001871
0.0001862
0.0001852
0.0001842
0.0001831
0.0001821
0.000181
0.0001798
0.0001786
0.0001773
0.000176
0.0001746
0.0001732
0.0001716
0.00017
0.0001682
0.0001663
0.0001643
0.0001622
0.0001599
0.0001574
0.0001548
0.0001519
0.0001488
0.0001456
0.000142
0.0001383
0.0001343
0.0001301
0.0001257
0.0001211
0.0001164
0.0001115
0.0001066
0.0001016
9.675e-05
9.194e-05
8.725e-05
8.27e-05
7.83e-05
7.408e-05
7.004e-05
6.618e-05
6.252e-05
5.905e-05
5.578e-05
5.27e-05
4.982e-05
4.712e-05
4.46e-05
4.225e-05
4.005e-05
3.801e-05
3.61e-05
3.431e-05
3.264e-05
3.107e-05
2.96e-05
2.821e-05
2.691e-05
2.567e-05
2.45e-05
2.338e-05
2.232e-05
2.131e-05
2.035e-05
1.943e-05
1.854e-05
1.769e-05
1.687e-05
1.608e-05
1.532e-05
1.458e-05
1.387e-05
1.317e-05
1.25e-05
1.184e-05
1.12e-05
1.057e-05
9.955e-06
9.353e-06
8.762e-06
8.181e-06
7.608e-06
7.044e-06
6.487e-06
5.936e-06
5.391e-06
4.85e-06
4.313e-06
3.778e-06
3.246e-06
2.715e-06
2.184e-06
1.652e-06
1.118e-06
5.791e-07
1.127e-07
0.0002162
0.0002187
0.0002197
0.0002191
0.0002176
0.0002157
0.0002138
0.000212
0.0002103
0.0002087
0.0002073
0.000206
0.0002048
0.0002036
0.0002025
0.0002014
0.0002003
0.0001993
0.0001983
0.0001973
0.0001963
0.0001954
0.0001944
0.0001935
0.0001926
0.0001917
0.0001908
0.0001898
0.0001889
0.000188
0.000187
0.000186
0.0001851
0.000184
0.000183
0.0001819
0.0001808
0.0001796
0.0001784
0.0001772
0.0001758
0.0001744
0.000173
0.0001714
0.0001698
0.000168
0.0001662
0.0001642
0.0001621
0.0001598
0.0001573
0.0001547
0.0001519
0.0001488
0.0001456
0.0001421
0.0001383
0.0001344
0.0001302
0.0001257
0.0001211
0.0001163
0.0001114
0.0001065
0.0001015
9.658e-05
9.176e-05
8.706e-05
8.252e-05
7.814e-05
7.393e-05
6.991e-05
6.608e-05
6.244e-05
5.899e-05
5.574e-05
5.269e-05
4.983e-05
4.715e-05
4.465e-05
4.233e-05
4.016e-05
3.813e-05
3.624e-05
3.447e-05
3.281e-05
3.125e-05
2.979e-05
2.84e-05
2.71e-05
2.586e-05
2.468e-05
2.356e-05
2.25e-05
2.148e-05
2.05e-05
1.957e-05
1.868e-05
1.782e-05
1.699e-05
1.619e-05
1.542e-05
1.467e-05
1.395e-05
1.324e-05
1.256e-05
1.19e-05
1.125e-05
1.061e-05
9.995e-06
9.389e-06
8.794e-06
8.209e-06
7.634e-06
7.067e-06
6.508e-06
5.955e-06
5.408e-06
4.865e-06
4.327e-06
3.792e-06
3.259e-06
2.727e-06
2.195e-06
1.663e-06
1.127e-06
5.866e-07
1.168e-07
0.0002121
0.0002145
0.0002156
0.0002155
0.0002146
0.0002132
0.0002116
0.0002101
0.0002086
0.0002072
0.000206
0.0002048
0.0002037
0.0002026
0.0002016
0.0002006
0.0001997
0.0001987
0.0001978
0.0001969
0.000196
0.0001951
0.0001942
0.0001933
0.0001924
0.0001915
0.0001906
0.0001897
0.0001888
0.0001879
0.0001869
0.000186
0.000185
0.000184
0.0001829
0.0001819
0.0001807
0.0001796
0.0001784
0.0001771
0.0001758
0.0001744
0.000173
0.0001714
0.0001698
0.0001681
0.0001662
0.0001643
0.0001622
0.0001599
0.0001575
0.0001549
0.0001521
0.0001491
0.0001458
0.0001423
0.0001386
0.0001346
0.0001304
0.0001259
0.0001212
0.0001164
0.0001114
0.0001063
0.0001013
9.635e-05
9.149e-05
8.677e-05
8.222e-05
7.784e-05
7.363e-05
6.961e-05
6.578e-05
6.215e-05
5.871e-05
5.547e-05
5.243e-05
4.959e-05
4.694e-05
4.447e-05
4.217e-05
4.003e-05
3.803e-05
3.616e-05
3.442e-05
3.278e-05
3.124e-05
2.979e-05
2.842e-05
2.712e-05
2.589e-05
2.472e-05
2.36e-05
2.254e-05
2.152e-05
2.055e-05
1.961e-05
1.871e-05
1.785e-05
1.702e-05
1.621e-05
1.544e-05
1.469e-05
1.396e-05
1.326e-05
1.257e-05
1.191e-05
1.126e-05
1.062e-05
9.999e-06
9.392e-06
8.796e-06
8.21e-06
7.634e-06
7.067e-06
6.508e-06
5.955e-06
5.408e-06
4.867e-06
4.329e-06
3.795e-06
3.263e-06
2.732e-06
2.202e-06
1.67e-06
1.135e-06
5.952e-07
1.227e-07
0.0002088
0.000211
0.0002122
0.0002124
0.0002119
0.0002109
0.0002096
0.0002083
0.0002071
0.0002059
0.0002047
0.0002037
0.0002027
0.0002017
0.0002008
0.0001999
0.0001991
0.0001982
0.0001973
0.0001965
0.0001956
0.0001948
0.000194
0.0001931
0.0001923
0.0001914
0.0001905
0.0001896
0.0001888
0.0001878
0.0001869
0.000186
0.000185
0.000184
0.000183
0.0001819
0.0001808
0.0001797
0.0001785
0.0001772
0.0001759
0.0001746
0.0001731
0.0001716
0.00017
0.0001683
0.0001665
0.0001646
0.0001625
0.0001603
0.0001579
0.0001553
0.0001525
0.0001495
0.0001463
0.0001428
0.000139
0.000135
0.0001307
0.0001262
0.0001214
0.0001165
0.0001114
0.0001062
0.0001011
9.606e-05
9.114e-05
8.638e-05
8.179e-05
7.739e-05
7.316e-05
6.912e-05
6.528e-05
6.164e-05
5.819e-05
5.496e-05
5.193e-05
4.911e-05
4.648e-05
4.404e-05
4.178e-05
3.967e-05
3.771e-05
3.588e-05
3.416e-05
3.256e-05
3.104e-05
2.962e-05
2.827e-05
2.699e-05
2.577e-05
2.461e-05
2.351e-05
2.245e-05
2.144e-05
2.047e-05
1.954e-05
1.865e-05
1.779e-05
1.696e-05
1.616e-05
1.539e-05
1.464e-05
1.392e-05
1.322e-05
1.253e-05
1.187e-05
1.122e-05
1.059e-05
9.966e-06
9.361e-06
8.767e-06
8.183e-06
7.61e-06
7.045e-06
6.488e-06
5.937e-06
5.393e-06
4.854e-06
4.319e-06
3.787e-06
3.258e-06
2.73e-06
2.203e-06
1.674e-06
1.142e-06
6.048e-07
1.306e-07
0.000206
0.000208
0.0002093
0.0002097
0.0002095
0.0002088
0.0002078
0.0002068
0.0002057
0.0002046
0.0002036
0.0002027
0.0002018
0.0002009
0.0002001
0.0001993
0.0001985
0.0001977
0.0001969
0.0001961
0.0001953
0.0001945
0.0001937
0.0001929
0.0001921
0.0001913
0.0001904
0.0001896
0.0001887
0.0001879
0.000187
0.000186
0.0001851
0.0001841
0.0001831
0.0001821
0.000181
0.0001799
0.0001787
0.0001775
0.0001762
0.0001749
0.0001735
0.000172
0.0001705
0.0001688
0.000167
0.0001651
0.0001631
0.0001609
0.0001586
0.000156
0.0001533
0.0001503
0.000147
0.0001435
0.0001397
0.0001356
0.0001313
0.0001266
0.0001218
0.0001167
0.0001114
0.0001061
0.0001009
9.571e-05
9.07e-05
8.587e-05
8.123e-05
7.678e-05
7.251e-05
6.844e-05
6.456e-05
6.089e-05
5.743e-05
5.419e-05
5.117e-05
4.837e-05
4.577e-05
4.336e-05
4.114e-05
3.907e-05
3.716e-05
3.537e-05
3.37e-05
3.214e-05
3.066e-05
2.927e-05
2.795e-05
2.67e-05
2.551e-05
2.437e-05
2.328e-05
2.224e-05
2.125e-05
2.029e-05
1.938e-05
1.849e-05
1.765e-05
1.683e-05
1.604e-05
1.527e-05
1.453e-05
1.381e-05
1.312e-05
1.244e-05
1.178e-05
1.114e-05
1.051e-05
9.897e-06
9.297e-06
8.708e-06
8.129e-06
7.56e-06
7e-06
6.448e-06
5.902e-06
5.362e-06
4.828e-06
4.297e-06
3.77e-06
3.245e-06
2.722e-06
2.199e-06
1.675e-06
1.148e-06
6.155e-07
1.404e-07
0.0002037
0.0002056
0.0002068
0.0002074
0.0002074
0.000207
0.0002062
0.0002054
0.0002045
0.0002035
0.0002027
0.0002018
0.000201
0.0002002
0.0001994
0.0001987
0.0001979
0.0001972
0.0001965
0.0001957
0.000195
0.0001942
0.0001935
0.0001927
0.000192
0.0001912
0.0001904
0.0001896
0.0001888
0.0001879
0.000187
0.0001862
0.0001852
0.0001843
0.0001833
0.0001823
0.0001813
0.0001802
0.0001791
0.0001779
0.0001767
0.0001754
0.000174
0.0001726
0.0001711
0.0001695
0.0001678
0.0001659
0.000164
0.0001618
0.0001595
0.000157
0.0001543
0.0001513
0.000148
0.0001445
0.0001406
0.0001365
0.000132
0.0001273
0.0001222
0.000117
0.0001115
0.000106
0.0001006
9.528e-05
9.015e-05
8.523e-05
8.051e-05
7.599e-05
7.165e-05
6.752e-05
6.359e-05
5.987e-05
5.639e-05
5.314e-05
5.012e-05
4.734e-05
4.478e-05
4.242e-05
4.024e-05
3.824e-05
3.638e-05
3.465e-05
3.304e-05
3.152e-05
3.01e-05
2.875e-05
2.747e-05
2.625e-05
2.509e-05
2.399e-05
2.293e-05
2.192e-05
2.094e-05
2.001e-05
1.911e-05
1.825e-05
1.741e-05
1.661e-05
1.583e-05
1.508e-05
1.436e-05
1.365e-05
1.296e-05
1.23e-05
1.165e-05
1.102e-05
1.04e-05
9.794e-06
9.201e-06
8.62e-06
8.049e-06
7.488e-06
6.934e-06
6.389e-06
5.85e-06
5.316e-06
4.788e-06
4.264e-06
3.743e-06
3.225e-06
2.707e-06
2.191e-06
1.673e-06
1.152e-06
6.272e-07
1.52e-07
0.0002017
0.0002034
0.0002047
0.0002054
0.0002055
0.0002053
0.0002048
0.0002041
0.0002034
0.0002026
0.0002018
0.000201
0.0002002
0.0001995
0.0001988
0.0001981
0.0001974
0.0001967
0.0001961
0.0001954
0.0001947
0.000194
0.0001933
0.0001926
0.0001919
0.0001911
0.0001904
0.0001896
0.0001888
0.000188
0.0001872
0.0001863
0.0001855
0.0001846
0.0001836
0.0001827
0.0001817
0.0001806
0.0001796
0.0001784
0.0001773
0.000176
0.0001747
0.0001734
0.0001719
0.0001704
0.0001687
0.000167
0.0001651
0.000163
0.0001607
0.0001583
0.0001556
0.0001526
0.0001494
0.0001458
0.0001419
0.0001376
0.0001331
0.0001281
0.0001229
0.0001174
0.0001117
0.000106
0.0001003
9.476e-05
8.949e-05
8.444e-05
7.961e-05
7.498e-05
7.054e-05
6.632e-05
6.232e-05
5.855e-05
5.503e-05
5.177e-05
4.876e-05
4.601e-05
4.349e-05
4.119e-05
3.909e-05
3.715e-05
3.537e-05
3.371e-05
3.217e-05
3.072e-05
2.935e-05
2.806e-05
2.683e-05
2.566e-05
2.454e-05
2.348e-05
2.245e-05
2.147e-05
2.053e-05
1.962e-05
1.875e-05
1.791e-05
1.71e-05
1.632e-05
1.556e-05
1.483e-05
1.412e-05
1.343e-05
1.276e-05
1.211e-05
1.148e-05
1.086e-05
1.025e-05
9.657e-06
9.076e-06
8.506e-06
7.945e-06
7.393e-06
6.849e-06
6.312e-06
5.781e-06
5.256e-06
4.736e-06
4.22e-06
3.707e-06
3.196e-06
2.687e-06
2.178e-06
1.668e-06
1.156e-06
6.4e-07
1.653e-07
0.0002
0.0002016
0.0002029
0.0002036
0.0002039
0.0002038
0.0002035
0.000203
0.0002024
0.0002017
0.000201
0.0002003
0.0001996
0.0001989
0.0001983
0.0001976
0.000197
0.0001964
0.0001957
0.0001951
0.0001945
0.0001938
0.0001932
0.0001925
0.0001918
0.0001911
0.0001904
0.0001897
0.0001889
0.0001882
0.0001874
0.0001866
0.0001858
0.0001849
0.000184
0.0001831
0.0001822
0.0001812
0.0001802
0.0001791
0.000178
0.0001768
0.0001756
0.0001743
0.0001729
0.0001715
0.0001699
0.0001683
0.0001664
0.0001645
0.0001623
0.0001599
0.0001573
0.0001544
0.0001511
0.0001475
0.0001435
0.0001392
0.0001344
0.0001293
0.0001238
0.000118
0.000112
0.0001059
9.99e-05
9.414e-05
8.866e-05
8.345e-05
7.846e-05
7.369e-05
6.912e-05
6.478e-05
6.068e-05
5.685e-05
5.329e-05
5.003e-05
4.705e-05
4.434e-05
4.189e-05
3.967e-05
3.766e-05
3.582e-05
3.412e-05
3.256e-05
3.11e-05
2.973e-05
2.843e-05
2.721e-05
2.604e-05
2.493e-05
2.386e-05
2.284e-05
2.186e-05
2.092e-05
2.002e-05
1.914e-05
1.831e-05
1.75e-05
1.671e-05
1.596e-05
1.523e-05
1.452e-05
1.383e-05
1.316e-05
1.251e-05
1.188e-05
1.126e-05
1.066e-05
1.007e-05
9.491e-06
8.924e-06
8.366e-06
7.818e-06
7.278e-06
6.745e-06
6.219e-06
5.698e-06
5.183e-06
4.673e-06
4.166e-06
3.662e-06
3.161e-06
2.661e-06
2.161e-06
1.661e-06
1.159e-06
6.536e-07
1.801e-07
0.0001986
0.0002001
0.0002013
0.0002021
0.0002025
0.0002025
0.0002023
0.0002019
0.0002014
0.0002009
0.0002003
0.0001997
0.000199
0.0001984
0.0001978
0.0001972
0.0001966
0.000196
0.0001955
0.0001949
0.0001943
0.0001937
0.0001931
0.0001924
0.0001918
0.0001911
0.0001905
0.0001898
0.0001891
0.0001884
0.0001877
0.0001869
0.0001861
0.0001853
0.0001845
0.0001837
0.0001828
0.0001819
0.0001809
0.0001799
0.0001789
0.0001778
0.0001766
0.0001754
0.0001742
0.0001728
0.0001714
0.0001698
0.0001681
0.0001663
0.0001642
0.000162
0.0001594
0.0001566
0.0001533
0.0001497
0.0001457
0.0001412
0.0001362
0.0001309
0.0001251
0.0001189
0.0001124
0.0001059
9.946e-05
9.336e-05
8.761e-05
8.217e-05
7.698e-05
7.201e-05
6.728e-05
6.28e-05
5.861e-05
5.471e-05
5.113e-05
4.787e-05
4.494e-05
4.23e-05
3.995e-05
3.784e-05
3.595e-05
3.422e-05
3.265e-05
3.119e-05
2.983e-05
2.855e-05
2.735e-05
2.62e-05
2.511e-05
2.406e-05
2.305e-05
2.209e-05
2.116e-05
2.027e-05
1.941e-05
1.858e-05
1.778e-05
1.701e-05
1.626e-05
1.554e-05
1.483e-05
1.415e-05
1.349e-05
1.285e-05
1.222e-05
1.161e-05
1.102e-05
1.043e-05
9.86e-06
9.298e-06
8.747e-06
8.205e-06
7.671e-06
7.145e-06
6.625e-06
6.111e-06
5.603e-06
5.099e-06
4.599e-06
4.103e-06
3.61e-06
3.119e-06
2.63e-06
2.141e-06
1.652e-06
1.162e-06
6.68e-07
1.964e-07
0.0001973
0.0001988
0.0001999
0.0002008
0.0002012
0.0002014
0.0002013
0.000201
0.0002006
0.0002002
0.0001996
0.0001991
0.0001985
0.000198
0.0001974
0.0001969
0.0001963
0.0001958
0.0001952
0.0001947
0.0001941
0.0001936
0.000193
0.0001924
0.0001918
0.0001912
0.0001906
0.00019
0.0001893
0.0001887
0.000188
0.0001873
0.0001866
0.0001858
0.0001851
0.0001843
0.0001835
0.0001826
0.0001817
0.0001808
0.0001799
0.0001789
0.0001778
0.0001767
0.0001756
0.0001743
0.000173
0.0001716
0.0001701
0.0001684
0.0001665
0.0001644
0.000162
0.0001593
0.0001562
0.0001526
0.0001485
0.0001439
0.0001387
0.000133
0.0001268
0.0001202
0.0001131
0.0001059
9.892e-05
9.234e-05
8.623e-05
8.047e-05
7.5e-05
6.98e-05
6.488e-05
6.026e-05
5.597e-05
5.203e-05
4.845e-05
4.524e-05
4.239e-05
3.987e-05
3.766e-05
3.57e-05
3.395e-05
3.238e-05
3.094e-05
2.962e-05
2.838e-05
2.721e-05
2.611e-05
2.505e-05
2.404e-05
2.307e-05
2.213e-05
2.123e-05
2.036e-05
1.953e-05
1.872e-05
1.794e-05
1.718e-05
1.645e-05
1.574e-05
1.506e-05
1.439e-05
1.374e-05
1.311e-05
1.25e-05
1.19e-05
1.131e-05
1.074e-05
1.018e-05
9.625e-06
9.083e-06
8.55e-06
8.025e-06
7.507e-06
6.996e-06
6.491e-06
5.991e-06
5.496e-06
5.005e-06
4.518e-06
4.034e-06
3.552e-06
3.073e-06
2.595e-06
2.118e-06
1.641e-06
1.163e-06
6.83e-07
2.137e-07
0.0001963
0.0001976
0.0001988
0.0001996
0.0002001
0.0002003
0.0002004
0.0002002
0.0001999
0.0001995
0.0001991
0.0001986
0.0001981
0.0001976
0.0001971
0.0001966
0.0001961
0.0001956
0.000195
0.0001945
0.000194
0.0001935
0.000193
0.0001924
0.0001919
0.0001913
0.0001908
0.0001902
0.0001896
0.000189
0.0001884
0.0001877
0.0001871
0.0001864
0.0001857
0.000185
0.0001842
0.0001835
0.0001827
0.0001818
0.000181
0.0001801
0.0001791
0.0001782
0.0001771
0.0001761
0.0001749
0.0001737
0.0001723
0.0001709
0.0001692
0.0001673
0.0001652
0.0001626
0.0001597
0.0001562
0.0001521
0.0001475
0.0001421
0.0001361
0.0001294
0.0001221
0.0001142
0.0001061
9.819e-05
9.09e-05
8.426e-05
7.808e-05
7.227e-05
6.68e-05
6.17e-05
5.698e-05
5.266e-05
4.873e-05
4.52e-05
4.209e-05
3.938e-05
3.703e-05
3.5e-05
3.323e-05
3.167e-05
3.028e-05
2.902e-05
2.785e-05
2.675e-05
2.571e-05
2.472e-05
2.377e-05
2.285e-05
2.197e-05
2.111e-05
2.028e-05
1.948e-05
1.871e-05
1.796e-05
1.723e-05
1.652e-05
1.584e-05
1.518e-05
1.453e-05
1.39e-05
1.329e-05
1.269e-05
1.211e-05
1.154e-05
1.098e-05
1.044e-05
9.898e-06
9.369e-06
8.849e-06
8.336e-06
7.83e-06
7.33e-06
6.835e-06
6.346e-06
5.861e-06
5.38e-06
4.903e-06
4.429e-06
3.958e-06
3.489e-06
3.022e-06
2.557e-06
2.092e-06
1.628e-06
1.164e-06
6.985e-07
2.319e-07
0.0001953
0.0001966
0.0001977
0.0001986
0.0001991
0.0001994
0.0001995
0.0001995
0.0001993
0.000199
0.0001986
0.0001982
0.0001977
0.0001973
0.0001968
0.0001963
0.0001959
0.0001954
0.0001949
0.0001944
0.0001939
0.0001935
0.000193
0.0001925
0.000192
0.0001915
0.0001909
0.0001904
0.0001899
0.0001893
0.0001888
0.0001882
0.0001876
0.000187
0.0001864
0.0001857
0.000185
0.0001844
0.0001837
0.0001829
0.0001822
0.0001814
0.0001806
0.0001797
0.0001789
0.000178
0.000177
0.000176
0.0001749
0.0001736
0.0001723
0.0001707
0.0001688
0.0001666
0.0001639
0.0001607
0.0001569
0.0001523
0.0001469
0.0001406
0.0001334
0.0001253
0.0001162
0.0001065
9.705e-05
8.862e-05
8.12e-05
7.449e-05
6.834e-05
6.269e-05
5.751e-05
5.28e-05
4.853e-05
4.471e-05
4.132e-05
3.839e-05
3.588e-05
3.377e-05
3.198e-05
3.046e-05
2.914e-05
2.797e-05
2.69e-05
2.591e-05
2.497e-05
2.408e-05
2.321e-05
2.238e-05
2.156e-05
2.077e-05
2e-05
1.926e-05
1.853e-05
1.782e-05
1.713e-05
1.647e-05
1.582e-05
1.518e-05
1.457e-05
1.397e-05
1.338e-05
1.281e-05
1.225e-05
1.17e-05
1.116e-05
1.063e-05
1.011e-05
9.603e-06
9.099e-06
8.601e-06
8.11e-06
7.623e-06
7.142e-06
6.666e-06
6.193e-06
5.724e-06
5.258e-06
4.795e-06
4.335e-06
3.878e-06
3.422e-06
2.968e-06
2.516e-06
2.065e-06
1.614e-06
1.164e-06
7.142e-07
2.507e-07
0.0001946
0.0001958
0.0001969
0.0001977
0.0001983
0.0001986
0.0001988
0.0001988
0.0001987
0.0001984
0.0001981
0.0001978
0.0001974
0.000197
0.0001966
0.0001961
0.0001957
0.0001953
0.0001948
0.0001944
0.0001939
0.0001935
0.000193
0.0001926
0.0001921
0.0001916
0.0001912
0.0001907
0.0001902
0.0001897
0.0001892
0.0001887
0.0001882
0.0001876
0.0001871
0.0001865
0.0001859
0.0001853
0.0001847
0.0001841
0.0001834
0.0001828
0.0001821
0.0001814
0.0001807
0.00018
0.0001792
0.0001784
0.0001776
0.0001767
0.0001756
0.0001744
0.000173
0.0001712
0.000169
0.0001663
0.0001628
0.0001586
0.0001536
0.0001474
0.0001399
0.000131
0.0001199
0.0001073
9.488e-05
8.446e-05
7.6e-05
6.88e-05
6.257e-05
5.702e-05
5.203e-05
4.755e-05
4.352e-05
3.993e-05
3.68e-05
3.413e-05
3.192e-05
3.011e-05
2.864e-05
2.742e-05
2.638e-05
2.546e-05
2.462e-05
2.383e-05
2.307e-05
2.233e-05
2.161e-05
2.089e-05
2.019e-05
1.95e-05
1.883e-05
1.817e-05
1.752e-05
1.689e-05
1.627e-05
1.566e-05
1.507e-05
1.45e-05
1.393e-05
1.338e-05
1.284e-05
1.231e-05
1.179e-05
1.127e-05
1.077e-05
1.027e-05
9.781e-06
9.297e-06
8.818e-06
8.344e-06
7.875e-06
7.41e-06
6.948e-06
6.49e-06
6.035e-06
5.582e-06
5.132e-06
4.684e-06
4.238e-06
3.795e-06
3.353e-06
2.912e-06
2.473e-06
2.036e-06
1.6e-06
1.164e-06
7.298e-07
2.697e-07
0.0001939
0.000195
0.0001961
0.0001969
0.0001975
0.0001979
0.0001982
0.0001982
0.0001982
0.000198
0.0001978
0.0001975
0.0001971
0.0001968
0.0001964
0.000196
0.0001956
0.0001952
0.0001948
0.0001943
0.0001939
0.0001935
0.0001931
0.0001927
0.0001923
0.0001918
0.0001914
0.000191
0.0001905
0.0001901
0.0001897
0.0001892
0.0001887
0.0001883
0.0001878
0.0001873
0.0001868
0.0001863
0.0001858
0.0001853
0.0001848
0.0001842
0.0001837
0.0001831
0.0001826
0.0001821
0.0001815
0.000181
0.0001804
0.0001799
0.0001792
0.0001785
0.0001776
0.0001764
0.0001748
0.0001727
0.00017
0.0001667
0.0001626
0.0001575
0.0001511
0.0001423
0.000128
0.0001089
8.958e-05
7.605e-05
6.669e-05
5.968e-05
5.428e-05
4.941e-05
4.507e-05
4.121e-05
3.766e-05
3.446e-05
3.169e-05
2.939e-05
2.755e-05
2.612e-05
2.502e-05
2.416e-05
2.344e-05
2.281e-05
2.222e-05
2.165e-05
2.108e-05
2.05e-05
1.993e-05
1.934e-05
1.876e-05
1.818e-05
1.761e-05
1.704e-05
1.647e-05
1.592e-05
1.537e-05
1.483e-05
1.431e-05
1.379e-05
1.328e-05
1.277e-05
1.228e-05
1.179e-05
1.131e-05
1.084e-05
1.037e-05
9.902e-06
9.442e-06
8.986e-06
8.533e-06
8.084e-06
7.637e-06
7.193e-06
6.752e-06
6.312e-06
5.874e-06
5.438e-06
5.004e-06
4.572e-06
4.14e-06
3.711e-06
3.282e-06
2.856e-06
2.43e-06
2.007e-06
1.584e-06
1.164e-06
7.453e-07
2.886e-07
0.0001933
0.0001944
0.0001954
0.0001963
0.0001969
0.0001973
0.0001976
0.0001977
0.0001977
0.0001976
0.0001974
0.0001972
0.0001969
0.0001966
0.0001962
0.0001959
0.0001955
0.0001951
0.0001947
0.0001943
0.000194
0.0001936
0.0001932
0.0001928
0.0001924
0.000192
0.0001917
0.0001913
0.0001909
0.0001905
0.0001901
0.0001897
0.0001893
0.0001889
0.0001885
0.0001881
0.0001877
0.0001873
0.0001869
0.0001865
0.0001861
0.0001857
0.0001853
0.0001849
0.0001845
0.0001842
0.0001839
0.0001836
0.0001833
0.0001831
0.0001829
0.0001827
0.0001823
0.0001818
0.000181
0.0001797
0.000178
0.0001759
0.0001736
0.000171
0.0001663
0.0001627
0.0001513
0.0001154
7.266e-05
5.772e-05
5.288e-05
4.883e-05
4.423e-05
3.986e-05
3.678e-05
3.392e-05
3.112e-05
2.846e-05
2.613e-05
2.427e-05
2.287e-05
2.189e-05
2.122e-05
2.076e-05
2.039e-05
2.007e-05
1.974e-05
1.94e-05
1.903e-05
1.863e-05
1.82e-05
1.776e-05
1.73e-05
1.683e-05
1.636e-05
1.588e-05
1.541e-05
1.494e-05
1.446e-05
1.4e-05
1.353e-05
1.307e-05
1.262e-05
1.217e-05
1.172e-05
1.128e-05
1.084e-05
1.04e-05
9.966e-06
9.534e-06
9.104e-06
8.676e-06
8.25e-06
7.825e-06
7.401e-06
6.978e-06
6.557e-06
6.136e-06
5.715e-06
5.296e-06
4.878e-06
4.46e-06
4.043e-06
3.627e-06
3.213e-06
2.799e-06
2.387e-06
1.977e-06
1.569e-06
1.163e-06
7.603e-07
3.072e-07
0.0001928
0.0001939
0.0001949
0.0001957
0.0001963
0.0001968
0.0001971
0.0001973
0.0001973
0.0001973
0.0001971
0.0001969
0.0001967
0.0001964
0.0001961
0.0001958
0.0001954
0.0001951