/*--------------------------------*- C++ -*----------------------------------*\
  =========                 |
  \\      /  F ield         | OpenFOAM: The Open Source CFD Toolbox
   \\    /   O peration     | Website:  https://openfoam.org
    \\  /    A nd           | Version:  7
     \\/     M anipulation  |
\*---------------------------------------------------------------------------*/
FoamFile
{
    version     2.0;
    format      ascii;
    class       surfaceScalarField;
    location    "2159.99947343539543";
    object      phi;
}
// * * * * * * * * * * * * * * * * * * * * * * * * * * * * * * * * * * * * * //

dimensions      [0 3 -1 0 0 0 0];

internalField   nonuniform List<scalar> 
8032
(
6.857e-10
2.518e-10
4.804e-10
2.053e-10
3.48e-10
1.324e-10
2.643e-10
8.372e-11
2.101e-10
5.417e-11
1.737e-10
3.638e-11
1.482e-10
2.552e-11
1.296e-10
1.868e-11
1.154e-10
1.417e-11
1.043e-10
1.106e-11
9.548e-11
8.835e-12
8.831e-11
7.178e-12
8.24e-11
5.906e-12
7.75e-11
4.905e-12
7.34e-11
4.101e-12
6.995e-11
3.442e-12
6.706e-11
2.893e-12
6.463e-11
2.429e-12
6.26e-11
2.032e-12
6.091e-11
1.687e-12
5.953e-11
1.384e-12
5.842e-11
1.113e-12
5.755e-11
8.694e-13
5.69e-11
6.462e-13
5.646e-11
4.393e-13
5.622e-11
2.447e-13
5.616e-11
5.917e-14
5.628e-11
-1.201e-13
5.657e-11
-2.957e-13
5.704e-11
-4.697e-13
5.769e-11
-6.441e-13
5.851e-11
-8.205e-13
5.951e-11
-1e-12
6.069e-11
-1.185e-12
6.207e-11
-1.376e-12
6.364e-11
-1.573e-12
6.542e-11
-1.777e-12
6.741e-11
-1.989e-12
6.962e-11
-2.208e-12
7.205e-11
-2.435e-12
7.472e-11
-2.667e-12
7.762e-11
-2.904e-12
8.076e-11
-3.143e-12
8.415e-11
-3.383e-12
8.777e-11
-3.62e-12
9.162e-11
-3.85e-12
9.569e-11
-4.068e-12
9.995e-11
-4.269e-12
1.044e-10
-4.447e-12
1.09e-10
-4.595e-12
1.137e-10
-4.706e-12
1.185e-10
-4.773e-12
1.233e-10
-4.788e-12
1.28e-10
-4.743e-12
1.326e-10
-4.634e-12
1.371e-10
-4.454e-12
1.413e-10
-4.2e-12
1.452e-10
-3.872e-12
1.486e-10
-3.47e-12
1.516e-10
-2.998e-12
1.541e-10
-2.466e-12
1.56e-10
-1.882e-12
1.572e-10
-1.26e-12
1.579e-10
-6.152e-13
1.578e-10
3.72e-14
1.571e-10
6.812e-13
1.558e-10
1.302e-12
1.54e-10
1.887e-12
1.515e-10
2.426e-12
1.486e-10
2.91e-12
1.453e-10
3.334e-12
1.416e-10
3.695e-12
1.376e-10
3.991e-12
1.334e-10
4.224e-12
1.29e-10
4.395e-12
1.245e-10
4.508e-12
1.199e-10
4.565e-12
1.153e-10
4.573e-12
1.108e-10
4.536e-12
1.063e-10
4.46e-12
1.02e-10
4.35e-12
9.777e-11
4.212e-12
9.372e-11
4.052e-12
8.985e-11
3.873e-12
8.616e-11
3.682e-12
8.268e-11
3.483e-12
7.94e-11
3.278e-12
7.633e-11
3.072e-12
7.346e-11
2.868e-12
7.08e-11
2.667e-12
6.832e-11
2.471e-12
6.604e-11
2.283e-12
6.394e-11
2.102e-12
6.201e-11
1.931e-12
6.024e-11
1.768e-12
5.862e-11
1.616e-12
5.715e-11
1.473e-12
5.581e-11
1.34e-12
5.46e-11
1.217e-12
5.349e-11
1.102e-12
5.25e-11
9.97e-13
5.16e-11
9.001e-13
5.078e-11
8.112e-13
5.005e-11
7.299e-13
4.94e-11
6.557e-13
4.881e-11
5.881e-13
4.828e-11
5.267e-13
4.781e-11
4.709e-13
4.739e-11
4.205e-13
4.702e-11
3.749e-13
4.668e-11
3.338e-13
4.639e-11
2.969e-13
4.612e-11
2.638e-13
4.589e-11
2.343e-13
4.568e-11
2.082e-13
4.55e-11
1.853e-13
4.533e-11
1.654e-13
4.518e-11
1.485e-13
4.505e-11
1.346e-13
4.492e-11
1.239e-13
4.481e-11
1.166e-13
4.469e-11
1.133e-13
4.458e-11
1.149e-13
4.446e-11
1.234e-13
4.431e-11
1.423e-13
4.414e-11
1.777e-13
4.39e-11
2.36e-13
3.067e-13
9.523e-10
2.37e-10
8.501e-10
3.075e-10
7.275e-10
2.55e-10
6.183e-10
1.929e-10
5.293e-10
1.431e-10
4.592e-10
1.066e-10
4.041e-10
8.063e-11
3.605e-10
6.225e-11
3.256e-10
4.904e-11
2.974e-10
3.932e-11
2.742e-10
3.199e-11
2.55e-10
2.635e-11
2.39e-10
2.191e-11
2.256e-10
1.834e-11
2.143e-10
1.543e-11
2.047e-10
1.302e-11
1.966e-10
1.099e-11
1.898e-10
9.259e-12
1.84e-10
7.768e-12
1.792e-10
6.467e-12
1.753e-10
5.318e-12
1.721e-10
4.29e-12
1.696e-10
3.359e-12
1.678e-10
2.505e-12
1.665e-10
1.712e-12
1.658e-10
9.655e-13
1.656e-10
2.533e-13
1.659e-10
-4.351e-13
1.667e-10
-1.109e-12
1.68e-10
-1.775e-12
1.698e-10
-2.442e-12
1.721e-10
-3.116e-12
1.749e-10
-3.801e-12
1.782e-10
-4.503e-12
1.821e-10
-5.225e-12
1.865e-10
-5.97e-12
1.915e-10
-6.739e-12
1.97e-10
-7.534e-12
2.031e-10
-8.355e-12
2.099e-10
-9.198e-12
2.173e-10
-1.006e-11
2.253e-10
-1.094e-11
2.34e-10
-1.182e-11
2.433e-10
-1.27e-11
2.533e-10
-1.357e-11
2.638e-10
-1.44e-11
2.75e-10
-1.519e-11
2.866e-10
-1.591e-11
2.987e-10
-1.655e-11
3.112e-10
-1.707e-11
3.239e-10
-1.745e-11
3.368e-10
-1.766e-11
3.497e-10
-1.769e-11
3.625e-10
-1.75e-11
3.749e-10
-1.707e-11
3.868e-10
-1.638e-11
3.981e-10
-1.543e-11
4.084e-10
-1.421e-11
4.176e-10
-1.272e-11
4.256e-10
-1.099e-11
4.322e-10
-9.044e-12
4.372e-10
-6.912e-12
4.406e-10
-4.644e-12
4.423e-10
-2.293e-12
4.423e-10
8.54e-14
4.405e-10
2.437e-12
4.371e-10
4.708e-12
4.321e-10
6.854e-12
4.257e-10
8.836e-12
4.18e-10
1.063e-11
4.091e-10
1.22e-11
3.993e-10
1.355e-11
3.886e-10
1.466e-11
3.773e-10
1.555e-11
3.655e-10
1.621e-11
3.533e-10
1.666e-11
3.41e-10
1.69e-11
3.286e-10
1.696e-11
3.163e-10
1.685e-11
3.041e-10
1.66e-11
2.923e-10
1.622e-11
2.807e-10
1.574e-11
2.696e-10
1.517e-11
2.59e-10
1.453e-11
2.488e-10
1.384e-11
2.392e-10
1.311e-11
2.301e-10
1.237e-11
2.216e-10
1.161e-11
2.136e-10
1.086e-11
2.061e-10
1.012e-11
1.992e-10
9.391e-12
1.928e-10
8.691e-12
1.869e-10
8.018e-12
1.814e-10
7.377e-12
1.764e-10
6.77e-12
1.718e-10
6.197e-12
1.677e-10
5.66e-12
1.638e-10
5.158e-12
1.604e-10
4.691e-12
1.572e-10
4.258e-12
1.543e-10
3.859e-12
1.518e-10
3.49e-12
1.494e-10
3.151e-12
1.473e-10
2.841e-12
1.454e-10
2.557e-12
1.437e-10
2.298e-12
1.422e-10
2.062e-12
1.408e-10
1.848e-12
1.395e-10
1.654e-12
1.384e-10
1.478e-12
1.375e-10
1.319e-12
1.366e-10
1.176e-12
1.358e-10
1.048e-12
1.351e-10
9.333e-13
1.345e-10
8.316e-13
1.339e-10
7.422e-13
1.334e-10
6.644e-13
1.33e-10
5.981e-13
1.326e-10
5.431e-13
1.322e-10
4.997e-13
1.318e-10
4.688e-13
1.315e-10
4.515e-13
1.312e-10
4.498e-13
1.308e-10
4.671e-13
1.305e-10
5.078e-13
1.301e-10
5.772e-13
1.296e-10
6.745e-13
7.663e-13
9.779e-10
1.966e-10
9.637e-10
3.217e-10
9.013e-10
3.175e-10
8.211e-10
2.731e-10
7.408e-10
2.234e-10
6.678e-10
1.796e-10
6.043e-10
1.441e-10
5.503e-10
1.163e-10
5.047e-10
9.464e-11
4.663e-10
7.778e-11
4.338e-10
6.448e-11
4.063e-10
5.387e-11
3.829e-10
4.528e-11
3.63e-10
3.825e-11
3.46e-10
3.24e-11
3.315e-10
2.749e-11
3.192e-10
2.331e-11
3.087e-10
1.972e-11
2.999e-10
1.66e-11
2.925e-10
1.386e-11
2.864e-10
1.142e-11
2.815e-10
9.235e-12
2.776e-10
7.244e-12
2.747e-10
5.413e-12
2.727e-10
3.707e-12
2.715e-10
2.097e-12
2.712e-10
5.597e-13
2.717e-10
-9.273e-13
2.73e-10
-2.383e-12
2.75e-10
-3.823e-12
2.779e-10
-5.264e-12
2.815e-10
-6.717e-12
2.859e-10
-8.193e-12
2.911e-10
-9.703e-12
2.971e-10
-1.125e-11
3.04e-10
-1.285e-11
3.117e-10
-1.45e-11
3.204e-10
-1.62e-11
3.3e-10
-1.795e-11
3.405e-10
-1.974e-11
3.52e-10
-2.157e-11
3.645e-10
-2.343e-11
3.78e-10
-2.53e-11
3.925e-10
-2.715e-11
4.079e-10
-2.897e-11
4.242e-10
-3.073e-11
4.414e-10
-3.237e-11
4.593e-10
-3.388e-11
4.78e-10
-3.519e-11
4.972e-10
-3.626e-11
5.167e-10
-3.703e-11
5.365e-10
-3.745e-11
5.563e-10
-3.747e-11
5.758e-10
-3.703e-11
5.949e-10
-3.61e-11
6.131e-10
-3.462e-11
6.303e-10
-3.259e-11
6.461e-10
-3e-11
6.602e-10
-2.686e-11
6.724e-10
-2.321e-11
6.825e-10
-1.91e-11
6.902e-10
-1.461e-11
6.954e-10
-9.842e-12
6.98e-10
-4.896e-12
6.98e-10
1.093e-13
6.953e-10
5.06e-12
6.902e-10
9.847e-12
6.827e-10
1.438e-11
6.73e-10
1.857e-11
6.612e-10
2.236e-11
6.477e-10
2.57e-11
6.327e-10
2.858e-11
6.164e-10
3.096e-11
5.991e-10
3.287e-11
5.81e-10
3.43e-11
5.624e-10
3.528e-11
5.434e-10
3.584e-11
5.244e-10
3.601e-11
5.054e-10
3.582e-11
4.867e-10
3.533e-11
4.683e-10
3.456e-11
4.505e-10
3.357e-11
4.333e-10
3.239e-11
4.168e-10
3.106e-11
4.01e-10
2.962e-11
3.86e-10
2.81e-11
3.718e-10
2.653e-11
3.585e-10
2.494e-11
3.46e-10
2.335e-11
3.343e-10
2.178e-11
3.235e-10
2.025e-11
3.134e-10
1.876e-11
3.041e-10
1.733e-11
2.955e-10
1.596e-11
2.876e-10
1.467e-11
2.804e-10
1.344e-11
2.738e-10
1.229e-11
2.677e-10
1.122e-11
2.622e-10
1.021e-11
2.571e-10
9.283e-12
2.526e-10
8.422e-12
2.484e-10
7.628e-12
2.447e-10
6.897e-12
2.413e-10
6.226e-12
2.383e-10
5.611e-12
2.355e-10
5.05e-12
2.33e-10
4.538e-12
2.308e-10
4.073e-12
2.288e-10
3.65e-12
2.27e-10
3.267e-12
2.254e-10
2.921e-12
2.24e-10
2.608e-12
2.227e-10
2.328e-12
2.216e-10
2.077e-12
2.205e-10
1.854e-12
2.196e-10
1.658e-12
2.188e-10
1.486e-12
2.181e-10
1.339e-12
2.174e-10
1.215e-12
2.168e-10
1.117e-12
2.162e-10
1.043e-12
2.157e-10
9.955e-13
2.151e-10
9.771e-13
2.146e-10
9.902e-13
2.141e-10
1.038e-12
2.135e-10
1.119e-12
2.13e-10
1.224e-12
1.309e-12
9.752e-10
1.589e-10
9.93e-10
3.039e-10
9.727e-10
3.377e-10
9.267e-10
3.191e-10
8.688e-10
2.813e-10
8.081e-10
2.403e-10
7.499e-10
2.023e-10
6.966e-10
1.696e-10
6.489e-10
1.423e-10
6.07e-10
1.197e-10
5.703e-10
1.011e-10
5.385e-10
8.574e-11
5.108e-10
7.293e-11
4.869e-10
6.219e-11
4.662e-10
5.31e-11
4.483e-10
4.534e-11
4.33e-10
3.866e-11
4.198e-10
3.285e-11
4.087e-10
2.776e-11
3.993e-10
2.324e-11
3.915e-10
1.92e-11
3.852e-10
1.555e-11
3.803e-10
1.221e-11
3.765e-10
9.131e-12
3.74e-10
6.249e-12
3.726e-10
3.523e-12
3.722e-10
9.13e-13
3.729e-10
-1.616e-12
3.746e-10
-4.093e-12
3.773e-10
-6.547e-12
3.811e-10
-9e-12
3.858e-10
-1.147e-11
3.916e-10
-1.399e-11
3.985e-10
-1.655e-11
4.064e-10
-1.919e-11
4.154e-10
-2.189e-11
4.256e-10
-2.468e-11
4.37e-10
-2.755e-11
4.495e-10
-3.051e-11
4.633e-10
-3.353e-11
4.784e-10
-3.661e-11
4.947e-10
-3.973e-11
5.122e-10
-4.286e-11
5.31e-10
-4.597e-11
5.511e-10
-4.901e-11
5.723e-10
-5.193e-11
5.946e-10
-5.467e-11
6.179e-10
-5.716e-11
6.42e-10
-5.932e-11
6.668e-10
-6.108e-11
6.921e-10
-6.234e-11
7.177e-10
-6.301e-11
7.432e-10
-6.3e-11
7.684e-10
-6.223e-11
7.929e-10
-6.063e-11
8.164e-10
-5.813e-11
8.386e-10
-5.471e-11
8.589e-10
-5.035e-11
8.771e-10
-4.508e-11
8.929e-10
-3.896e-11
9.058e-10
-3.207e-11
9.158e-10
-2.456e-11
9.225e-10
-1.657e-11
9.259e-10
-8.29e-12
9.259e-10
9.017e-14
9.226e-10
8.381e-12
9.161e-10
1.64e-11
9.064e-10
2.4e-11
8.94e-10
3.103e-11
8.789e-10
3.741e-11
8.616e-10
4.304e-11
8.423e-10
4.789e-11
8.213e-10
5.193e-11
7.99e-10
5.517e-11
7.757e-10
5.762e-11
7.516e-10
5.932e-11
7.272e-10
6.031e-11
7.025e-10
6.064e-11
6.78e-10
6.038e-11
6.537e-10
5.96e-11
6.299e-10
5.836e-11
6.068e-10
5.673e-11
5.844e-10
5.479e-11
5.628e-10
5.259e-11
5.423e-10
5.02e-11
5.227e-10
4.767e-11
5.042e-10
4.505e-11
4.867e-10
4.239e-11
4.703e-10
3.973e-11
4.55e-10
3.71e-11
4.407e-10
3.452e-11
4.275e-10
3.202e-11
4.152e-10
2.96e-11
4.039e-10
2.73e-11
3.934e-10
2.511e-11
3.838e-10
2.304e-11
3.75e-10
2.109e-11
3.67e-10
1.926e-11
3.596e-10
1.756e-11
3.529e-10
1.598e-11
3.468e-10
1.451e-11
3.413e-10
1.316e-11
3.363e-10
1.191e-11
3.318e-10
1.076e-11
3.277e-10
9.713e-12
3.24e-10
8.752e-12
3.206e-10
7.875e-12
3.176e-10
7.075e-12
3.149e-10
6.349e-12
3.125e-10
5.69e-12
3.103e-10
5.093e-12
3.084e-10
4.555e-12
3.066e-10
4.071e-12
3.051e-10
3.638e-12
3.037e-10
3.251e-12
3.024e-10
2.909e-12
3.013e-10
2.61e-12
3.003e-10
2.352e-12
2.994e-10
2.133e-12
2.985e-10
1.955e-12
2.978e-10
1.816e-12
2.97e-10
1.719e-12
2.963e-10
1.665e-12
2.957e-10
1.654e-12
2.95e-10
1.687e-12
2.944e-10
1.758e-12
2.938e-10
1.85e-12
1.921e-12
9.668e-10
1.296e-10
9.944e-10
2.762e-10
9.978e-10
3.344e-10
9.779e-10
3.39e-10
9.422e-10
3.17e-10
8.982e-10
2.843e-10
8.513e-10
2.493e-10
8.048e-10
2.16e-10
7.609e-10
1.862e-10
7.204e-10
1.602e-10
6.838e-10
1.377e-10
6.511e-10
1.185e-10
6.22e-10
1.02e-10
5.963e-10
8.787e-11
5.737e-10
7.565e-11
5.54e-10
6.505e-11
5.369e-10
5.578e-11
5.221e-10
4.762e-11
5.095e-10
4.039e-11
4.988e-10
3.393e-11
4.899e-10
2.81e-11
4.827e-10
2.279e-11
4.77e-10
1.792e-11
4.727e-10
1.339e-11
4.698e-10
9.142e-12
4.682e-10
5.107e-12
4.679e-10
1.232e-12
4.688e-10
-2.529e-12
4.71e-10
-6.22e-12
4.743e-10
-9.879e-12
4.788e-10
-1.354e-11
4.846e-10
-1.723e-11
4.916e-10
-2.098e-11
4.998e-10
-2.481e-11
5.094e-10
-2.873e-11
5.202e-10
-3.276e-11
5.325e-10
-3.691e-11
5.461e-10
-4.118e-11
5.611e-10
-4.556e-11
5.777e-10
-5.004e-11
5.956e-10
-5.46e-11
6.151e-10
-5.921e-11
6.361e-10
-6.383e-11
6.585e-10
-6.841e-11
6.824e-10
-7.288e-11
7.076e-10
-7.717e-11
7.342e-10
-8.119e-11
7.619e-10
-8.485e-11
7.905e-10
-8.801e-11
8.2e-10
-9.057e-11
8.501e-10
-9.239e-11
8.804e-10
-9.335e-11
9.107e-10
-9.33e-11
9.406e-10
-9.214e-11
9.697e-10
-8.974e-11
9.976e-10
-8.604e-11
1.024e-09
-8.096e-11
1.048e-09
-7.451e-11
1.07e-09
-6.672e-11
1.088e-09
-5.767e-11
1.104e-09
-4.75e-11
1.116e-09
-3.639e-11
1.124e-09
-2.459e-11
1.128e-09
-1.235e-11
1.128e-09
2.913e-14
1.124e-09
1.228e-11
1.116e-09
2.414e-11
1.105e-09
3.537e-11
1.09e-09
4.578e-11
1.072e-09
5.521e-11
1.052e-09
6.356e-11
1.029e-09
7.076e-11
1.004e-09
7.677e-11
9.776e-10
8.16e-11
9.499e-10
8.527e-11
9.214e-10
8.783e-11
8.924e-10
8.935e-11
8.631e-10
8.99e-11
8.339e-10
8.957e-11
8.051e-10
8.847e-11
7.767e-10
8.669e-11
7.491e-10
8.433e-11
7.224e-10
8.15e-11
6.967e-10
7.829e-11
6.721e-10
7.478e-11
6.487e-10
7.107e-11
6.265e-10
6.723e-11
6.056e-10
6.332e-11
5.86e-10
5.939e-11
5.676e-10
5.55e-11
5.504e-10
5.169e-11
5.344e-10
4.798e-11
5.196e-10
4.441e-11
5.059e-10
4.099e-11
4.933e-10
3.773e-11
4.817e-10
3.465e-11
4.71e-10
3.175e-11
4.613e-10
2.903e-11
4.524e-10
2.649e-11
4.442e-10
2.412e-11
4.368e-10
2.193e-11
4.3e-10
1.99e-11
4.239e-10
1.804e-11
4.184e-10
1.632e-11
4.133e-10
1.474e-11
4.088e-10
1.329e-11
4.047e-10
1.197e-11
4.01e-10
1.077e-11
3.977e-10
9.673e-12
3.947e-10
8.679e-12
3.92e-10
7.778e-12
3.896e-10
6.964e-12
3.875e-10
6.231e-12
3.855e-10
5.573e-12
3.838e-10
4.986e-12
3.822e-10
4.465e-12
3.808e-10
4.007e-12
3.796e-10
3.609e-12
3.784e-10
3.27e-12
3.774e-10
2.988e-12
3.765e-10
2.763e-12
3.756e-10
2.595e-12
3.748e-10
2.484e-12
3.74e-10
2.429e-12
3.732e-10
2.426e-12
3.725e-10
2.469e-12
3.718e-10
2.535e-12
2.588e-12
9.592e-10
1.08e-10
9.875e-10
2.479e-10
1.003e-09
3.192e-10
1e-09
3.416e-10
9.822e-10
3.348e-10
9.54e-10
3.125e-10
9.197e-10
2.835e-10
8.828e-10
2.529e-10
8.457e-10
2.233e-10
8.098e-10
1.96e-10
7.761e-10
1.714e-10
7.45e-10
1.496e-10
7.167e-10
1.303e-10
6.912e-10
1.134e-10
6.684e-10
9.842e-11
6.483e-10
8.521e-11
6.305e-10
7.35e-11
6.151e-10
6.306e-11
6.018e-10
5.37e-11
5.905e-10
4.525e-11
5.81e-10
3.756e-11
5.733e-10
3.052e-11
5.672e-10
2.4e-11
5.627e-10
1.792e-11
5.596e-10
1.218e-11
5.58e-10
6.704e-12
5.578e-10
1.432e-12
5.59e-10
-3.699e-12
5.615e-10
-8.745e-12
5.654e-10
-1.375e-11
5.706e-10
-1.877e-11
5.772e-10
-2.383e-11
5.852e-10
-2.897e-11
5.946e-10
-3.422e-11
6.055e-10
-3.96e-11
6.179e-10
-4.512e-11
6.318e-10
-5.08e-11
6.472e-10
-5.663e-11
6.643e-10
-6.262e-11
6.83e-10
-6.873e-11
7.033e-10
-7.495e-11
7.254e-10
-8.124e-11
7.491e-10
-8.753e-11
7.744e-10
-9.376e-11
8.014e-10
-9.985e-11
8.299e-10
-1.057e-10
8.598e-10
-1.111e-10
8.911e-10
-1.161e-10
9.235e-10
-1.204e-10
9.567e-10
-1.239e-10
9.907e-10
-1.263e-10
1.025e-09
-1.276e-10
1.059e-09
-1.275e-10
1.093e-09
-1.259e-10
1.126e-09
-1.227e-10
1.157e-09
-1.176e-10
1.187e-09
-1.107e-10
1.215e-09
-1.019e-10
1.239e-09
-9.125e-11
1.26e-09
-7.889e-11
1.278e-09
-6.499e-11
1.291e-09
-4.982e-11
1.3e-09
-3.37e-11
1.305e-09
-1.698e-11
1.305e-09
-5.763e-14
1.301e-09
1.668e-11
1.292e-09
3.288e-11
1.279e-09
4.822e-11
1.262e-09
6.243e-11
1.242e-09
7.532e-11
1.219e-09
8.673e-11
1.193e-09
9.657e-11
1.165e-09
1.048e-10
1.135e-09
1.114e-10
1.104e-09
1.165e-10
1.072e-09
1.2e-10
1.039e-09
1.221e-10
1.006e-09
1.229e-10
9.732e-10
1.225e-10
9.406e-10
1.211e-10
9.086e-10
1.187e-10
8.773e-10
1.155e-10
8.471e-10
1.117e-10
8.18e-10
1.074e-10
7.902e-10
1.026e-10
7.637e-10
9.76e-11
7.385e-10
9.238e-11
7.148e-10
8.706e-11
6.924e-10
8.172e-11
6.715e-10
7.642e-11
6.52e-10
7.122e-11
6.338e-10
6.616e-11
6.169e-10
6.128e-11
6.013e-10
5.66e-11
5.869e-10
5.215e-11
5.736e-10
4.793e-11
5.614e-10
4.395e-11
5.503e-10
4.022e-11
5.4e-10
3.673e-11
5.307e-10
3.348e-11
5.221e-10
3.046e-11
5.144e-10
2.767e-11
5.073e-10
2.509e-11
5.009e-10
2.272e-11
4.951e-10
2.054e-11
4.899e-10
1.854e-11
4.851e-10
1.672e-11
4.808e-10
1.505e-11
4.77e-10
1.353e-11
4.735e-10
1.215e-11
4.704e-10
1.09e-11
4.676e-10
9.77e-12
4.651e-10
8.749e-12
4.628e-10
7.832e-12
4.608e-10
7.012e-12
4.589e-10
6.283e-12
4.573e-10
5.639e-12
4.558e-10
5.077e-12
4.545e-10
4.594e-12
4.533e-10
4.187e-12
4.522e-10
3.855e-12
4.512e-10
3.595e-12
4.503e-10
3.408e-12
4.494e-10
3.289e-12
4.486e-10
3.234e-12
4.479e-10
3.232e-12
4.471e-10
3.264e-12
3.297e-12
9.536e-10
9.187e-11
9.794e-10
2.221e-10
9.994e-10
2.992e-10
1.007e-09
3.338e-10
1.002e-09
3.396e-10
9.872e-10
3.277e-10
9.647e-10
3.06e-10
9.377e-10
2.799e-10
9.085e-10
2.525e-10
8.788e-10
2.257e-10
8.498e-10
2.005e-10
8.221e-10
1.773e-10
7.962e-10
1.562e-10
7.723e-10
1.372e-10
7.507e-10
1.201e-10
7.312e-10
1.047e-10
7.139e-10
9.083e-11
6.986e-10
7.83e-11
6.854e-10
6.695e-11
6.74e-10
5.659e-11
6.645e-10
4.709e-11
6.567e-10
3.831e-11
6.506e-10
3.013e-11
6.461e-10
2.244e-11
6.431e-10
1.516e-11
6.416e-10
8.178e-12
6.416e-10
1.433e-12
6.431e-10
-5.154e-12
6.46e-10
-1.165e-11
6.503e-10
-1.81e-11
6.561e-10
-2.458e-11
6.634e-10
-3.111e-11
6.722e-10
-3.776e-11
6.825e-10
-4.454e-11
6.944e-10
-5.149e-11
7.079e-10
-5.862e-11
7.23e-10
-6.596e-11
7.399e-10
-7.349e-11
7.585e-10
-8.121e-11
7.789e-10
-8.91e-11
8.01e-10
-9.712e-11
8.25e-10
-1.052e-10
8.508e-10
-1.133e-10
8.784e-10
-1.214e-10
9.078e-10
-1.292e-10
9.388e-10
-1.367e-10
9.714e-10
-1.437e-10
1.005e-09
-1.501e-10
1.041e-09
-1.557e-10
1.077e-09
-1.601e-10
1.114e-09
-1.633e-10
1.151e-09
-1.65e-10
1.189e-09
-1.649e-10
1.226e-09
-1.629e-10
1.262e-09
-1.587e-10
1.296e-09
-1.522e-10
1.329e-09
-1.433e-10
1.359e-09
-1.319e-10
1.386e-09
-1.182e-10
1.409e-09
-1.022e-10
1.429e-09
-8.426e-11
1.443e-09
-6.461e-11
1.453e-09
-4.372e-11
1.458e-09
-2.206e-11
1.459e-09
-1.42e-13
1.454e-09
2.154e-11
1.444e-09
4.25e-11
1.43e-09
6.234e-11
1.412e-09
8.071e-11
1.39e-09
9.736e-11
1.364e-09
1.121e-10
1.336e-09
1.248e-10
1.305e-09
1.355e-10
1.273e-09
1.44e-10
1.239e-09
1.506e-10
1.204e-09
1.552e-10
1.168e-09
1.579e-10
1.132e-09
1.59e-10
1.096e-09
1.585e-10
1.06e-09
1.567e-10
1.025e-09
1.536e-10
9.912e-10
1.496e-10
9.583e-10
1.447e-10
9.265e-10
1.391e-10
8.961e-10
1.33e-10
8.672e-10
1.266e-10
8.397e-10
1.198e-10
8.138e-10
1.13e-10
7.894e-10
1.061e-10
7.665e-10
9.928e-11
7.452e-10
9.258e-11
7.253e-10
8.605e-11
7.068e-10
7.975e-11
6.897e-10
7.371e-11
6.739e-10
6.795e-11
6.593e-10
6.25e-11
6.459e-10
5.735e-11
6.336e-10
5.252e-11
6.223e-10
4.799e-11
6.12e-10
4.378e-11
6.026e-10
3.986e-11
5.941e-10
3.624e-11
5.863e-10
3.289e-11
5.792e-10
2.98e-11
5.728e-10
2.696e-11
5.669e-10
2.436e-11
5.617e-10
2.198e-11
5.569e-10
1.98e-11
5.526e-10
1.782e-11
5.488e-10
1.602e-11
5.453e-10
1.438e-11
5.422e-10
1.29e-11
5.393e-10
1.156e-11
5.368e-10
1.036e-11
5.346e-10
9.277e-12
5.325e-10
8.315e-12
5.307e-10
7.464e-12
5.291e-10
6.717e-12
5.276e-10
6.07e-12
5.263e-10
5.519e-12
5.251e-10
5.06e-12
5.24e-10
4.692e-12
5.23e-10
4.411e-12
5.22e-10
4.212e-12
5.212e-10
4.09e-12
5.204e-10
4.033e-12
5.196e-10
4.023e-12
4.033e-12
9.498e-10
7.961e-11
9.724e-10
1.995e-10
9.937e-10
2.779e-10
1.007e-09
3.203e-10
1.011e-09
3.357e-10
1.006e-09
3.329e-10
9.934e-10
3.186e-10
9.756e-10
2.977e-10
9.544e-10
2.737e-10
9.314e-10
2.487e-10
9.078e-10
2.241e-10
8.845e-10
2.007e-10
8.62e-10
1.787e-10
8.408e-10
1.584e-10
8.212e-10
1.397e-10
8.033e-10
1.226e-10
7.872e-10
1.07e-10
7.728e-10
9.266e-11
7.603e-10
7.953e-11
7.494e-10
6.743e-11
7.403e-10
5.622e-11
7.328e-10
4.578e-11
7.27e-10
3.599e-11
7.227e-10
2.673e-11
7.199e-10
1.79e-11
7.187e-10
9.408e-12
7.19e-10
1.165e-12
7.207e-10
-6.91e-12
7.24e-10
-1.489e-11
7.287e-10
-2.284e-11
7.35e-10
-3.083e-11
7.427e-10
-3.891e-11
7.521e-10
-4.712e-11
7.631e-10
-5.55e-11
7.757e-10
-6.41e-11
7.9e-10
-7.293e-11
8.06e-10
-8.2e-11
8.239e-10
-9.132e-11
8.435e-10
-1.009e-10
8.651e-10
-1.106e-10
8.885e-10
-1.206e-10
9.139e-10
-1.306e-10
9.411e-10
-1.406e-10
9.703e-10
-1.505e-10
1.001e-09
-1.602e-10
1.034e-09
-1.695e-10
1.069e-09
-1.783e-10
1.105e-09
-1.862e-10
1.142e-09
-1.931e-10
1.181e-09
-1.987e-10
1.22e-09
-2.027e-10
1.26e-09
-2.048e-10
1.3e-09
-2.048e-10
1.339e-09
-2.023e-10
1.378e-09
-1.972e-10
1.415e-09
-1.892e-10
1.45e-09
-1.783e-10
1.482e-09
-1.642e-10
1.511e-09
-1.472e-10
1.536e-09
-1.274e-10
1.557e-09
-1.05e-10
1.573e-09
-8.054e-11
1.584e-09
-5.451e-11
1.589e-09
-2.751e-11
1.589e-09
-1.845e-13
1.584e-09
2.681e-11
1.573e-09
5.29e-11
1.558e-09
7.755e-11
1.539e-09
1.004e-10
1.515e-09
1.21e-10
1.488e-09
1.393e-10
1.458e-09
1.55e-10
1.425e-09
1.682e-10
1.39e-09
1.788e-10
1.354e-09
1.869e-10
1.316e-09
1.926e-10
1.278e-09
1.96e-10
1.24e-09
1.973e-10
1.202e-09
1.967e-10
1.164e-09
1.945e-10
1.127e-09
1.907e-10
1.091e-09
1.857e-10
1.056e-09
1.797e-10
1.022e-09
1.728e-10
9.898e-10
1.652e-10
9.591e-10
1.572e-10
9.299e-10
1.489e-10
9.024e-10
1.405e-10
8.766e-10
1.32e-10
8.523e-10
1.235e-10
8.297e-10
1.152e-10
8.086e-10
1.072e-10
7.889e-10
9.937e-11
7.708e-10
9.189e-11
7.54e-10
8.475e-11
7.385e-10
7.799e-11
7.242e-10
7.161e-11
7.111e-10
6.561e-11
6.991e-10
6e-11
6.881e-10
5.476e-11
6.781e-10
4.99e-11
6.69e-10
4.539e-11
6.606e-10
4.122e-11
6.53e-10
3.738e-11
6.462e-10
3.384e-11
6.399e-10
3.06e-11
6.343e-10
2.763e-11
6.292e-10
2.491e-11
6.246e-10
2.243e-11
6.204e-10
2.018e-11
6.167e-10
1.813e-11
6.133e-10
1.627e-11
6.103e-10
1.459e-11
6.075e-10
1.308e-11
6.051e-10
1.172e-11
6.029e-10
1.051e-11
6.009e-10
9.433e-12
5.992e-10
8.484e-12
5.976e-10
7.657e-12
5.961e-10
6.947e-12
5.949e-10
6.348e-12
5.937e-10
5.857e-12
5.926e-10
5.468e-12
5.917e-10
5.177e-12
5.908e-10
4.977e-12
5.9e-10
4.856e-12
5.892e-10
4.799e-12
4.784e-12
9.471e-10
6.998e-11
9.667e-10
1.799e-10
9.877e-10
2.57e-10
1.004e-09
3.037e-10
1.014e-09
3.262e-10
1.016e-09
3.308e-10
1.011e-09
3.232e-10
1.001e-09
3.077e-10
9.874e-10
2.876e-10
9.709e-10
2.652e-10
9.529e-10
2.421e-10
9.344e-10
2.192e-10
9.159e-10
1.971e-10
8.981e-10
1.762e-10
8.812e-10
1.566e-10
8.655e-10
1.383e-10
8.511e-10
1.213e-10
8.382e-10
1.056e-10
8.267e-10
9.095e-11
8.168e-10
7.733e-11
8.085e-10
6.46e-11
8.016e-10
5.264e-11
7.963e-10
4.133e-11
7.924e-10
3.058e-11
7.901e-10
2.026e-11
7.892e-10
1.029e-11
7.898e-10
5.787e-13
7.918e-10
-8.972e-12
7.954e-10
-1.844e-11
8.004e-10
-2.789e-11
8.07e-10
-3.741e-11
8.151e-10
-4.704e-11
8.249e-10
-5.684e-11
8.362e-10
-6.686e-11
8.493e-10
-7.714e-11
8.64e-10
-8.77e-11
8.806e-10
-9.856e-11
8.99e-10
-1.097e-10
9.192e-10
-1.211e-10
9.414e-10
-1.328e-10
9.656e-10
-1.447e-10
9.917e-10
-1.567e-10
1.02e-09
-1.687e-10
1.05e-09
-1.806e-10
1.082e-09
-1.923e-10
1.116e-09
-2.035e-10
1.152e-09
-2.14e-10
1.189e-09
-2.236e-10
1.228e-09
-2.319e-10
1.268e-09
-2.387e-10
1.309e-09
-2.436e-10
1.35e-09
-2.463e-10
1.392e-09
-2.465e-10
1.433e-09
-2.437e-10
1.474e-09
-2.377e-10
1.513e-09
-2.282e-10
1.55e-09
-2.151e-10
1.584e-09
-1.983e-10
1.615e-09
-1.779e-10
1.641e-09
-1.54e-10
1.663e-09
-1.27e-10
1.68e-09
-9.742e-11
1.692e-09
-6.59e-11
1.697e-09
-3.321e-11
1.697e-09
-1.346e-13
1.692e-09
3.251e-11
1.68e-09
6.401e-11
1.664e-09
9.373e-11
1.643e-09
1.212e-10
1.618e-09
1.46e-10
1.59e-09
1.679e-10
1.558e-09
1.868e-10
1.524e-09
2.025e-10
1.487e-09
2.152e-10
1.449e-09
2.249e-10
1.41e-09
2.316e-10
1.371e-09
2.357e-10
1.331e-09
2.373e-10
1.291e-09
2.365e-10
1.252e-09
2.338e-10
1.213e-09
2.292e-10
1.175e-09
2.232e-10
1.139e-09
2.159e-10
1.104e-09
2.077e-10
1.071e-09
1.986e-10
1.039e-09
1.89e-10
1.009e-09
1.791e-10
9.806e-10
1.689e-10
9.538e-10
1.587e-10
9.287e-10
1.486e-10
9.053e-10
1.387e-10
8.835e-10
1.29e-10
8.632e-10
1.197e-10
8.444e-10
1.107e-10
8.27e-10
1.021e-10
8.11e-10
9.403e-11
7.962e-10
8.637e-11
7.826e-10
7.917e-11
7.702e-10
7.244e-11
7.588e-10
6.615e-11
7.484e-10
6.031e-11
7.389e-10
5.489e-11
7.302e-10
4.988e-11
7.224e-10
4.525e-11
7.152e-10
4.1e-11
7.087e-10
3.709e-11
7.028e-10
3.351e-11
6.975e-10
3.023e-11
6.927e-10
2.725e-11
6.883e-10
2.452e-11
6.844e-10
2.205e-11
6.809e-10
1.98e-11
6.777e-10
1.777e-11
6.749e-10
1.593e-11
6.723e-10
1.429e-11
6.7e-10
1.281e-11
6.679e-10
1.15e-11
6.661e-10
1.033e-11
6.644e-10
9.316e-12
6.63e-10
8.436e-12
6.616e-10
7.685e-12
6.604e-10
7.06e-12
6.593e-10
6.554e-12
6.583e-10
6.162e-12
6.574e-10
5.875e-12
6.566e-10
5.684e-12
6.558e-10
5.576e-12
5.535e-12
9.453e-10
6.216e-11
9.623e-10
1.628e-10
9.822e-10
2.371e-10
1e-09
2.859e-10
1.013e-09
3.131e-10
1.02e-09
3.236e-10
1.022e-09
3.217e-10
1.018e-09
3.112e-10
1.011e-09
2.951e-10
1e-09
2.757e-10
9.877e-10
2.546e-10
9.74e-10
2.329e-10
9.597e-10
2.114e-10
9.454e-10
1.905e-10
9.316e-10
1.704e-10
9.185e-10
1.514e-10
9.063e-10
1.335e-10
8.952e-10
1.167e-10
8.852e-10
1.009e-10
8.766e-10
8.598e-11
8.692e-10
7.193e-11
8.633e-10
5.863e-11
8.586e-10
4.596e-11
8.554e-10
3.383e-11
8.535e-10
2.213e-11
8.53e-10
1.077e-11
8.54e-10
-3.519e-13
8.563e-10
-1.132e-11
8.601e-10
-2.223e-11
8.654e-10
-3.316e-11
8.721e-10
-4.417e-11
8.804e-10
-5.533e-11
8.903e-10
-6.672e-11
9.018e-10
-7.836e-11
9.15e-10
-9.032e-11
9.299e-10
-1.026e-10
9.466e-10
-1.152e-10
9.651e-10
-1.282e-10
9.855e-10
-1.416e-10
1.008e-09
-1.552e-10
1.032e-09
-1.691e-10
1.059e-09
-1.831e-10
1.087e-09
-1.971e-10
1.117e-09
-2.111e-10
1.15e-09
-2.247e-10
1.184e-09
-2.379e-10
1.22e-09
-2.502e-10
1.258e-09
-2.615e-10
1.298e-09
-2.714e-10
1.339e-09
-2.796e-10
1.381e-09
-2.855e-10
1.423e-09
-2.889e-10
1.466e-09
-2.893e-10
1.509e-09
-2.863e-10
1.551e-09
-2.795e-10
1.591e-09
-2.687e-10
1.629e-09
-2.535e-10
1.665e-09
-2.339e-10
1.697e-09
-2.1e-10
1.725e-09
-1.819e-10
1.748e-09
-1.5e-10
1.766e-09
-1.151e-10
1.777e-09
-7.776e-11
1.783e-09
-3.906e-11
1.783e-09
6.99e-14
1.777e-09
3.864e-11
1.765e-09
7.577e-11
1.748e-09
1.107e-10
1.726e-09
1.43e-10
1.7e-09
1.72e-10
1.671e-09
1.976e-10
1.638e-09
2.196e-10
1.602e-09
2.38e-10
1.565e-09
2.527e-10
1.526e-09
2.639e-10
1.486e-09
2.718e-10
1.445e-09
2.764e-10
1.404e-09
2.781e-10
1.363e-09
2.772e-10
1.323e-09
2.739e-10
1.284e-09
2.685e-10
1.246e-09
2.614e-10
1.209e-09
2.528e-10
1.174e-09
2.431e-10
1.14e-09
2.325e-10
1.107e-09
2.213e-10
1.077e-09
2.096e-10
1.048e-09
1.977e-10
1.021e-09
1.858e-10
9.957e-10
1.74e-10
9.72e-10
1.624e-10
9.499e-10
1.511e-10
9.294e-10
1.401e-10
9.105e-10
1.297e-10
8.929e-10
1.197e-10
8.767e-10
1.102e-10
8.618e-10
1.013e-10
8.481e-10
9.288e-11
8.355e-10
8.502e-11
8.24e-10
7.767e-11
8.134e-10
7.084e-11
8.038e-10
6.45e-11
7.951e-10
5.864e-11
7.871e-10
5.323e-11
7.798e-10
4.825e-11
7.732e-10
4.368e-11
7.672e-10
3.948e-11
7.618e-10
3.565e-11
7.569e-10
3.214e-11
7.525e-10
2.894e-11
7.485e-10
2.603e-11
7.449e-10
2.339e-11
7.417e-10
2.1e-11
7.388e-10
1.884e-11
7.362e-10
1.69e-11
7.338e-10
1.516e-11
7.317e-10
1.36e-11
7.298e-10
1.222e-11
7.282e-10
1.1e-11
7.266e-10
9.947e-12
7.253e-10
9.039e-12
7.241e-10
8.274e-12
7.23e-10
7.644e-12
7.22e-10
7.144e-12
7.211e-10
6.765e-12
7.203e-10
6.501e-12
7.195e-10
6.34e-12
6.273e-12
9.44e-10
5.566e-11
9.589e-10
1.479e-10
9.774e-10
2.186e-10
9.955e-10
2.678e-10
1.011e-09
2.98e-10
1.021e-09
3.128e-10
1.028e-09
3.156e-10
1.029e-09
3.095e-10
1.027e-09
2.973e-10
1.022e-09
2.81e-10
1.014e-09
2.622e-10
1.005e-09
2.421e-10
9.949e-10
2.215e-10
9.843e-10
2.011e-10
9.737e-10
1.811e-10
9.633e-10
1.618e-10
9.535e-10
1.433e-10
9.444e-10
1.258e-10
9.362e-10
1.091e-10
9.291e-10
9.316e-11
9.23e-10
7.803e-11
9.18e-10
6.359e-11
9.142e-10
4.974e-11
9.117e-10
3.638e-11
9.104e-10
2.344e-11
9.103e-10
1.08e-11
9.116e-10
-1.629e-12
9.142e-10
-1.393e-11
9.182e-10
-2.62e-11
9.236e-10
-3.852e-11
9.304e-10
-5.097e-11
9.386e-10
-6.361e-11
9.484e-10
-7.652e-11
9.598e-10
-8.974e-11
9.728e-10
-1.033e-10
9.875e-10
-1.173e-10
1.004e-09
-1.317e-10
1.022e-09
-1.465e-10
1.042e-09
-1.617e-10
1.064e-09
-1.772e-10
1.088e-09
-1.931e-10
1.114e-09
-2.091e-10
1.142e-09
-2.252e-10
1.173e-09
-2.412e-10
1.205e-09
-2.569e-10
1.239e-09
-2.72e-10
1.275e-09
-2.863e-10
1.313e-09
-2.994e-10
1.352e-09
-3.11e-10
1.393e-09
-3.206e-10
1.436e-09
-3.277e-10
1.479e-09
-3.319e-10
1.522e-09
-3.327e-10
1.565e-09
-3.296e-10
1.608e-09
-3.222e-10
1.649e-09
-3.1e-10
1.689e-09
-2.928e-10
1.725e-09
-2.705e-10
1.758e-09
-2.43e-10
1.787e-09
-2.106e-10
1.811e-09
-1.738e-10
1.829e-09
-1.333e-10
1.841e-09
-8.993e-11
1.847e-09
-4.494e-11
1.847e-09
5.038e-13
1.84e-09
4.521e-11
1.828e-09
8.815e-11
1.81e-09
1.285e-10
1.787e-09
1.655e-10
1.761e-09
1.988e-10
1.73e-09
2.281e-10
1.697e-09
2.532e-10
1.661e-09
2.741e-10
1.623e-09
2.908e-10
1.583e-09
3.035e-10
1.542e-09
3.123e-10
1.501e-09
3.175e-10
1.46e-09
3.193e-10
1.419e-09
3.18e-10
1.379e-09
3.141e-10
1.34e-09
3.078e-10
1.302e-09
2.995e-10
1.265e-09
2.896e-10
1.23e-09
2.784e-10
1.196e-09
2.662e-10
1.164e-09
2.533e-10
1.134e-09
2.399e-10
1.105e-09
2.263e-10
1.078e-09
2.126e-10
1.053e-09
1.991e-10
1.03e-09
1.858e-10
1.008e-09
1.729e-10
9.877e-10
1.604e-10
9.69e-10
1.484e-10
9.516e-10
1.37e-10
9.356e-10
1.262e-10
9.209e-10
1.16e-10
9.074e-10
1.064e-10
8.95e-10
9.743e-11
8.836e-10
8.905e-11
8.732e-10
8.124e-11
8.637e-10
7.401e-11
8.55e-10
6.731e-11
8.471e-10
6.113e-11
8.399e-10
5.543e-11
8.334e-10
5.02e-11
8.275e-10
4.54e-11
8.221e-10
4.101e-11
8.173e-10
3.699e-11
8.129e-10
3.333e-11
8.089e-10
3e-11
8.054e-10
2.697e-11
8.022e-10
2.422e-11
7.993e-10
2.174e-11
7.967e-10
1.95e-11
7.943e-10
1.749e-11
7.922e-10
1.569e-11
7.904e-10
1.409e-11
7.887e-10
1.268e-11
7.872e-10
1.144e-11
7.859e-10
1.038e-11
7.847e-10
9.468e-12
7.836e-10
8.712e-12
7.826e-10
8.102e-12
7.818e-10
7.63e-12
7.81e-10
7.29e-12
7.803e-10
7.076e-12
6.982e-12
9.43e-10
5.013e-11
9.562e-10
1.347e-10
9.734e-10
2.014e-10
9.913e-10
2.499e-10
1.008e-09
2.818e-10
1.021e-09
2.997e-10
1.03e-09
3.061e-10
1.036e-09
3.038e-10
1.038e-09
2.951e-10
1.037e-09
2.817e-10
1.034e-09
2.653e-10
1.029e-09
2.471e-10
1.023e-09
2.278e-10
1.016e-09
2.081e-10
1.008e-09
1.885e-10
1.001e-09
1.693e-10
9.936e-10
1.507e-10
9.867e-10
1.327e-10
9.804e-10
1.154e-10
9.748e-10
9.875e-11
9.7e-10
8.278e-11
9.662e-10
6.742e-11
9.634e-10
5.258e-11
9.616e-10
3.818e-11
9.609e-10
2.414e-11
9.613e-10
1.037e-11
9.629e-10
-3.232e-12
9.657e-10
-1.675e-11
9.698e-10
-3.027e-11
9.751e-10
-4.388e-11
9.818e-10
-5.766e-11
9.899e-10
-7.169e-11
9.994e-10
-8.603e-11
1.01e-09
-1.007e-10
1.023e-09
-1.159e-10
1.037e-09
-1.315e-10
1.053e-09
-1.475e-10
1.071e-09
-1.641e-10
1.09e-09
-1.811e-10
1.111e-09
-1.985e-10
1.134e-09
-2.162e-10
1.159e-09
-2.342e-10
1.187e-09
-2.524e-10
1.216e-09
-2.704e-10
1.247e-09
-2.881e-10
1.28e-09
-3.053e-10
1.316e-09
-3.216e-10
1.353e-09
-3.365e-10
1.391e-09
-3.498e-10
1.432e-09
-3.61e-10
1.474e-09
-3.694e-10
1.516e-09
-3.746e-10
1.559e-09
-3.759e-10
1.603e-09
-3.729e-10
1.646e-09
-3.65e-10
1.687e-09
-3.517e-10
1.727e-09
-3.327e-10
1.764e-09
-3.077e-10
1.798e-09