/*--------------------------------*- C++ -*----------------------------------*\
  =========                 |
  \\      /  F ield         | OpenFOAM: The Open Source CFD Toolbox
   \\    /   O peration     | Website:  https://openfoam.org
    \\  /    A nd           | Version:  7
     \\/     M anipulation  |
\*---------------------------------------------------------------------------*/
FoamFile
{
    version     2.0;
    format      ascii;
    class       volVectorField;
    location    "2159.99947343539543";
    object      U;
}
// * * * * * * * * * * * * * * * * * * * * * * * * * * * * * * * * * * * * * //

dimensions      [0 1 -1 0 0 0 0];

internalField   nonuniform List<vector> 
4096
(
(0.001039 0.0001611 0)
(0.0007463 0.0001314 0)
(0.0005302 8.473e-05 0)
(0.0003919 5.358e-05 0)
(0.0003036 3.467e-05 0)
(0.0002457 2.329e-05 0)
(0.0002061 1.634e-05 0)
(0.0001778 1.195e-05 0)
(0.0001568 9.067e-06 0)
(0.0001406 7.081e-06 0)
(0.0001279 5.655e-06 0)
(0.0001176 4.594e-06 0)
(0.0001093 3.78e-06 0)
(0.0001023 3.139e-06 0)
(9.657e-05 2.624e-06 0)
(9.174e-05 2.203e-06 0)
(8.769e-05 1.851e-06 0)
(8.428e-05 1.555e-06 0)
(8.143e-05 1.3e-06 0)
(7.905e-05 1.08e-06 0)
(7.708e-05 8.855e-07 0)
(7.548e-05 7.125e-07 0)
(7.422e-05 5.564e-07 0)
(7.325e-05 4.136e-07 0)
(7.255e-05 2.811e-07 0)
(7.211e-05 1.566e-07 0)
(7.192e-05 3.787e-08 0)
(7.196e-05 -7.689e-08 0)
(7.222e-05 -1.893e-07 0)
(7.271e-05 -3.006e-07 0)
(7.343e-05 -4.122e-07 0)
(7.436e-05 -5.251e-07 0)
(7.553e-05 -6.403e-07 0)
(7.693e-05 -7.585e-07 0)
(7.857e-05 -8.804e-07 0)
(8.045e-05 -1.007e-06 0)
(8.26e-05 -1.137e-06 0)
(8.501e-05 -1.273e-06 0)
(8.769e-05 -1.413e-06 0)
(9.067e-05 -1.558e-06 0)
(9.393e-05 -1.707e-06 0)
(9.75e-05 -1.858e-06 0)
(0.0001014 -2.012e-06 0)
(0.0001055 -2.165e-06 0)
(0.00011 -2.317e-06 0)
(0.0001148 -2.464e-06 0)
(0.0001199 -2.604e-06 0)
(0.0001252 -2.732e-06 0)
(0.0001308 -2.846e-06 0)
(0.0001366 -2.941e-06 0)
(0.0001425 -3.012e-06 0)
(0.0001486 -3.055e-06 0)
(0.0001547 -3.064e-06 0)
(0.0001608 -3.036e-06 0)
(0.0001668 -2.966e-06 0)
(0.0001726 -2.851e-06 0)
(0.0001782 -2.688e-06 0)
(0.0001833 -2.478e-06 0)
(0.000188 -2.221e-06 0)
(0.0001922 -1.919e-06 0)
(0.0001957 -1.578e-06 0)
(0.0001985 -1.204e-06 0)
(0.0002005 -8.065e-07 0)
(0.0002017 -3.937e-07 0)
(0.000202 2.381e-08 0)
(0.0002016 4.36e-07 0)
(0.0002003 8.334e-07 0)
(0.0001983 1.208e-06 0)
(0.0001955 1.552e-06 0)
(0.0001921 1.862e-06 0)
(0.0001881 2.134e-06 0)
(0.0001836 2.365e-06 0)
(0.0001787 2.555e-06 0)
(0.0001734 2.704e-06 0)
(0.0001679 2.813e-06 0)
(0.0001622 2.885e-06 0)
(0.0001564 2.922e-06 0)
(0.0001505 2.927e-06 0)
(0.0001447 2.903e-06 0)
(0.000139 2.854e-06 0)
(0.0001333 2.784e-06 0)
(0.0001278 2.696e-06 0)
(0.0001226 2.593e-06 0)
(0.0001175 2.479e-06 0)
(0.0001126 2.357e-06 0)
(0.0001081 2.229e-06 0)
(0.0001037 2.098e-06 0)
(9.967e-05 1.966e-06 0)
(9.587e-05 1.835e-06 0)
(9.233e-05 1.707e-06 0)
(8.904e-05 1.582e-06 0)
(8.599e-05 1.461e-06 0)
(8.319e-05 1.345e-06 0)
(8.061e-05 1.236e-06 0)
(7.824e-05 1.132e-06 0)
(7.607e-05 1.034e-06 0)
(7.41e-05 9.428e-07 0)
(7.23e-05 8.577e-07 0)
(7.066e-05 7.786e-07 0)
(6.918e-05 7.055e-07 0)
(6.783e-05 6.381e-07 0)
(6.662e-05 5.761e-07 0)
(6.552e-05 5.192e-07 0)
(6.454e-05 4.671e-07 0)
(6.365e-05 4.197e-07 0)
(6.285e-05 3.764e-07 0)
(6.214e-05 3.371e-07 0)
(6.15e-05 3.014e-07 0)
(6.093e-05 2.691e-07 0)
(6.042e-05 2.399e-07 0)
(5.997e-05 2.136e-07 0)
(5.957e-05 1.9e-07 0)
(5.921e-05 1.688e-07 0)
(5.889e-05 1.5e-07 0)
(5.86e-05 1.332e-07 0)
(5.835e-05 1.186e-07 0)
(5.813e-05 1.059e-07 0)
(5.793e-05 9.505e-08 0)
(5.775e-05 8.617e-08 0)
(5.758e-05 7.93e-08 0)
(5.743e-05 7.463e-08 0)
(5.728e-05 7.249e-08 0)
(5.713e-05 7.354e-08 0)
(5.698e-05 7.897e-08 0)
(5.681e-05 9.11e-08 0)
(5.661e-05 1.137e-07 0)
(5.634e-05 1.51e-07 0)
(5.599e-05 1.963e-07 0)
(0.001209 0.0003128 0)
(0.001154 0.0003282 0)
(0.00101 0.000248 0)
(0.0008613 0.0001771 0)
(0.0007345 0.0001262 0)
(0.0006326 9.148e-05 0)
(0.0005525 6.794e-05 0)
(0.0004893 5.179e-05 0)
(0.0004391 4.045e-05 0)
(0.0003987 3.224e-05 0)
(0.0003658 2.613e-05 0)
(0.0003387 2.146e-05 0)
(0.0003162 1.78e-05 0)
(0.0002974 1.488e-05 0)
(0.0002815 1.25e-05 0)
(0.0002681 1.053e-05 0)
(0.0002568 8.883e-06 0)
(0.0002473 7.48e-06 0)
(0.0002392 6.272e-06 0)
(0.0002325 5.219e-06 0)
(0.0002269 4.289e-06 0)
(0.0002224 3.458e-06 0)
(0.0002187 2.706e-06 0)
(0.000216 2.017e-06 0)
(0.000214 1.377e-06 0)
(0.0002127 7.745e-07 0)
(0.0002121 2e-07 0)
(0.0002122 -3.553e-07 0)
(0.0002129 -8.987e-07 0)
(0.0002142 -1.437e-06 0)
(0.0002162 -1.975e-06 0)
(0.0002189 -2.519e-06 0)
(0.0002221 -3.073e-06 0)
(0.000226 -3.64e-06 0)
(0.0002306 -4.224e-06 0)
(0.0002359 -4.827e-06 0)
(0.0002419 -5.451e-06 0)
(0.0002486 -6.095e-06 0)
(0.0002561 -6.76e-06 0)
(0.0002644 -7.445e-06 0)
(0.0002734 -8.146e-06 0)
(0.0002833 -8.859e-06 0)
(0.000294 -9.578e-06 0)
(0.0003055 -1.029e-05 0)
(0.0003178 -1.1e-05 0)
(0.000331 -1.168e-05 0)
(0.0003448 -1.233e-05 0)
(0.0003594 -1.292e-05 0)
(0.0003746 -1.344e-05 0)
(0.0003903 -1.386e-05 0)
(0.0004065 -1.418e-05 0)
(0.0004229 -1.436e-05 0)
(0.0004394 -1.438e-05 0)
(0.0004558 -1.423e-05 0)
(0.0004719 -1.389e-05 0)
(0.0004875 -1.333e-05 0)
(0.0005023 -1.256e-05 0)
(0.0005161 -1.157e-05 0)
(0.0005287 -1.036e-05 0)
(0.0005397 -8.955e-06 0)
(0.000549 -7.366e-06 0)
(0.0005565 -5.628e-06 0)
(0.0005618 -3.779e-06 0)
(0.0005651 -1.861e-06 0)
(0.0005661 7.846e-08 0)
(0.000565 1.995e-06 0)
(0.0005617 3.846e-06 0)
(0.0005563 5.594e-06 0)
(0.000549 7.208e-06 0)
(0.00054 8.662e-06 0)
(0.0005294 9.942e-06 0)
(0.0005174 1.104e-05 0)
(0.0005043 1.194e-05 0)
(0.0004902 1.266e-05 0)
(0.0004754 1.319e-05 0)
(0.00046 1.354e-05 0)
(0.0004444 1.374e-05 0)
(0.0004285 1.378e-05 0)
(0.0004127 1.369e-05 0)
(0.0003971 1.348e-05 0)
(0.0003817 1.317e-05 0)
(0.0003667 1.277e-05 0)
(0.0003522 1.23e-05 0)
(0.0003383 1.178e-05 0)
(0.000325 1.121e-05 0)
(0.0003123 1.062e-05 0)
(0.0003003 1.001e-05 0)
(0.0002891 9.397e-06 0)
(0.0002785 8.785e-06 0)
(0.0002686 8.181e-06 0)
(0.0002594 7.592e-06 0)
(0.0002509 7.023e-06 0)
(0.000243 6.477e-06 0)
(0.0002357 5.957e-06 0)
(0.000229 5.464e-06 0)
(0.0002229 5e-06 0)
(0.0002173 4.565e-06 0)
(0.0002122 4.159e-06 0)
(0.0002075 3.781e-06 0)
(0.0002032 3.431e-06 0)
(0.0001994 3.108e-06 0)
(0.0001959 2.81e-06 0)
(0.0001928 2.536e-06 0)
(0.0001899 2.285e-06 0)
(0.0001873 2.056e-06 0)
(0.000185 1.847e-06 0)
(0.0001829 1.657e-06 0)
(0.0001811 1.484e-06 0)
(0.0001794 1.327e-06 0)
(0.0001779 1.186e-06 0)
(0.0001766 1.058e-06 0)
(0.0001754 9.426e-07 0)
(0.0001743 8.394e-07 0)
(0.0001734 7.472e-07 0)
(0.0001725 6.655e-07 0)
(0.0001718 5.936e-07 0)
(0.0001711 5.311e-07 0)
(0.0001705 4.778e-07 0)
(0.0001699 4.337e-07 0)
(0.0001694 3.991e-07 0)
(0.000169 3.747e-07 0)
(0.0001685 3.614e-07 0)
(0.0001681 3.614e-07 0)
(0.0001677 3.779e-07 0)
(0.0001672 4.161e-07 0)
(0.0001667 4.831e-07 0)
(0.0001662 5.827e-07 0)
(0.0001656 6.867e-07 0)
(0.001226 0.0002775 0)
(0.001243 0.0004026 0)
(0.001194 0.0003664 0)
(0.001102 0.0002983 0)
(0.0009997 0.0002346 0)
(0.0009015 0.0001831 0)
(0.0008142 0.0001438 0)
(0.000739 0.0001143 0)
(0.0006752 9.196e-05 0)
(0.0006214 7.494e-05 0)
(0.000576 6.174e-05 0)
(0.0005376 5.134e-05 0)
(0.000505 4.3e-05 0)
(0.0004773 3.622e-05 0)
(0.0004537 3.061e-05 0)
(0.0004336 2.592e-05 0)
(0.0004165 2.195e-05 0)
(0.0004019 1.855e-05 0)
(0.0003895 1.56e-05 0)
(0.0003791 1.301e-05 0)
(0.0003705 1.071e-05 0)
(0.0003634 8.655e-06 0)
(0.0003578 6.786e-06 0)
(0.0003534 5.067e-06 0)
(0.0003503 3.468e-06 0)
(0.0003483 1.96e-06 0)
(0.0003474 5.203e-07 0)
(0.0003475 -8.719e-07 0)
(0.0003486 -2.234e-06 0)
(0.0003507 -3.583e-06 0)
(0.0003539 -4.932e-06 0)
(0.000358 -6.293e-06 0)
(0.0003631 -7.676e-06 0)
(0.0003692 -9.092e-06 0)
(0.0003764 -1.055e-05 0)
(0.0003847 -1.205e-05 0)
(0.000394 -1.359e-05 0)
(0.0004046 -1.519e-05 0)
(0.0004162 -1.683e-05 0)
(0.0004291 -1.852e-05 0)
(0.0004432 -2.025e-05 0)
(0.0004586 -2.2e-05 0)
(0.0004752 -2.376e-05 0)
(0.0004931 -2.551e-05 0)
(0.0005122 -2.723e-05 0)
(0.0005325 -2.888e-05 0)
(0.000554 -3.044e-05 0)
(0.0005764 -3.187e-05 0)
(0.0005999 -3.311e-05 0)
(0.0006241 -3.413e-05 0)
(0.0006489 -3.487e-05 0)
(0.0006741 -3.527e-05 0)
(0.0006994 -3.53e-05 0)
(0.0007246 -3.49e-05 0)
(0.0007493 -3.402e-05 0)
(0.0007731 -3.264e-05 0)
(0.0007958 -3.073e-05 0)
(0.0008169 -2.829e-05 0)
(0.000836 -2.534e-05 0)
(0.0008529 -2.189e-05 0)
(0.0008672 -1.801e-05 0)
(0.0008785 -1.378e-05 0)
(0.0008868 -9.271e-06 0)
(0.0008918 -4.601e-06 0)
(0.0008934 1.246e-07 0)
(0.0008917 4.798e-06 0)
(0.0008868 9.315e-06 0)
(0.0008787 1.359e-05 0)
(0.0008676 1.754e-05 0)
(0.0008539 2.111e-05 0)
(0.0008377 2.426e-05 0)
(0.0008195 2.696e-05 0)
(0.0007994 2.92e-05 0)
(0.0007779 3.099e-05 0)
(0.0007552 3.233e-05 0)
(0.0007317 3.324e-05 0)
(0.0007077 3.375e-05 0)
(0.0006834 3.39e-05 0)
(0.000659 3.371e-05 0)
(0.0006349 3.324e-05 0)
(0.0006112 3.25e-05 0)
(0.0005881 3.156e-05 0)
(0.0005656 3.044e-05 0)
(0.000544 2.918e-05 0)
(0.0005233 2.781e-05 0)
(0.0005037 2.637e-05 0)
(0.000485 2.489e-05 0)
(0.0004674 2.339e-05 0)
(0.0004509 2.189e-05 0)
(0.0004354 2.041e-05 0)
(0.000421 1.897e-05 0)
(0.0004076 1.757e-05 0)
(0.0003952 1.622e-05 0)
(0.0003838 1.494e-05 0)
(0.0003732 1.372e-05 0)
(0.0003635 1.257e-05 0)
(0.0003546 1.149e-05 0)
(0.0003465 1.048e-05 0)
(0.0003391 9.539e-06 0)
(0.0003324 8.667e-06 0)
(0.0003262 7.86e-06 0)
(0.0003207 7.115e-06 0)
(0.0003156 6.431e-06 0)
(0.0003111 5.803e-06 0)
(0.0003069 5.228e-06 0)
(0.0003032 4.703e-06 0)
(0.0002999 4.224e-06 0)
(0.0002969 3.789e-06 0)
(0.0002942 3.394e-06 0)
(0.0002917 3.036e-06 0)
(0.0002896 2.713e-06 0)
(0.0002876 2.422e-06 0)
(0.0002859 2.161e-06 0)
(0.0002843 1.927e-06 0)
(0.000283 1.719e-06 0)
(0.0002817 1.536e-06 0)
(0.0002806 1.376e-06 0)
(0.0002796 1.24e-06 0)
(0.0002787 1.125e-06 0)
(0.0002779 1.034e-06 0)
(0.0002771 9.673e-07 0)
(0.0002764 9.26e-07 0)
(0.0002757 9.132e-07 0)
(0.000275 9.327e-07 0)
(0.0002744 9.89e-07 0)
(0.0002737 1.086e-06 0)
(0.000273 1.215e-06 0)
(0.0002723 1.328e-06 0)
(0.001224 0.0002275 0)
(0.00126 0.0004003 0)
(0.001258 0.0004193 0)
(0.001216 0.000379 0)
(0.001149 0.000323 0)
(0.001073 0.0002687 0)
(0.0009971 0.0002217 0)
(0.0009257 0.000183 0)
(0.0008611 0.0001516 0)
(0.0008038 0.0001264 0)
(0.0007535 0.000106 0)
(0.0007096 8.935e-05 0)
(0.0006715 7.566e-05 0)
(0.0006385 6.428e-05 0)
(0.00061 5.472e-05 0)
(0.0005853 4.661e-05 0)
(0.000564 3.966e-05 0)
(0.0005458 3.365e-05 0)
(0.0005303 2.839e-05 0)
(0.0005171 2.374e-05 0)
(0.0005061 1.96e-05 0)
(0.0004971 1.586e-05 0)
(0.0004899 1.245e-05 0)
(0.0004843 9.308e-06 0)
(0.0004803 6.372e-06 0)
(0.0004778 3.597e-06 0)
(0.0004767 9.426e-07 0)
(0.0004769 -1.627e-06 0)
(0.0004784 -4.145e-06 0)
(0.0004812 -6.637e-06 0)
(0.0004854 -9.129e-06 0)
(0.0004908 -1.164e-05 0)
(0.0004976 -1.419e-05 0)
(0.0005057 -1.68e-05 0)
(0.0005151 -1.948e-05 0)
(0.000526 -2.224e-05 0)
(0.0005383 -2.508e-05 0)
(0.0005521 -2.8e-05 0)
(0.0005674 -3.101e-05 0)
(0.0005842 -3.409e-05 0)
(0.0006027 -3.724e-05 0)
(0.0006227 -4.042e-05 0)
(0.0006444 -4.362e-05 0)
(0.0006677 -4.68e-05 0)
(0.0006926 -4.991e-05 0)
(0.000719 -5.29e-05 0)
(0.0007468 -5.571e-05 0)
(0.000776 -5.826e-05 0)
(0.0008063 -6.049e-05 0)
(0.0008376 -6.23e-05 0)
(0.0008697 -6.36e-05 0)
(0.0009023 -6.43e-05 0)
(0.000935 -6.43e-05 0)
(0.0009674 -6.353e-05 0)
(0.0009993 -6.19e-05 0)
(0.00103 -5.936e-05 0)
(0.001059 -5.587e-05 0)
(0.001086 -5.143e-05 0)
(0.001111 -4.604e-05 0)
(0.001133 -3.979e-05 0)
(0.001151 -3.275e-05 0)
(0.001166 -2.507e-05 0)
(0.001177 -1.69e-05 0)
(0.001183 -8.44e-06 0)
(0.001185 1.277e-07 0)
(0.001183 8.602e-06 0)
(0.001177 1.68e-05 0)
(0.001166 2.456e-05 0)
(0.001152 3.174e-05 0)
(0.001135 3.825e-05 0)
(0.001114 4.4e-05 0)
(0.00109 4.894e-05 0)
(0.001065 5.306e-05 0)
(0.001037 5.635e-05 0)
(0.001008 5.883e-05 0)
(0.0009775 6.054e-05 0)
(0.0009464 6.153e-05 0)
(0.000915 6.185e-05 0)
(0.0008835 6.157e-05 0)
(0.0008523 6.075e-05 0)
(0.0008215 5.947e-05 0)
(0.0007915 5.779e-05 0)
(0.0007623 5.579e-05 0)
(0.0007342 5.353e-05 0)
(0.0007073 5.108e-05 0)
(0.0006816 4.849e-05 0)
(0.0006572 4.581e-05 0)
(0.0006342 4.309e-05 0)
(0.0006125 4.037e-05 0)
(0.0005922 3.768e-05 0)
(0.0005733 3.505e-05 0)
(0.0005557 3.25e-05 0)
(0.0005393 3.004e-05 0)
(0.0005242 2.769e-05 0)
(0.0005103 2.546e-05 0)
(0.0004974 2.335e-05 0)
(0.0004857 2.136e-05 0)
(0.0004749 1.951e-05 0)
(0.000465 1.778e-05 0)
(0.000456 1.617e-05 0)
(0.0004479 1.468e-05 0)
(0.0004404 1.33e-05 0)
(0.0004337 1.204e-05 0)
(0.0004276 1.087e-05 0)
(0.000422 9.808e-06 0)
(0.000417 8.833e-06 0)
(0.0004125 7.944e-06 0)
(0.0004085 7.135e-06 0)
(0.0004048 6.399e-06 0)
(0.0004015 5.732e-06 0)
(0.0003986 5.129e-06 0)
(0.000396 4.585e-06 0)
(0.0003936 4.096e-06 0)
(0.0003915 3.658e-06 0)
(0.0003896 3.268e-06 0)
(0.0003879 2.923e-06 0)
(0.0003864 2.622e-06 0)
(0.000385 2.362e-06 0)
(0.0003838 2.143e-06 0)
(0.0003827 1.966e-06 0)
(0.0003816 1.83e-06 0)
(0.0003807 1.737e-06 0)
(0.0003798 1.691e-06 0)
(0.0003789 1.692e-06 0)
(0.0003781 1.744e-06 0)
(0.0003772 1.841e-06 0)
(0.0003764 1.968e-06 0)
(0.0003756 2.067e-06 0)
(0.001219 0.0001846 0)
(0.001255 0.0003713 0)
(0.001275 0.0004301 0)
(0.001264 0.0004211 0)
(0.001229 0.0003829 0)
(0.001178 0.0003357 0)
(0.00112 0.000289 0)
(0.00106 0.0002468 0)
(0.001002 0.0002102 0)
(0.0009481 0.0001791 0)
(0.0008987 0.0001529 0)
(0.0008543 0.0001307 0)
(0.0008147 0.000112 0)
(0.0007797 9.604e-05 0)
(0.0007488 8.24e-05 0)
(0.0007218 7.065e-05 0)
(0.0006982 6.044e-05 0)
(0.0006778 5.15e-05 0)
(0.0006602 4.361e-05 0)
(0.0006453 3.659e-05 0)
(0.0006328 3.027e-05 0)
(0.0006225 2.454e-05 0)
(0.0006142 1.929e-05 0)
(0.0006078 1.442e-05 0)
(0.0006032 9.85e-06 0)
(0.0006003 5.523e-06 0)
(0.0005991 1.373e-06 0)
(0.0005995 -2.653e-06 0)
(0.0006015 -6.601e-06 0)
(0.000605 -1.051e-05 0)
(0.00061 -1.443e-05 0)
(0.0006166 -1.837e-05 0)
(0.0006247 -2.238e-05 0)
(0.0006345 -2.647e-05 0)
(0.0006459 -3.067e-05 0)
(0.000659 -3.498e-05 0)
(0.0006737 -3.942e-05 0)
(0.0006903 -4.399e-05 0)
(0.0007086 -4.868e-05 0)
(0.0007288 -5.348e-05 0)
(0.0007509 -5.837e-05 0)
(0.0007749 -6.332e-05 0)
(0.0008008 -6.828e-05 0)
(0.0008285 -7.32e-05 0)
(0.0008582 -7.801e-05 0)
(0.0008896 -8.262e-05 0)
(0.0009228 -8.695e-05 0)
(0.0009575 -9.088e-05 0)
(0.0009935 -9.429e-05 0)
(0.001031 -9.706e-05 0)
(0.001069 -9.903e-05 0)
(0.001108 -0.0001001 0)
(0.001146 -0.0001 0)
(0.001185 -9.88e-05 0)
(0.001223 -9.624e-05 0)
(0.001259 -9.227e-05 0)
(0.001294 -8.683e-05 0)
(0.001326 -7.991e-05 0)
(0.001355 -7.155e-05 0)
(0.001381 -6.184e-05 0)
(0.001403 -5.092e-05 0)
(0.00142 -3.901e-05 0)
(0.001433 -2.634e-05 0)
(0.001441 -1.321e-05 0)
(0.001444 7.635e-08 0)
(0.001441 1.322e-05 0)
(0.001434 2.595e-05 0)
(0.001421 3.8e-05 0)
(0.001405 4.916e-05 0)
(0.001384 5.927e-05 0)
(0.001359 6.822e-05 0)
(0.001332 7.594e-05 0)
(0.001301 8.237e-05 0)
(0.001268 8.754e-05 0)
(0.001234 9.145e-05 0)
(0.001198 9.418e-05 0)
(0.001161 9.578e-05 0)
(0.001124 9.634e-05 0)
(0.001086 9.597e-05 0)
(0.001049 9.476e-05 0)
(0.001012 9.283e-05 0)
(0.0009766 9.028e-05 0)
(0.0009418 8.722e-05 0)
(0.0009082 8.376e-05 0)
(0.0008761 7.999e-05 0)
(0.0008453 7.599e-05 0)
(0.0008162 7.186e-05 0)
(0.0007886 6.765e-05 0)
(0.0007626 6.344e-05 0)
(0.0007383 5.926e-05 0)
(0.0007155 5.517e-05 0)
(0.0006943 5.12e-05 0)
(0.0006746 4.737e-05 0)
(0.0006564 4.37e-05 0)
(0.0006395 4.022e-05 0)
(0.000624 3.692e-05 0)
(0.0006098 3.382e-05 0)
(0.0005967 3.091e-05 0)
(0.0005847 2.819e-05 0)
(0.0005738 2.567e-05 0)
(0.0005638 2.332e-05 0)
(0.0005548 2.116e-05 0)
(0.0005465 1.917e-05 0)
(0.0005391 1.733e-05 0)
(0.0005323 1.565e-05 0)
(0.0005262 1.411e-05 0)
(0.0005207 1.27e-05 0)
(0.0005157 1.142e-05 0)
(0.0005112 1.025e-05 0)
(0.0005071 9.196e-06 0)
(0.0005035 8.238e-06 0)
(0.0005002 7.372e-06 0)
(0.0004973 6.593e-06 0)
(0.0004947 5.895e-06 0)
(0.0004923 5.272e-06 0)
(0.0004902 4.719e-06 0)
(0.0004884 4.235e-06 0)
(0.0004867 3.815e-06 0)
(0.0004851 3.458e-06 0)
(0.0004837 3.164e-06 0)
(0.0004825 2.931e-06 0)
(0.0004813 2.761e-06 0)
(0.0004802 2.655e-06 0)
(0.0004792 2.613e-06 0)
(0.0004782 2.632e-06 0)
(0.0004773 2.705e-06 0)
(0.0004764 2.807e-06 0)
(0.0004755 2.886e-06 0)
(0.001214 0.000152 0)
(0.001246 0.0003355 0)
(0.001274 0.0004183 0)
(0.001282 0.0004356 0)
(0.001269 0.0004171 0)
(0.001239 0.0003819 0)
(0.001199 0.000341 0)
(0.001154 0.0003001 0)
(0.001106 0.0002621 0)
(0.001059 0.000228 0)
(0.001015 0.0001979 0)
(0.0009735 0.0001716 0)
(0.0009355 0.0001487 0)
(0.000901 0.0001288 0)
(0.0008701 0.0001114 0)
(0.0008427 9.616e-05 0)
(0.0008184 8.273e-05 0)
(0.0007972 7.083e-05 0)
(0.0007788 6.022e-05 0)
(0.000763 5.067e-05 0)
(0.0007497 4.202e-05 0)
(0.0007387 3.412e-05 0)
(0.0007299 2.683e-05 0)
(0.0007231 2.004e-05 0)
(0.0007183 1.364e-05 0)
(0.0007153 7.559e-06 0)
(0.0007142 1.705e-06 0)
(0.0007148 -3.986e-06 0)
(0.0007171 -9.578e-06 0)
(0.0007212 -1.513e-05 0)
(0.0007271 -2.068e-05 0)
(0.0007346 -2.628e-05 0)
(0.000744 -3.197e-05 0)
(0.0007551 -3.778e-05 0)
(0.0007681 -4.373e-05 0)
(0.000783 -4.984e-05 0)
(0.0007998 -5.613e-05 0)
(0.0008185 -6.26e-05 0)
(0.0008393 -6.923e-05 0)
(0.0008622 -7.601e-05 0)
(0.0008872 -8.291e-05 0)
(0.0009144 -8.989e-05 0)
(0.0009436 -9.687e-05 0)
(0.000975 -0.0001038 0)
(0.001009 -0.0001105 0)
(0.001044 -0.000117 0)
(0.001081 -0.0001231 0)
(0.001121 -0.0001286 0)
(0.001161 -0.0001334 0)
(0.001203 -0.0001372 0)
(0.001246 -0.00014 0)
(0.00129 -0.0001414 0)
(0.001334 -0.0001413 0)
(0.001377 -0.0001396 0)
(0.00142 -0.0001359 0)
(0.001461 -0.0001303 0)
(0.001501 -0.0001227 0)
(0.001537 -0.0001129 0)
(0.00157 -0.0001011 0)
(0.0016 -8.74e-05 0)
(0.001624 -7.199e-05 0)
(0.001644 -5.518e-05 0)
(0.001659 -3.73e-05 0)
(0.001667 -1.877e-05 0)
(0.00167 -1.824e-08 0)
(0.001668 1.854e-05 0)
(0.001659 3.649e-05 0)
(0.001645 5.35e-05 0)
(0.001626 6.926e-05 0)
(0.001603 8.354e-05 0)
(0.001575 9.619e-05 0)
(0.001544 0.0001071 0)
(0.001509 0.0001162 0)
(0.001472 0.0001235 0)
(0.001433 0.0001291 0)
(0.001393 0.000133 0)
(0.001351 0.0001354 0)
(0.001309 0.0001362 0)
(0.001267 0.0001358 0)
(0.001225 0.0001341 0)
(0.001183 0.0001315 0)
(0.001143 0.0001279 0)
(0.001104 0.0001237 0)
(0.001066 0.0001188 0)
(0.001029 0.0001135 0)
(0.0009945 0.000108 0)
(0.0009614 0.0001021 0)
(0.0009301 9.624e-05 0)
(0.0009006 9.031e-05 0)
(0.0008729 8.443e-05 0)
(0.0008471 7.866e-05 0)
(0.0008229 7.305e-05 0)
(0.0008005 6.764e-05 0)
(0.0007797 6.246e-05 0)
(0.0007605 5.752e-05 0)
(0.0007428 5.285e-05 0)
(0.0007265 4.845e-05 0)
(0.0007115 4.432e-05 0)
(0.0006978 4.046e-05 0)
(0.0006852 3.686e-05 0)
(0.0006738 3.353e-05 0)
(0.0006634 3.045e-05 0)
(0.0006539 2.76e-05 0)
(0.0006453 2.498e-05 0)
(0.0006375 2.258e-05 0)
(0.0006304 2.037e-05 0)
(0.000624 1.836e-05 0)
(0.0006182 1.652e-05 0)
(0.000613 1.485e-05 0)
(0.0006083 1.333e-05 0)
(0.0006041 1.195e-05 0)
(0.0006003 1.071e-05 0)
(0.0005969 9.587e-06 0)
(0.0005938 8.579e-06 0)
(0.0005911 7.678e-06 0)
(0.0005886 6.878e-06 0)
(0.0005864 6.173e-06 0)
(0.0005844 5.56e-06 0)
(0.0005826 5.033e-06 0)
(0.000581 4.592e-06 0)
(0.0005796 4.236e-06 0)
(0.0005782 3.962e-06 0)
(0.000577 3.77e-06 0)
(0.0005758 3.659e-06 0)
(0.0005748 3.623e-06 0)
(0.0005738 3.648e-06 0)
(0.0005728 3.712e-06 0)
(0.0005719 3.767e-06 0)
(0.00121 0.0001279 0)
(0.001237 0.0003008 0)
(0.001266 0.0003958 0)
(0.001284 0.0004323 0)
(0.001286 0.0004316 0)
(0.001273 0.0004097 0)
(0.001249 0.0003773 0)
(0.001218 0.000341 0)
(0.001182 0.0003046 0)
(0.001144 0.0002699 0)
(0.001106 0.0002381 0)
(0.00107 0.0002092 0)
(0.001036 0.0001834 0)
(0.001004 0.0001604 0)
(0.0009747 0.0001398 0)
(0.0009484 0.0001215 0)
(0.0009248 0.0001052 0)
(0.000904 9.047e-05 0)
(0.0008857 7.721e-05 0)
(0.00087 6.518e-05 0)
(0.0008566 5.418e-05 0)
(0.0008456 4.405e-05 0)
(0.0008367 3.464e-05 0)
(0.0008298 2.583e-05 0)
(0.000825 1.749e-05 0)
(0.0008222 9.525e-06 0)
(0.0008213 1.834e-06 0)
(0.0008222 -5.666e-06 0)
(0.000825 -1.305e-05 0)
(0.0008296 -2.039e-05 0)
(0.0008361 -2.774e-05 0)
(0.0008445 -3.516e-05 0)
(0.0008548 -4.271e-05 0)
(0.000867 -5.04e-05 0)
(0.0008812 -5.829e-05 0)
(0.0008974 -6.639e-05 0)
(0.0009158 -7.472e-05 0)
(0.0009363 -8.328e-05 0)
(0.000959 -9.205e-05 0)
(0.0009839 -0.000101 0)
(0.001011 -0.0001101 0)
(0.001041 -0.0001193 0)
(0.001073 -0.0001286 0)
(0.001107 -0.0001377 0)
(0.001143 -0.0001466 0)
(0.001182 -0.0001551 0)
(0.001223 -0.0001631 0)
(0.001265 -0.0001704 0)
(0.00131 -0.0001767 0)
(0.001355 -0.0001818 0)
(0.001402 -0.0001854 0)
(0.00145 -0.0001873 0)
(0.001498 -0.0001872 0)
(0.001545 -0.0001848 0)
(0.001592 -0.0001801 0)
(0.001637 -0.0001727 0)
(0.00168 -0.0001625 0)
(0.00172 -0.0001496 0)
(0.001757 -0.000134 0)
(0.001789 -0.0001159 0)
(0.001816 -9.552e-05 0)
(0.001838 -7.324e-05 0)
(0.001854 -4.955e-05 0)
(0.001864 -2.499e-05 0)
(0.001867 -1.277e-07 0)
(0.001864 2.446e-05 0)
(0.001855 4.824e-05 0)
(0.001839 7.076e-05 0)
(0.001819 9.161e-05 0)
(0.001793 0.0001105 0)
(0.001762 0.0001273 0)
(0.001728 0.0001417 0)
(0.00169 0.0001538 0)
(0.00165 0.0001635 0)
(0.001607 0.0001709 0)
(0.001563 0.0001761 0)
(0.001518 0.0001792 0)
(0.001472 0.0001804 0)
(0.001426 0.0001799 0)
(0.00138 0.0001778 0)
(0.001335 0.0001743 0)
(0.001291 0.0001697 0)
(0.001248 0.0001641 0)
(0.001206 0.0001578 0)
(0.001166 0.0001508 0)
(0.001129 0.0001435 0)
(0.001092 0.0001358 0)
(0.001058 0.000128 0)
(0.001026 0.0001202 0)
(0.0009958 0.0001124 0)
(0.0009675 0.0001048 0)
(0.0009411 9.742e-05 0)
(0.0009165 9.026e-05 0)
(0.0008938 8.34e-05 0)
(0.0008727 7.686e-05 0)
(0.0008532 7.067e-05 0)
(0.0008353 6.483e-05 0)
(0.0008189 5.935e-05 0)
(0.0008038 5.422e-05 0)
(0.00079 4.944e-05 0)
(0.0007774 4.501e-05 0)
(0.0007659 4.09e-05 0)
(0.0007554 3.711e-05 0)
(0.0007459 3.361e-05 0)
(0.0007372 3.04e-05 0)
(0.0007294 2.746e-05 0)
(0.0007223 2.477e-05 0)
(0.0007159 2.231e-05 0)
(0.0007101 2.007e-05 0)
(0.0007049 1.803e-05 0)
(0.0007002 1.618e-05 0)
(0.000696 1.451e-05 0)
(0.0006922 1.3e-05 0)
(0.0006888 1.164e-05 0)
(0.0006857 1.043e-05 0)
(0.0006829 9.343e-06 0)
(0.0006805 8.386e-06 0)
(0.0006783 7.548e-06 0)
(0.0006763 6.825e-06 0)
(0.0006745 6.212e-06 0)
(0.0006728 5.706e-06 0)
(0.0006714 5.304e-06 0)
(0.00067 5.004e-06 0)
(0.0006688 4.801e-06 0)
(0.0006676 4.687e-06 0)
(0.0006666 4.65e-06 0)
(0.0006656 4.664e-06 0)
(0.0006646 4.691e-06 0)
(0.001208 0.0001097 0)
(0.00123 0.0002698 0)
(0.001258 0.0003694 0)
(0.001281 0.0004186 0)
(0.001292 0.0004322 0)
(0.001291 0.0004228 0)
(0.00128 0.0003997 0)
(0.00126 0.0003697 0)
(0.001235 0.0003368 0)
(0.001207 0.0003037 0)
(0.001177 0.0002718 0)
(0.001147 0.0002419 0)
(0.001118 0.0002143 0)
(0.00109 0.0001892 0)
(0.001064 0.0001663 0)
(0.00104 0.0001455 0)
(0.001018 0.0001266 0)
(0.0009984 0.0001094 0)
(0.0009812 9.374e-05 0)
(0.0009662 7.937e-05 0)
(0.0009534 6.612e-05 0)
(0.0009428 5.382e-05 0)
(0.0009342 4.231e-05 0)
(0.0009278 3.147e-05 0)
(0.0009233 2.116e-05 0)
(0.0009207 1.126e-05 0)
(0.0009201 1.662e-06 0)
(0.0009214 -7.721e-06 0)
(0.0009246 -1.698e-05 0)
(0.0009297 -2.62e-05 0)
(0.0009367 -3.546e-05 0)
(0.0009457 -4.481e-05 0)
(0.0009567 -5.432e-05 0)
(0.0009697 -6.403e-05 0)
(0.0009848 -7.398e-05 0)
(0.001002 -8.419e-05 0)
(0.001021 -9.469e-05 0)
(0.001043 -0.0001055 0)
(0.001067 -0.0001165 0)
(0.001094 -0.0001278 0)
(0.001122 -0.0001393 0)
(0.001154 -0.0001509 0)
(0.001187 -0.0001625 0)
(0.001223 -0.000174 0)
(0.001262 -0.0001852 0)
(0.001303 -0.000196 0)
(0.001346 -0.0002061 0)
(0.001391 -0.0002152 0)
(0.001438 -0.0002232 0)
(0.001487 -0.0002296 0)
(0.001536 -0.0002342 0)
(0.001587 -0.0002367 0)
(0.001638 -0.0002366 0)
(0.001689 -0.0002337 0)
(0.001739 -0.0002278 0)
(0.001787 -0.0002185 0)
(0.001833 -0.0002058 0)
(0.001876 -0.0001895 0)
(0.001916 -0.0001699 0)
(0.00195 -0.0001469 0)
(0.00198 -0.0001211 0)
(0.002003 -9.29e-05 0)
(0.00202 -6.287e-05 0)
(0.002031 -3.172e-05 0)
(0.002034 -2.089e-07 0)
(0.002031 3.094e-05 0)
(0.002021 6.106e-05 0)
(0.002004 8.953e-05 0)
(0.001982 0.0001159 0)
(0.001954 0.0001398 0)
(0.001922 0.0001609 0)
(0.001885 0.0001791 0)
(0.001845 0.0001943 0)
(0.001801 0.0002066 0)
(0.001756 0.000216 0)
(0.001709 0.0002225 0)
(0.00166 0.0002265 0)
(0.001612 0.000228 0)
(0.001563 0.0002274 0)
(0.001514 0.0002247 0)
(0.001466 0.0002204 0)
(0.001419 0.0002146 0)
(0.001374 0.0002076 0)
(0.00133 0.0001996 0)
(0.001288 0.0001909 0)
(0.001247 0.0001816 0)
(0.001209 0.000172 0)
(0.001173 0.0001622 0)
(0.001139 0.0001524 0)
(0.001107 0.0001426 0)
(0.001076 0.000133 0)
(0.001048 0.0001237 0)
(0.001022 0.0001146 0)
(0.0009982 0.000106 0)
(0.0009758 9.773e-05 0)
(0.0009552 8.991e-05 0)
(0.0009361 8.253e-05 0)
(0.0009186 7.56e-05 0)
(0.0009026 6.911e-05 0)
(0.0008878 6.307e-05 0)
(0.0008744 5.745e-05 0)
(0.0008621 5.224e-05 0)
(0.0008509 4.743e-05 0)
(0.0008407 4.299e-05 0)
(0.0008315 3.891e-05 0)
(0.0008231 3.517e-05 0)
(0.0008155 3.175e-05 0)
(0.0008086 2.862e-05 0)
(0.0008024 2.576e-05 0)
(0.0007968 2.316e-05 0)
(0.0007917 2.081e-05 0)
(0.0007872 1.867e-05 0)
(0.0007831 1.674e-05 0)
(0.0007794 1.5e-05 0)
(0.0007761 1.344e-05 0)
(0.0007731 1.205e-05 0)
(0.0007704 1.081e-05 0)
(0.0007681 9.729e-06 0)
(0.0007659 8.785e-06 0)
(0.000764 7.978e-06 0)
(0.0007622 7.301e-06 0)
(0.0007607 6.751e-06 0)
(0.0007593 6.323e-06 0)
(0.000758 6.009e-06 0)
(0.0007568 5.803e-06 0)
(0.0007557 5.689e-06 0)
(0.0007547 5.646e-06 0)
(0.0007537 5.643e-06 0)
(0.001206 9.574e-05 0)
(0.001225 0.0002428 0)
(0.001251 0.0003423 0)
(0.001275 0.0003993 0)
(0.001292 0.0004236 0)
(0.001299 0.0004248 0)
(0.001297 0.0004107 0)
(0.001288 0.0003875 0)
(0.001273 0.0003593 0)
(0.001253 0.0003289 0)
(0.001231 0.0002984 0)
(0.001208 0.0002687 0)
(0.001184 0.0002405 0)
(0.001161 0.0002141 0)
(0.001139 0.0001896 0)
(0.001118 0.000167 0)
(0.001099 0.0001461 0)
(0.001081 0.0001269 0)
(0.001066 0.0001091 0)
(0.001052 9.264e-05 0)
(0.00104 7.732e-05 0)
(0.00103 6.299e-05 0)
(0.001023 4.948e-05 0)
(0.001017 3.667e-05 0)
(0.001013 2.442e-05 0)
(0.001011 1.261e-05 0)
(0.001011 1.116e-06 0)
(0.001012 -1.016e-05 0)
(0.001016 -2.133e-05 0)
(0.001021 -3.247e-05 0)
(0.001029 -4.367e-05 0)
(0.001038 -5.5e-05 0)
(0.00105 -6.653e-05 0)
(0.001063 -7.832e-05 0)
(0.001079 -9.04e-05 0)
(0.001096 -0.0001028 0)
(0.001117 -0.0001156 0)
(0.001139 -0.0001287 0)
(0.001164 -0.0001421 0)
(0.001191 -0.0001558 0)
(0.00122 -0.0001698 0)
(0.001253 -0.0001839 0)
(0.001287 -0.000198 0)
(0.001325 -0.000212 0)
(0.001364 -0.0002256 0)
(0.001407 -0.0002387 0)
(0.001451 -0.000251 0)
(0.001498 -0.0002622 0)
(0.001547 -0.000272 0)
(0.001597 -0.0002799 0)
(0.001649 -0.0002856 0)
(0.001702 -0.0002887 0)
(0.001755 -0.0002888 0)
(0.001808 -0.0002855 0)
(0.001861 -0.0002783 0)
(0.001912 -0.0002672 0)
(0.00196 -0.0002518 0)
(0.002006 -0.000232 0)
(0.002047 -0.0002081 0)
(0.002084 -0.0001801 0)
(0.002115 -0.0001485 0)
(0.00214 -0.0001139 0)
(0.002158 -7.706e-05 0)
(0.002169 -3.886e-05 0)
(0.002172 -2.042e-07 0)
(0.002169 3.797e-05 0)
(0.002158 7.482e-05 0)
(0.002141 0.0001096 0)
(0.002117 0.0001418 0)
(0.002088 0.0001709 0)
(0.002053 0.0001966 0)
(0.002015 0.0002187 0)
(0.001972 0.0002373 0)
(0.001927 0.0002522 0)
(0.001879 0.0002635 0)
(0.00183 0.0002715 0)
(0.00178 0.0002763 0)
(0.001729 0.0002781 0)
(0.001678 0.0002773 0)
(0.001627 0.0002741 0)
(0.001577 0.0002688 0)
(0.001529 0.0002617 0)
(0.001481 0.0002532 0)
(0.001436 0.0002435 0)
(0.001392 0.0002329 0)
(0.00135 0.0002216 0)
(0.001311 0.0002099 0)
(0.001273 0.000198 0)
(0.001238 0.0001861 0)
(0.001205 0.0001742 0)
(0.001174 0.0001625 0)
(0.001145 0.0001511 0)
(0.001118 0.0001402 0)
(0.001093 0.0001296 0)
(0.00107 0.0001196 0)
(0.001048 0.0001101 0)
(0.001029 0.0001011 0)
(0.00101 9.266e-05 0)
(0.0009938 8.476e-05 0)
(0.0009786 7.739e-05 0)
(0.0009646 7.053e-05 0)
(0.0009519 6.418e-05 0)
(0.0009402 5.83e-05 0)
(0.0009297 5.288e-05 0)
(0.00092 4.79e-05 0)
(0.0009113 4.332e-05 0)
(0.0009034 3.913e-05 0)
(0.0008962 3.529e-05 0)
(0.0008897 3.179e-05 0)
(0.0008839 2.861e-05 0)
(0.0008786 2.571e-05 0)
(0.0008738 2.309e-05 0)
(0.0008695 2.071e-05 0)
(0.0008657 1.857e-05 0)
(0.0008622 1.664e-05 0)
(0.0008591 1.492e-05 0)
(0.0008563 1.339e-05 0)
(0.0008538 1.204e-05 0)
(0.0008515 1.086e-05 0)
(0.0008495 9.845e-06 0)
(0.0008477 8.981e-06 0)
(0.0008461 8.267e-06 0)
(0.0008446 7.694e-06 0)
(0.0008433 7.257e-06 0)
(0.0008421 6.945e-06 0)
(0.000841 6.745e-06 0)
(0.00084 6.64e-06 0)
(0.000839 6.604e-06 0)
(0.001205 8.457e-05 0)
(0.001221 0.0002193 0)
(0.001244 0.0003162 0)
(0.001269 0.0003773 0)
(0.001288 0.0004092 0)
(0.001301 0.0004188 0)
(0.001307 0.0004127 0)
(0.001306 0.0003961 0)
(0.001299 0.000373 0)
(0.001287 0.0003462 0)
(0.001272 0.0003179 0)
(0.001255 0.0002894 0)
(0.001238 0.0002615 0)
(0.001219 0.0002347 0)
(0.001201 0.0002093 0)
(0.001184 0.0001854 0)
(0.001168 0.0001631 0)
(0.001153 0.0001423 0)
(0.001139 0.0001228 0)
(0.001128 0.0001045 0)
(0.001117 8.738e-05 0)
(0.001109 7.121e-05 0)
(0.001102 5.587e-05 0)
(0.001097 4.122e-05 0)
(0.001094 2.713e-05 0)
(0.001092 1.348e-05 0)
(0.001092 1.451e-07 0)
(0.001095 -1.299e-05 0)
(0.001099 -2.603e-05 0)
(0.001104 -3.907e-05 0)
(0.001112 -5.221e-05 0)
(0.001122 -6.552e-05 0)
(0.001133 -7.908e-05 0)
(0.001147 -9.295e-05 0)
(0.001163 -0.0001072 0)
(0.001181 -0.0001218 0)
(0.001201 -0.0001368 0)
(0.001223 -0.0001523 0)
(0.001248 -0.0001681 0)
(0.001276 -0.0001843 0)
(0.001306 -0.0002008 0)
(0.001338 -0.0002175 0)
(0.001373 -0.0002342 0)
(0.001411 -0.0002507 0)
(0.001451 -0.0002669 0)
(0.001494 -0.0002825 0)
(0.001539 -0.0002971 0)
(0.001586 -0.0003105 0)
(0.001636 -0.0003221 0)
(0.001688 -0.0003317 0)
(0.001741 -0.0003387 0)
(0.001795 -0.0003426 0)
(0.001849 -0.0003429 0)
(0.001904 -0.0003392 0)
(0.001958 -0.000331 0)
(0.002011 -0.000318 0)
(0.002061 -0.0002999 0)
(0.002108 -0.0002766 0)
(0.002152 -0.0002482 0)
(0.00219 -0.0002149 0)
(0.002223 -0.0001773 0)
(0.002249 -0.000136 0)
(0.002268 -9.195e-05 0)
(0.002279 -4.625e-05 0)
(0.002282 -4.139e-08 0)
(0.002278 4.554e-05 0)
(0.002267 8.946e-05 0)
(0.002249 0.0001309 0)
(0.002224 0.000169 0)
(0.002193 0.0002035 0)
(0.002157 0.0002339 0)
(0.002117 0.0002601 0)
(0.002074 0.0002819 0)
(0.002027 0.0002995 0)
(0.001978 0.0003128 0)
(0.001927 0.0003222 0)
(0.001876 0.0003278 0)
(0.001823 0.0003298 0)
(0.001771 0.0003288 0)
(0.001719 0.0003249 0)
(0.001669 0.0003186 0)
(0.001619 0.0003101 0)
(0.001571 0.0003 0)