/*--------------------------------*- C++ -*----------------------------------*\
  =========                 |
  \\      /  F ield         | OpenFOAM: The Open Source CFD Toolbox
   \\    /   O peration     | Website:  https://openfoam.org
    \\  /    A nd           | Version:  7
     \\/     M anipulation  |
\*---------------------------------------------------------------------------*/
FoamFile
{
    version     2.0;
    format      ascii;
    class       volScalarField;
    location    "2159.99947343539543";
    object      Y.K;
}
// * * * * * * * * * * * * * * * * * * * * * * * * * * * * * * * * * * * * * //

dimensions      [0 0 0 0 0 0 0];

internalField   nonuniform List<scalar> 
4096
(
1.668e-73
1.487e-71
-4.996e-72
1.824e-71
-1.439e-72
-5.225e-72
2.273e-72
1.589e-72
-8.425e-73
-1.78e-73
3.953e-72
-5.423e-71
8.025e-70
-1.095e-68
1.493e-67
-1.922e-66
2.4e-65
-2.979e-64
3.5e-63
-4.144e-62
4.802e-61
-5.439e-60
6.089e-59
-6.668e-58
7.175e-57
-7.504e-56
7.676e-55
-7.452e-54
7.049e-53
-6.608e-52
6.122e-51
-5.59e-50
5.017e-49
-4.413e-48
3.793e-47
-3.176e-46
2.582e-45
-2.033e-44
1.544e-43
-1.13e-42
7.838e-42
-5.22e-41
3.35e-40
-2.017e-39
1.141e-38
-6.028e-38
2.943e-37
-1.307e-36
5.103e-36
-1.643e-35
3.972e-35
6.282e-36
-7.691e-34
5.709e-33
-2.473e-32
1.005e-31
-1.594e-31
3.843e-31
6.971e-30
7.648e-31
1.37e-28
3.047e-28
2.888e-27
2.142e-26
2.027e-26
2.919e-25
8.895e-25
1.997e-24
1.545e-23
4.492e-23
9.175e-23
2.164e-22
1.533e-21
6.68e-21
9.968e-20
1.525e-18
4.108e-18
8.165e-18
1.441e-17
2.39e-17
3.807e-17
5.886e-17
8.89e-17
1.316e-16
1.914e-16
2.739e-16
3.862e-16
5.374e-16
7.384e-16
1.003e-15
1.347e-15
1.791e-15
2.359e-15
3.079e-15
3.986e-15
5.12e-15
6.528e-15
8.266e-15
1.04e-14
1.301e-14
1.617e-14
2e-14
2.461e-14
3.015e-14
3.676e-14
4.462e-14
5.396e-14
6.499e-14
7.801e-14
9.33e-14
1.112e-13
1.322e-13
1.566e-13
1.85e-13
2.179e-13
2.561e-13
3.001e-13
3.509e-13
4.092e-13
4.762e-13
5.528e-13
6.401e-13
7.394e-13
8.512e-13
9.754e-13
1.109e-12
1.243e-12
1.349e-12
-4.954e-71
2.613e-70
-3.347e-70
4.145e-71
2.28e-70
-2.002e-70
7.378e-72
1.088e-70
-2.068e-71
-2.157e-71
2.176e-70
-3.042e-69
4.346e-68
-6.116e-67
8.204e-66
-1.055e-64
1.313e-63
-1.591e-62
1.89e-61
-2.205e-60
2.535e-59
-2.869e-58
3.194e-57
-3.492e-56
3.74e-55
-3.903e-54
3.972e-53
-3.85e-52
3.642e-51
-3.413e-50
3.159e-49
-2.881e-48
2.581e-47
-2.265e-46
1.942e-45
-1.621e-44
1.314e-43
-1.031e-42
7.805e-42
-5.681e-41
3.962e-40
-2.639e-39
1.671e-38
-1.002e-37
5.654e-37
-2.981e-36
1.456e-35
-6.479e-35
2.564e-34
-8.426e-34
2.208e-33
-1.153e-33
-3.227e-32
2.588e-31
-1.127e-30
5.01e-30
-7.174e-30
2.751e-29
3.547e-28
2.889e-28
7.204e-27
1.89e-26
1.657e-25
1.064e-24
1.415e-24
1.426e-23
4.412e-23
1.048e-22
6.983e-22
2.038e-21
4.191e-21
9.369e-21
5.647e-20
1.804e-19
1.215e-18
3.256e-18
6.579e-18
1.178e-17
1.972e-17
3.159e-17
4.904e-17
7.424e-17
1.101e-16
1.603e-16
2.298e-16
3.245e-16
4.521e-16
6.222e-16
8.463e-16
1.139e-15
1.517e-15
2.002e-15
2.619e-15
3.398e-15
4.375e-15
5.592e-15
7.098e-15
8.952e-15
1.122e-14
1.399e-14
1.734e-14
2.14e-14
2.627e-14
3.21e-14
3.907e-14
4.735e-14
5.716e-14
6.875e-14
8.241e-14
9.845e-14
1.172e-13
1.392e-13
1.647e-13
1.945e-13
2.289e-13
2.688e-13
3.148e-13
3.678e-13
4.287e-13
4.986e-13
5.785e-13
6.698e-13
7.737e-13
8.913e-13
1.023e-12
1.17e-12
1.326e-12
1.475e-12
1.111e-69
-7.74e-69
1.942e-68
-2.601e-68
1.812e-68
-3.083e-69
-5.834e-69
5.283e-69
8.079e-70
-1.629e-69
1.156e-68
-1.618e-67
2.267e-66
-3.162e-65
4.202e-64
-5.351e-63
6.594e-62
-7.924e-61
9.342e-60
-1.083e-58
1.238e-57
-1.394e-56
1.544e-55
-1.681e-54
1.793e-53
-1.865e-52
1.89e-51
-1.83e-50
1.732e-49
-1.624e-48
1.502e-47
-1.369e-46
1.225e-45
-1.073e-44
9.182e-44
-7.649e-43
6.185e-42
-4.84e-41
3.654e-40
-2.652e-39
1.845e-38
-1.226e-37
7.752e-37
-4.642e-36
2.621e-35
-1.384e-34
6.787e-34
-3.048e-33
1.226e-32
-4.193e-32
1.168e-31
-1.369e-31
-1.024e-30
1.056e-29
-4.686e-29
2.432e-28
-2.97e-28
1.991e-27
1.76e-26
2.89e-26
3.763e-25
1.231e-24
9.597e-24
5.099e-23
9.442e-23
6.935e-22
2.118e-21
5.285e-21
2.948e-20
8.324e-20
1.717e-19
3.608e-19
1.646e-18
4.006e-18
7.666e-18
1.331e-17
2.185e-17
3.451e-17
5.29e-17
7.914e-17
1.159e-16
1.668e-16
2.36e-16
3.291e-16
4.528e-16
6.156e-16
8.276e-16
1.101e-15
1.452e-15
1.898e-15
2.461e-15
3.168e-15
4.05e-15
5.144e-15
6.494e-15
8.153e-15
1.018e-14
1.265e-14
1.564e-14
1.925e-14
2.359e-14
2.88e-14
3.501e-14
4.242e-14
5.12e-14
6.159e-14
7.385e-14
8.827e-14
1.052e-13
1.25e-13
1.481e-13
1.75e-13
2.063e-13
2.425e-13
2.844e-13
3.327e-13
3.884e-13
4.524e-13
5.258e-13
6.097e-13
7.057e-13
8.15e-13
9.393e-13
1.08e-12
1.239e-12
1.418e-12
1.619e-12
1.847e-12
-1.826e-68
1.451e-67
-5.105e-67
1.099e-66
-1.538e-66
1.42e-66
-8.041e-67
1.765e-67
8.856e-68
-8.93e-68
5.824e-67
-8.109e-66
1.096e-64
-1.503e-63
1.965e-62
-2.46e-61
2.984e-60
-3.537e-59
4.121e-58
-4.728e-57
5.357e-56
-5.986e-55
6.591e-54
-7.134e-53
7.571e-52
-7.844e-51
7.921e-50
-7.666e-49
7.27e-48
-6.822e-47
6.314e-46
-5.751e-45
5.143e-44
-4.502e-43
3.847e-42
-3.2e-41
2.583e-40
-2.018e-39
1.521e-38
-1.102e-37
7.66e-37
-5.087e-36
3.216e-35
-1.928e-34
1.092e-33
-5.796e-33
2.868e-32
-1.308e-31
5.402e-31
-1.946e-30
5.981e-30
-1.21e-29
-1.18e-29
3.58e-28
-1.627e-27
1.103e-26
-5.902e-27
1.305e-25
8.457e-25
2.382e-24
1.851e-23
8.168e-23
5.295e-22
2.211e-21
5.551e-21
3.062e-20
8.97e-20
2.26e-19
9.504e-19
2.455e-18
4.948e-18
8.991e-18
1.552e-17
2.572e-17
4.116e-17
6.386e-17
9.638e-17
1.42e-16
2.046e-16
2.891e-16
4.014e-16
5.485e-16
7.388e-16
9.825e-16
1.291e-15
1.68e-15
2.166e-15
2.769e-15
3.513e-15
4.428e-15
5.548e-15
6.913e-15
8.572e-15
1.058e-14
1.3e-14
1.592e-14
1.942e-14
2.361e-14
2.862e-14
3.457e-14
4.165e-14
5.002e-14
5.992e-14
7.159e-14
8.532e-14
1.014e-13
1.203e-13
1.423e-13
1.679e-13
1.978e-13
2.324e-13
2.725e-13
3.188e-13
3.723e-13
4.338e-13
5.045e-13
5.855e-13
6.782e-13
7.84e-13
9.047e-13
1.042e-12
1.198e-12
1.375e-12
1.574e-12
1.8e-12
2.053e-12
2.342e-12
2.712e-12
2.597e-67
-2.243e-66
9.762e-66
-2.808e-65
5.631e-65
-8.17e-65
8.672e-65
-6.581e-65
3.276e-65
-9.416e-66
3.054e-65
-3.847e-64
4.87e-63
-6.485e-62
8.238e-61
-1.003e-59
1.186e-58
-1.375e-57
1.573e-56
-1.777e-55
1.989e-54
-2.2e-53
2.401e-52
-2.581e-51
2.723e-50
-2.81e-49
2.83e-48
-2.742e-47
2.609e-46
-2.454e-45
2.274e-44
-2.073e-43
1.855e-42
-1.624e-41
1.387e-40
-1.153e-39
9.306e-39
-7.267e-38
5.475e-37
-3.969e-36
2.76e-35
-1.835e-34
1.163e-33
-7e-33
3.99e-32
-2.136e-31
1.072e-30
-4.992e-30
2.132e-29
-8.166e-29
2.672e-28
-8.312e-28
8.808e-28
8.492e-27
-3.913e-26
4.513e-25
5.525e-25
8.198e-24
3.924e-23
1.57e-22
1.005e-21
4.536e-21
2.61e-20
9.345e-20
2.526e-19
1.034e-18
2.846e-18
6.142e-18
1.199e-17
2.195e-17
3.82e-17
6.37e-17
1.023e-16
1.588e-16
2.391e-16
3.501e-16
5e-16
6.977e-16
9.536e-16
1.279e-15
1.688e-15
2.195e-15
2.816e-15
3.572e-15
4.486e-15
5.584e-15
6.899e-15
8.469e-15
1.034e-14
1.256e-14
1.519e-14
1.831e-14
2.2e-14
2.636e-14
3.151e-14
3.759e-14
4.474e-14
5.316e-14
6.305e-14
7.466e-14
8.826e-14
1.042e-13
1.228e-13
1.444e-13
1.697e-13
1.991e-13
2.331e-13
2.726e-13
3.183e-13
3.71e-13
4.318e-13
5.018e-13
5.821e-13
6.742e-13
7.797e-13
9.002e-13
1.038e-12
1.194e-12
1.372e-12
1.574e-12
1.802e-12
2.06e-12
2.351e-12
2.679e-12
3.047e-12
3.46e-12
3.928e-12
4.573e-12
-3.402e-66
3.101e-65
-1.565e-64
5.529e-64
-1.426e-63
2.778e-63
-4.17e-63
4.832e-63
-4.224e-63
2.575e-63
6.175e-64
-1.695e-62
1.95e-61
-2.471e-60
2.995e-59
-3.485e-58
3.957e-57
-4.439e-56
4.946e-55
-5.464e-54
6.021e-53
-6.581e-52
7.114e-51
-7.591e-50
7.969e-49
-8.199e-48
8.247e-47
-8.023e-46
7.683e-45
-7.263e-44
6.755e-43
-6.173e-42
5.534e-41
-4.853e-40
4.153e-39
-3.458e-38
2.794e-37
-2.185e-36
1.65e-35
-1.199e-34
8.359e-34
-5.58e-33
3.555e-32
-2.155e-31
1.241e-30
-6.719e-30
3.433e-29
-1.639e-28
7.274e-28
-2.956e-27
1.083e-26
-3.302e-26
8.692e-26
3.137e-26
-9.27e-26
1.583e-23
4.002e-23
4.789e-22
2.171e-21
8.967e-21
4.972e-20
2.126e-19
9.77e-19
2.988e-18
7.223e-18
1.566e-17
3.156e-17
5.995e-17
1.081e-16
1.858e-16
3.059e-16
4.84e-16
7.379e-16
1.088e-15
1.554e-15
2.159e-15
2.923e-15
3.869e-15
5.017e-15
6.388e-15
8.006e-15
9.895e-15
1.209e-14
1.461e-14
1.752e-14
2.086e-14
2.468e-14
2.908e-14
3.413e-14
3.995e-14
4.665e-14
5.438e-14
6.331e-14
7.363e-14
8.559e-14
9.943e-14
1.155e-13
1.341e-13
1.556e-13
1.805e-13
2.094e-13
2.428e-13
2.815e-13
3.261e-13
3.776e-13
4.37e-13
5.053e-13
5.839e-13
6.741e-13
7.775e-13
8.96e-13
1.031e-12
1.186e-12
1.362e-12
1.563e-12
1.791e-12
2.05e-12
2.343e-12
2.674e-12
3.048e-12
3.47e-12
3.944e-12
4.476e-12
5.072e-12
5.739e-12
6.484e-12
7.319e-12
8.528e-12
4.227e-65
-3.996e-64
2.245e-63
-9.266e-63
2.897e-62
-7.061e-62
1.368e-61
-2.119e-61
2.601e-61
-2.459e-61
1.958e-61
-7.004e-61
6.787e-60
-7.868e-59
8.815e-58
-9.5e-57
1.01e-55
-1.077e-54
1.159e-53
-1.243e-52
1.352e-51
-1.466e-50
1.576e-49
-1.678e-48
1.761e-47
-1.816e-46
1.835e-45
-1.804e-44
1.75e-43
-1.672e-42
1.566e-41
-1.439e-40
1.297e-39
-1.143e-38
9.826e-38
-8.217e-37
6.673e-36
-5.246e-35
3.982e-34
-2.911e-33
2.044e-32
-1.375e-31
8.844e-31
-5.42e-30
3.17e-29
-1.735e-28
9.051e-28
-4.432e-27
2.045e-26
-8.779e-26
3.523e-25
-1.229e-24
4.368e-24
-4.806e-24
4.456e-23
4.855e-22
3.062e-21
2.528e-20
1.097e-19
4.171e-19
1.934e-18
6.309e-18
1.649e-17
3.873e-17
8.43e-17
1.718e-16
3.295e-16
5.981e-16
1.031e-15
1.692e-15
2.656e-15
3.998e-15
5.793e-15
8.105e-15
1.098e-14
1.446e-14
1.855e-14
2.326e-14
2.859e-14
3.451e-14
4.105e-14
4.82e-14
5.6e-14
6.45e-14
7.38e-14
8.398e-14
9.52e-14
1.076e-13
1.215e-13
1.369e-13
1.543e-13
1.74e-13
1.962e-13
2.216e-13
2.504e-13
2.833e-13
3.21e-13
3.642e-13
4.136e-13
4.703e-13
5.352e-13
6.097e-13
6.95e-13
7.928e-13
9.047e-13
1.033e-12
1.179e-12
1.346e-12
1.537e-12
1.754e-12
2.001e-12
2.281e-12
2.6e-12
2.961e-12
3.37e-12
3.833e-12
4.354e-12
4.943e-12
5.604e-12
6.348e-12
7.182e-12
8.115e-12
9.159e-12
1.032e-11
1.162e-11
1.306e-11
1.466e-11
1.705e-11
-5.055e-64
4.896e-63
-2.981e-62
1.39e-61
-5.072e-61
1.482e-60
-3.528e-60
6.889e-60
-1.095e-59
1.37e-59
-1.151e-59
-1.547e-59
1.852e-58
-1.82e-57
1.744e-56
-1.591e-55
1.461e-54
-1.428e-53
1.483e-52
-1.52e-51
1.727e-50
-1.94e-49
2.138e-48
-2.339e-47
2.52e-46
-2.66e-45
2.753e-44
-2.779e-43
2.785e-42
-2.731e-41
2.603e-40
-2.409e-39
2.194e-38
-1.955e-37
1.7e-36
-1.437e-35
1.181e-34
-9.398e-34
7.232e-33
-5.36e-32
3.82e-31
-2.611e-30
1.709e-29
-1.067e-28
6.394e-28
-3.512e-27
1.871e-26
-9.309e-26
4.443e-25
-1.986e-24
8.62e-24
-3.163e-23
1.477e-22
-4.204e-23
2.942e-21
2.573e-20
1.653e-19
9.791e-19
3.836e-18
1.209e-17
3.413e-17
8.863e-17
2.134e-16
4.786e-16
1.003e-15
1.969e-15
3.633e-15
6.327e-15
1.043e-14
1.634e-14
2.443e-14
3.495e-14
4.806e-14
6.374e-14
8.181e-14
1.019e-13
1.238e-13
1.469e-13
1.709e-13
1.955e-13
2.206e-13
2.46e-13
2.718e-13
2.983e-13
3.258e-13
3.545e-13
3.85e-13
4.178e-13
4.535e-13
4.927e-13
5.362e-13
5.848e-13
6.393e-13
7.008e-13
7.705e-13
8.495e-13
9.392e-13
1.041e-12
1.158e-12
1.29e-12
1.441e-12
1.612e-12
1.808e-12
2.031e-12
2.284e-12
2.572e-12
2.899e-12
3.27e-12
3.691e-12
4.167e-12
4.707e-12
5.317e-12
6.005e-12
6.781e-12
7.656e-12
8.639e-12
9.744e-12
1.098e-11
1.237e-11
1.392e-11
1.566e-11
1.759e-11
1.973e-11
2.212e-11
2.477e-11
2.77e-11
3.091e-11
3.583e-11
5.845e-63
-5.757e-62
3.731e-61
-1.919e-60
7.954e-60
-2.707e-59
7.675e-59
-1.825e-58
3.62e-58
-5.867e-58
7.545e-58
-8.679e-58
2.687e-57
-1.324e-56
1.976e-56
1.592e-54
-1.558e-53
1.689e-52
-1.511e-51
1.708e-50
-8.314e-50
2.8e-49
2.394e-48
-7.332e-47
1.181e-45
-1.557e-44
1.902e-43
-2.041e-42
2.219e-41
-2.286e-40
2.27e-39
-2.212e-38
2.094e-37
-1.933e-36
1.74e-35
-1.517e-34
1.3e-33
-1.074e-32
8.605e-32
-6.618e-31
4.891e-30
-3.469e-29
2.356e-28
-1.528e-27
9.533e-27
-5.236e-26
2.882e-25
-1.4e-24
6.856e-24
-3.061e-23
1.44e-22
-3.389e-22
3.485e-21
5.946e-21
1.311e-19
1.036e-18
4.759e-18
1.748e-17
5.712e-17
1.706e-16
4.692e-16
1.192e-15
2.802e-15
6.114e-15
1.241e-14
2.35e-14
4.168e-14
6.951e-14
1.094e-13
1.633e-13
2.32e-13
3.149e-13
4.103e-13
5.149e-13
6.251e-13
7.364e-13
8.455e-13
9.489e-13
1.045e-12
1.132e-12
1.211e-12
1.284e-12
1.35e-12
1.412e-12
1.473e-12
1.534e-12
1.598e-12
1.666e-12
1.741e-12
1.825e-12
1.919e-12
2.026e-12
2.149e-12
2.289e-12
2.45e-12
2.634e-12
2.844e-12
3.083e-12
3.357e-12
3.668e-12
4.022e-12
4.424e-12
4.882e-12
5.4e-12
5.987e-12
6.652e-12
7.404e-12
8.254e-12
9.213e-12
1.029e-11
1.151e-11
1.288e-11
1.442e-11
1.615e-11
1.808e-11
2.025e-11
2.267e-11
2.538e-11
2.839e-11
3.175e-11
3.549e-11
3.963e-11
4.422e-11
4.929e-11
5.49e-11
6.108e-11
6.778e-11
7.825e-11
-6.531e-62
6.508e-61
-4.429e-60
2.47e-59
-1.141e-58
4.429e-58
-1.463e-57
4.138e-57
-9.975e-57
2.004e-56
-3.133e-56
3.749e-56
-7.377e-56
1.049e-54
-1.299e-53
1.396e-52
-1.355e-51
1.241e-50
-1.092e-49
9.31e-49
-7.732e-48
6.265e-47
-4.953e-46
3.808e-45
-2.828e-44
2.025e-43
-1.267e-42
1.108e-41
-6.235e-41
1.816e-40
4.628e-40
-2.085e-38
3.018e-37
-3.644e-36
4.009e-35
-4.009e-34
4.149e-33
-3.857e-32
3.564e-31
-2.972e-30
2.338e-29
-1.746e-28
1.24e-27
-8.38e-27
5.331e-26
-3.213e-25
1.883e-24
-1.032e-23
5.711e-23
-2.485e-22
1.805e-21
2.866e-21
7.701e-20
5.446e-19
3.838e-18
1.848e-17
7.27e-17
2.564e-16
8.258e-16
2.438e-15
6.608e-15
1.647e-14
3.78e-14
8.011e-14
1.571e-13
2.863e-13
4.868e-13
7.756e-13
1.163e-12
1.65e-12
2.222e-12
2.857e-12
3.52e-12
4.176e-12
4.789e-12
5.325e-12
5.781e-12
6.129e-12
6.383e-12
6.556e-12
6.66e-12
6.716e-12
6.724e-12
6.715e-12
6.7e-12
6.684e-12
6.688e-12
6.709e-12
6.757e-12
6.84e-12
6.961e-12
7.127e-12
7.343e-12
7.612e-12
7.939e-12
8.33e-12
8.792e-12
9.332e-12
9.958e-12
1.068e-11
1.151e-11
1.245e-11
1.352e-11
1.474e-11
1.612e-11
1.768e-11
1.944e-11
2.143e-11
2.366e-11
2.616e-11
2.897e-11
3.212e-11
3.565e-11
3.959e-11
4.398e-11
4.888e-11
5.434e-11
6.041e-11
6.714e-11
7.461e-11
8.288e-11
9.201e-11
1.021e-10
1.132e-10
1.254e-10
1.388e-10
1.532e-10
1.761e-10
7.015e-61
-7.042e-60
4.986e-59
-2.976e-58
1.509e-57
-6.58e-57
2.492e-56
-8.252e-56
2.384e-55
-5.903e-55
1.18e-54
-9.85e-55
-4.702e-54
5.145e-53
-4.037e-52
3.447e-51
-2.909e-50
2.417e-49
-1.978e-48
1.602e-47
-1.284e-46
1.022e-45
-8.08e-45
6.339e-44
-4.927e-43
3.799e-42
-2.921e-41
2.283e-40
-1.791e-39
1.44e-38
-1.186e-37
9.824e-37
-8.684e-36
7.573e-35
-6.242e-34
4.995e-33
-3.734e-32
2.801e-31
-1.983e-30
1.375e-29
-9.049e-29
5.613e-28
-3.251e-27
1.684e-26
-1.164e-25
3.306e-25
-7.043e-25
-8.159e-25
1.002e-22
2.766e-22
3.418e-20
2.934e-19
2.49e-18
1.413e-17
6.62e-17
2.791e-16
1.073e-15
3.766e-15
1.206e-14
3.528e-14
9.421e-14
2.3e-13
5.144e-13
1.056e-12
1.996e-12
3.49e-12
5.673e-12
8.61e-12
1.227e-11
1.649e-11
2.103e-11
2.555e-11
2.974e-11
3.329e-11
3.601e-11
3.773e-11
3.879e-11
3.871e-11
3.823e-11
3.731e-11
3.605e-11
3.46e-11
3.308e-11
3.158e-11
3.017e-11
2.89e-11
2.779e-11
2.687e-11
2.614e-11
2.561e-11
2.527e-11
2.513e-11
2.522e-11
2.546e-11
2.591e-11
2.658e-11
2.746e-11
2.857e-11
2.992e-11
3.152e-11
3.34e-11
3.557e-11
3.808e-11
4.094e-11
4.419e-11
4.787e-11
5.203e-11
5.671e-11
6.196e-11
6.786e-11
7.445e-11
8.181e-11
9.002e-11
9.917e-11
1.093e-10
1.206e-10
1.332e-10
1.47e-10
1.624e-10
1.793e-10
1.98e-10
2.186e-10
2.412e-10
2.66e-10
2.932e-10
3.23e-10
3.547e-10
4.054e-10
-7.172e-60
7.226e-59
-5.282e-58
3.341e-57
-1.839e-56
8.892e-56
-3.813e-55
1.459e-54
-4.991e-54
1.516e-53
-4.012e-53
8.941e-53
-1.635e-52
5.344e-52
-2.623e-51
3.25e-50
-2.851e-49
2.22e-48
-1.672e-47
1.272e-46
-9.693e-46
7.441e-45
-5.831e-44
4.54e-43
-3.412e-42
2.394e-41
-1.496e-40
9.078e-40
-1.937e-39
-1.593e-38
3.241e-37
-3.659e-36
3.144e-35
-2.441e-34
1.857e-33
-1.237e-32
7.223e-32
-2.621e-31
-3.247e-31
1.93e-29
-2.603e-28
2.647e-27
-2.321e-26
1.844e-25
-1.364e-24
9.341e-24
-5.898e-23
4.389e-22
-9.219e-22
8.727e-20
1.03e-18
7.047e-18
3.999e-17
2.046e-16
9.543e-16
4.057e-15
1.569e-14
5.513e-14
1.758e-13
5.088e-13
1.336e-12
3.19e-12
6.931e-12
1.375e-11
2.496e-11
4.175e-11
6.464e-11
9.318e-11
1.258e-10
1.599e-10
1.927e-10
2.209e-10
2.423e-10
2.556e-10
2.598e-10
2.569e-10
2.491e-10
2.37e-10
2.22e-10
2.056e-10
1.89e-10
1.73e-10
1.581e-10
1.445e-10
1.326e-10
1.222e-10
1.133e-10
1.058e-10
9.969e-11
9.472e-11
9.082e-11
8.791e-11
8.593e-11
8.465e-11
8.442e-11
8.481e-11
8.588e-11
8.769e-11
9.022e-11
9.351e-11
9.756e-11
1.024e-10
1.081e-10
1.148e-10
1.224e-10
1.311e-10
1.409e-10
1.52e-10
1.644e-10
1.784e-10
1.94e-10
2.114e-10
2.307e-10
2.522e-10
2.761e-10
3.025e-10
3.316e-10
3.638e-10
3.993e-10
4.384e-10
4.813e-10
5.283e-10
5.799e-10
6.363e-10
6.977e-10
7.65e-10
8.358e-10
9.501e-10
6.867e-59
-6.921e-58
5.19e-57
-3.451e-56
2.041e-55
-1.083e-54
5.202e-54
-2.274e-53
9.072e-53
-3.291e-52
1.066e-51
-2.922e-51
5.69e-51
7.315e-51
-4.967e-50
5.517e-49
-2.238e-48
1.222e-48
6.871e-47
-7.816e-46
5.647e-45
-2.683e-44
3.83e-45
1.889e-42
-3.048e-41
3.55e-40
-3.514e-39
3.029e-38
-2.363e-37
1.728e-36
-1.16e-35
6.947e-35
-3.471e-34
9.269e-34
6.261e-33
-1.468e-31
1.8e-30
-1.797e-29
1.601e-28
-1.316e-27
1.016e-26
-7.413e-26
5.165e-25
-3.424e-24
2.18e-23
-1.299e-22
8.459e-22
-2.572e-21
1.545e-19
2.002e-18
1.508e-17
9.539e-17
5.456e-16
2.844e-15
1.348e-14
5.797e-14
2.256e-13
7.928e-13
2.514e-12
7.187e-12
1.853e-11
4.313e-11
9.079e-11
1.734e-10
3.014e-10
4.802e-10
7.06e-10
9.635e-10
1.229e-09
1.473e-09
1.678e-09
1.808e-09
1.863e-09
1.84e-09
1.772e-09
1.663e-09
1.526e-09
1.375e-09
1.224e-09
1.079e-09
9.459e-10
8.276e-10
7.246e-10
6.365e-10
5.62e-10
4.997e-10
4.481e-10
4.055e-10
3.707e-10
3.426e-10
3.2e-10
3.023e-10
2.887e-10
2.786e-10
2.718e-10
2.676e-10
2.667e-10
2.679e-10
2.713e-10
2.769e-10
2.849e-10
2.951e-10
3.077e-10
3.227e-10
3.403e-10
3.605e-10
3.837e-10
4.099e-10
4.395e-10
4.727e-10
5.098e-10
5.511e-10
5.97e-10
6.479e-10
7.043e-10
7.664e-10
8.35e-10
9.104e-10
9.933e-10
1.084e-09
1.184e-09
1.293e-09
1.411e-09
1.541e-09
1.682e-09
1.835e-09
1.996e-09
2.256e-09
-6.013e-58
6.04e-57
-4.621e-56
3.205e-55
-2.02e-54
1.165e-53
-6.202e-53
3.066e-52
-1.416e-51
6.125e-51
-2.472e-50
9.159e-50
-2.95e-49
7.26e-49
2.884e-48
-2.651e-47
2.436e-46
-1.975e-45
1.476e-44
-1.061e-43
7.444e-43
-5.118e-42
3.445e-41
-2.257e-40
1.421e-39
-8.293e-39
4.29e-38
-1.7e-37
8.743e-38
8.275e-36
-1.276e-34
1.419e-33
-1.374e-32
1.225e-31
-1.03e-30
8.254e-30
-6.353e-29
4.712e-28
-3.375e-27
2.337e-26
-1.565e-25
1.015e-24
-6.337e-24
3.858e-23
-2.215e-22
1.359e-21
-4.85e-21
2.273e-19
3.248e-18
2.705e-17
1.913e-16
1.228e-15
7.187e-15
3.823e-14
1.842e-13
8.007e-13
3.132e-12
1.1e-11
3.462e-11
9.761e-11
2.464e-10
5.578e-10
1.134e-09
2.077e-09
3.44e-09
5.203e-09
7.235e-09
9.32e-09
1.121e-08
1.264e-08
1.363e-08
1.358e-08
1.32e-08
1.24e-08
1.129e-08
1.002e-08
8.714e-09
7.461e-09
6.32e-09
5.318e-09
4.461e-09
3.743e-09
3.151e-09
2.667e-09
2.275e-09
1.958e-09
1.703e-09
1.498e-09
1.334e-09
1.202e-09
1.097e-09
1.014e-09
9.489e-10
8.986e-10
8.61e-10
8.341e-10
8.171e-10
8.069e-10
8.079e-10
8.141e-10
8.27e-10
8.465e-10
8.726e-10
9.054e-10
9.45e-10
9.917e-10
1.046e-09
1.108e-09
1.178e-09
1.256e-09
1.345e-09
1.443e-09
1.552e-09
1.673e-09
1.807e-09
1.954e-09
2.116e-09
2.294e-09
2.489e-09
2.702e-09
2.934e-09
3.188e-09
3.464e-09
3.764e-09
4.089e-09
4.442e-09
4.809e-09
5.407e-09
4.645e-57
-4.635e-56
3.597e-55
-2.584e-54
1.718e-53
-1.065e-52
6.198e-52
-3.412e-51
1.79e-50
-9.01e-50
4.384e-49
-2.077e-48
9.654e-48
-4.456e-47
2.078e-46
-1.002e-45
5.119e-45
-2.831e-44
1.687e-43
-1.072e-42
7.148e-42
-4.95e-41
3.56e-40
-2.672e-39
2.101e-38
-1.732e-37
1.441e-36
-1.179e-35
9.494e-35
-7.507e-34
5.822e-33
-4.426e-32
3.298e-31
-2.407e-30
1.721e-29
-1.204e-28
8.245e-28
-5.521e-27
3.612e-26
-2.306e-25
1.437e-24
-8.698e-24
5.191e-23
-2.931e-22
1.756e-21
-6.755e-21
2.731e-19
4.309e-18
3.974e-17
3.148e-16
2.273e-15
1.499e-14
8.994e-14
4.883e-13
2.389e-12
1.049e-11
4.119e-11
1.443e-10
4.502e-10
1.249e-09
3.079e-09
6.754e-09
1.32e-08
2.309e-08
3.63e-08
5.186e-08
6.796e-08
8.242e-08
9.313e-08
9.921e-08
9.805e-08
9.364e-08
8.601e-08
7.629e-08
6.572e-08
5.531e-08
4.572e-08
3.731e-08
3.02e-08
2.434e-08
1.961e-08
1.585e-08
1.288e-08
1.054e-08
8.721e-09
7.294e-09
6.177e-09
5.3e-09
4.61e-09
4.067e-09
3.638e-09
3.299e-09
3.033e-09
2.826e-09
2.666e-09
2.546e-09
2.459e-09
2.402e-09
2.365e-09
2.362e-09
2.374e-09
2.405e-09
2.455e-09
2.523e-09
2.61e-09
2.715e-09
2.84e-09
2.984e-09
3.149e-09
3.335e-09
3.545e-09
3.779e-09
4.039e-09
4.327e-09
4.644e-09
4.994e-09
5.377e-09
5.798e-09
6.257e-09
6.758e-09
7.304e-09
7.898e-09
8.542e-09
9.24e-09
9.993e-09
1.081e-08
1.166e-08
1.303e-08
-3.02e-56
2.988e-55
-2.341e-54
1.727e-53
-1.199e-52
7.867e-52
-4.912e-51
2.939e-50
-1.696e-49
9.507e-49
-5.203e-48
2.792e-47
-1.473e-46
7.643e-46
-3.906e-45
1.969e-44
-9.859e-44
4.938e-43
-2.592e-42
1.469e-41
-9.369e-41
6.749e-40
-5.311e-39
4.361e-38
-3.617e-37
2.998e-36
-2.369e-35
1.801e-34
-1.334e-33
9.675e-33
-6.886e-32
4.819e-31
-3.318e-30
2.248e-29
-1.499e-28
9.84e-28
-6.35e-27
4.027e-26
-2.508e-25
1.532e-24
-9.164e-24
5.409e-23
-3.004e-22
1.789e-21
-7.145e-21
2.641e-19
4.599e-18
4.696e-17
4.166e-16
3.385e-15
2.519e-14
1.708e-13
1.049e-12
5.806e-12
2.881e-11
1.276e-10
5.021e-10
1.752e-09
5.402e-09
1.47e-08
3.528e-08
7.467e-08
1.397e-07
2.322e-07
3.444e-07
4.63e-07
5.702e-07
6.496e-07
6.893e-07
6.771e-07
6.387e-07
5.765e-07
5.005e-07
4.204e-07
3.439e-07
2.756e-07
2.175e-07
1.7e-07
1.32e-07
1.024e-07
7.964e-08
6.225e-08
4.905e-08
3.904e-08
3.144e-08
2.566e-08
2.124e-08
1.785e-08
1.523e-08
1.319e-08
1.16e-08
1.036e-08
9.387e-09
8.626e-09
8.034e-09
7.58e-09
7.239e-09
6.994e-09
6.829e-09
6.729e-09
6.709e-09
6.742e-09
6.824e-09
6.957e-09
7.141e-09
7.374e-09
7.657e-09
7.991e-09
8.376e-09
8.815e-09
9.311e-09
9.866e-09
1.048e-08
1.117e-08
1.192e-08
1.275e-08
1.366e-08
1.465e-08
1.574e-08
1.692e-08
1.82e-08
1.959e-08
2.11e-08
2.273e-08
2.448e-08
2.638e-08
2.833e-08
3.152e-08
1.581e-55
-1.551e-54
1.221e-53
-9.183e-53
6.57e-52
-4.492e-51
2.95e-50
-1.875e-49
1.163e-48
-7.101e-48
4.312e-47
-2.626e-46
1.614e-45
-1.005e-44
6.34e-44
-4.042e-43
2.59e-42
-1.685e-41
1.077e-40
-6.915e-40
4.433e-39
-2.837e-38
1.81e-37
-1.155e-36
7.387e-36
-4.752e-35
3.061e-34
-1.972e-33
1.27e-32
-8.17e-32
5.242e-31
-3.35e-30
2.13e-29
-1.346e-28
8.434e-28
-5.238e-27
3.218e-26
-1.954e-25
1.171e-24
-6.909e-24
4.026e-23
-2.251e-22
1.416e-21
-5.823e-21
2.028e-19
3.894e-18
4.394e-17
4.355e-16
3.975e-15
3.335e-14
2.556e-13
1.779e-12
1.117e-11
6.288e-11
3.157e-10
1.406e-09
5.531e-09
1.915e-08
5.819e-08
1.547e-07
3.597e-07
7.31e-07
1.302e-06
2.044e-06
2.848e-06
3.589e-06
4.151e-06
4.429e-06
4.339e-06
4.063e-06
3.625e-06
3.098e-06
2.552e-06
2.042e-06
1.595e-06
1.224e-06
9.278e-07
6.98e-07
5.236e-07
3.931e-07
2.966e-07
2.254e-07
1.731e-07
1.346e-07
1.061e-07
8.486e-08
6.897e-08
5.699e-08
4.787e-08
4.088e-08
3.548e-08
3.129e-08
2.802e-08
2.547e-08
2.349e-08
2.195e-08
2.077e-08
1.989e-08
1.927e-08
1.886e-08
1.859e-08
1.859e-08
1.869e-08
1.893e-08
1.93e-08
1.981e-08
2.044e-08
2.12e-08
2.21e-08
2.313e-08
2.43e-08
2.561e-08
2.707e-08
2.869e-08
3.048e-08
3.244e-08
3.459e-08
3.694e-08
3.95e-08
4.228e-08
4.529e-08
4.856e-08
5.208e-08
5.587e-08
5.995e-08
6.436e-08
6.886e-08
7.623e-08
-6.427e-55
6.353e-54
-5.048e-53
3.844e-52
-2.796e-51
1.944e-50
-1.292e-49
8.2e-49
-4.962e-48
2.854e-47
-1.552e-46
7.901e-46
-3.683e-45
1.495e-44
-4.493e-44
5.268e-45
1.355e-42
-2.244e-41
1.335e-40
-8.965e-40
5.611e-39
-3.253e-38
1.548e-37
-5.536e-37
8.857e-38
2.589e-35
-3.256e-34
3.051e-33
-2.521e-32
1.938e-31
-1.419e-30
1.002e-29
-6.884e-29
4.618e-28
-3.034e-27
1.957e-26
-1.24e-25
7.731e-25
-4.74e-24
2.862e-23
-1.687e-22
1.034e-21
-3.771e-21
1.209e-19
2.582e-18
3.218e-17
3.551e-16
3.626e-15
3.418e-14
2.956e-13
2.329e-12
1.659e-11
1.061e-10
6.057e-10
3.065e-09
1.367e-08
5.35e-08
1.829e-07
5.443e-07
1.405e-06
3.144e-06
6.095e-06
1.028e-05
1.515e-05
1.975e-05
2.336e-05
2.535e-05
2.487e-05
2.326e-05
2.065e-05
1.749e-05
1.424e-05
1.122e-05
8.613e-06
6.475e-06
4.795e-06
3.516e-06
2.565e-06
1.87e-06
1.368e-06
1.007e-06
7.489e-07
5.637e-07
4.303e-07
3.335e-07
2.629e-07
2.107e-07
1.719e-07
1.428e-07
1.206e-07
1.037e-07
9.063e-08
8.049e-08
7.259e-08
6.643e-08
6.164e-08
5.794e-08
5.514e-08
5.307e-08
5.163e-08
5.072e-08
5.021e-08
5.031e-08
5.069e-08
5.142e-08
5.249e-08
5.389e-08
5.563e-08
5.77e-08
6.01e-08
6.284e-08
6.592e-08
6.938e-08
7.321e-08
7.743e-08
8.207e-08
8.715e-08
9.268e-08
9.87e-08
1.052e-07
1.123e-07
1.199e-07
1.282e-07
1.37e-07
1.465e-07
1.567e-07
1.671e-07
1.841e-07
2.919e-54
-2.646e-53
2.02e-52
-1.554e-51
1.193e-50
-9.086e-50
6.835e-49
-5.057e-48
3.669e-47
-2.609e-46
1.818e-45
-1.242e-44
8.338e-44
-5.509e-43
3.59e-42
-2.312e-41
1.471e-40
-9.268e-40
5.805e-39
-3.619e-38
2.247e-37
-1.391e-36
8.583e-36
-5.28e-35
3.237e-34
-1.979e-33
1.203e-32
-7.272e-32
4.372e-31
-2.614e-30
1.554e-29
-9.192e-29
5.406e-28
-3.161e-27
1.837e-26
-1.061e-25
6.092e-25
-3.474e-24
1.968e-23
-1.103e-22
6.337e-22
-2.709e-21
4.155e-20
1.291e-18
1.826e-17
2.239e-16
2.546e-15
2.683e-14
2.607e-13
2.316e-12
1.868e-11
1.357e-10
8.804e-10
5.067e-09
2.568e-08
1.139e-07
4.4e-07
1.472e-06
4.25e-06
1.055e-05
2.251e-05
4.128e-05
6.549e-05
9.009e-05
0.0001103
0.0001234
0.0001218
0.0001147
0.0001022
8.662e-05
7.036e-05
5.515e-05
4.199e-05
3.122e-05
2.28e-05
1.644e-05
1.176e-05
8.386e-06
5.987e-06
4.296e-06
3.109e-06
2.276e-06
1.689e-06
1.273e-06
9.758e-07
7.612e-07
6.048e-07
4.895e-07
4.035e-07
3.386e-07
2.893e-07
2.514e-07
2.221e-07
1.993e-07
1.815e-07
1.677e-07
1.569e-07
1.487e-07
1.425e-07
1.38e-07
1.351e-07
1.332e-07
1.328e-07
1.333e-07
1.347e-07
1.37e-07
1.401e-07
1.44e-07
1.488e-07
1.544e-07
1.608e-07
1.68e-07
1.762e-07
1.852e-07
1.951e-07
2.061e-07
2.18e-07
2.31e-07
2.451e-07
2.604e-07
2.769e-07
2.947e-07
3.139e-07
3.344e-07
3.563e-07
3.799e-07
4.037e-07
4.428e-07
8.666e-54
-8.648e-53
6.991e-52
-5.456e-51
4.096e-50
-2.961e-49
2.064e-48
-1.389e-47
9.046e-47
-5.709e-46
3.501e-45
-2.094e-44
1.225e-43
-7.043e-43
4.004e-42
-2.265e-41
1.289e-40
-7.452e-40
4.4e-39
-2.669e-38
1.668e-37
-1.073e-36
7.081e-36
-4.766e-35
3.253e-34
-2.231e-33
1.509e-32
-1.005e-31
6.596e-31
-4.279e-30
2.747e-29
-1.748e-28
1.102e-27
-6.9e-27
4.289e-26
-2.648e-25
1.625e-24
-9.909e-24
6.012e-23
-3.601e-22
2.278e-21
-7.611e-21
3.232e-19
7.727e-18
1.088e-16
1.371e-15
1.605e-14
1.741e-13
1.736e-12
1.578e-11
1.297e-10
9.557e-10
6.253e-09
3.602e-08
1.813e-07
7.914e-07
2.981e-06
9.631e-06
2.657e-05
6.251e-05
0.0001256
0.0002157
0.0003199
0.0004101
0.0004847
0.0004844
0.0004635
0.0004188
0.000359
0.0002943
0.0002324
0.0001778
0.0001325
9.663e-05
6.933e-05
4.917e-05
3.463e-05
2.435e-05
1.716e-05
1.217e-05
8.715e-06
6.321e-06
4.653e-06
3.483e-06
2.654e-06
2.06e-06
1.629e-06
1.314e-06
1.079e-06
9.033e-07
7.697e-07
6.673e-07
5.882e-07
5.267e-07
4.787e-07
4.412e-07
4.121e-07
3.896e-07
3.726e-07
3.601e-07
3.514e-07
3.461e-07
3.433e-07
3.441e-07
3.468e-07
3.516e-07
3.585e-07
3.675e-07
3.785e-07
3.915e-07
4.065e-07
4.235e-07
4.425e-07
4.637e-07
4.871e-07
5.127e-07
5.407e-07
5.711e-07
6.041e-07
6.398e-07
6.782e-07
7.195e-07
7.637e-07
8.11e-07
8.614e-07
9.155e-07
9.699e-07
1.059e-06
-3.64e-53
3.357e-52
-2.588e-51
1.993e-50
-1.521e-49
1.146e-48
-8.506e-48
6.209e-47
-4.452e-46
3.132e-45
-2.164e-44
1.468e-43
-9.785e-43
6.42e-42
-4.151e-41
2.648e-40
-1.669e-39
1.041e-38
-6.434e-38
3.943e-37
-2.4e-36
1.451e-35
-8.727e-35
5.223e-34
-3.113e-33
1.848e-32
-1.091e-31
6.417e-31
-3.76e-30
2.196e-29
-1.279e-28
7.436e-28
-4.314e-27
2.5e-26
-1.447e-25
8.371e-25
-4.843e-24
2.804e-23
-1.619e-22
9.653e-22
-4.305e-21
7.923e-20
2.62e-18
4.101e-17
5.672e-16
7.322e-15
8.805e-14
9.789e-13
9.978e-12
9.242e-11
7.703e-10
5.719e-09
3.744e-08
2.14e-07
1.057e-06
4.481e-06
1.619e-05
4.96e-05
0.0001283
0.0002811
0.0005237
0.000834
0.001149
0.0014
0.001509
0.001465
0.001351
0.001184
0.0009934
0.000802
0.0006263
0.0004751
0.0003516
0.0002549
0.0001818
0.0001282
8.979e-05
6.279e-05
4.403e-05
3.109e-05
2.219e-05
1.605e-05
1.179e-05
8.814e-06
6.711e-06
5.209e-06
4.122e-06
3.325e-06
2.734e-06
2.29e-06
1.953e-06
1.695e-06
1.495e-06
1.34e-06
1.218e-06
1.123e-06
1.049e-06
9.917e-07
9.479e-07
9.156e-07
8.927e-07
8.786e-07
8.697e-07
8.71e-07
8.764e-07
8.869e-07
9.027e-07
9.234e-07
9.49e-07
9.793e-07
1.014e-06
1.054e-06
1.099e-06
1.149e-06
1.203e-06
1.263e-06
1.328e-06
1.399e-06
1.476e-06
1.558e-06
1.647e-06
1.742e-06
1.843e-06
1.951e-06
2.066e-06
2.188e-06
2.311e-06
2.511e-06
-6.988e-53
6.868e-52
-5.546e-51
4.379e-50
-3.362e-49
2.509e-48
-1.821e-47
1.286e-46
-8.861e-46
5.962e-45
-3.928e-44
2.54e-43
-1.616e-42
1.015e-41
-6.305e-41
3.887e-40
-2.383e-39
1.456e-38
-8.884e-38
5.422e-37
-3.314e-36
2.03e-35
-1.248e-34
7.696e-34
-4.766e-33
2.956e-32
-1.827e-31
1.124e-30
-6.886e-30
4.207e-29
-2.565e-28
1.562e-27
-9.502e-27
5.781e-26
-3.52e-25
2.146e-24
-1.311e-23
8.041e-23
-4.921e-22
3.182e-21
-1.225e-20
4.371e-19
1.16e-17
1.813e-16
2.565e-15
3.392e-14
4.174e-13
4.738e-12
4.917e-11
4.617e-10
3.881e-09
2.885e-08
1.875e-07
1.052e-06
5.038e-06
2.041e-05
6.943e-05
0.0001973
0.0004686
0.0009395
0.001598
0.002357
0.003018
0.003501
0.003474
0.003294
0.002981
0.002592
0.002175
0.001764
0.001387
0.00106
0.0007898
0.0005762
0.0004132
0.0002926
0.0002057
0.0001442
0.0001014
7.183e-05
5.143e-05
3.733e-05
2.754e-05
2.067e-05
1.581e-05
1.233e-05
9.805e-06
7.948e-06
6.566e-06
5.526e-06
4.733e-06
4.124e-06
3.651e-06
3.282e-06
2.993e-06
2.767e-06
2.59e-06
2.452e-06
2.347e-06
2.27e-06
2.215e-06
2.18e-06
2.159e-06
2.161e-06
2.174e-06
2.198e-06
2.235e-06
2.284e-06
2.344e-06
2.415e-06
2.498e-06
2.591e-06
2.695e-06
2.811e-06
2.938e-06
3.077e-06
3.228e-06
3.391e-06
3.567e-06
3.756e-06
3.958e-06
4.173e-06
4.402e-06
4.645e-06
4.901e-06
5.173e-06
5.444e-06
5.883e-06
1.686e-52
-1.572e-51
1.222e-50
-9.459e-50
7.228e-49
-5.442e-48
4.029e-47
-2.93e-46
2.091e-45
-1.465e-44
1.007e-43
-6.794e-43
4.506e-42
-2.94e-41
1.889e-40
-1.196e-39
7.482e-39
-4.626e-38
2.83e-37
-1.716e-36
1.033e-35
-6.17e-35
3.666e-34
-2.167e-33
1.277e-32
-7.49e-32
4.374e-31
-2.548e-30
1.482e-29
-8.611e-29
5.005e-28
-2.913e-27
1.699e-26
-9.94e-26
5.84e-25
-3.45e-24
2.052e-23
-1.226e-22
7.622e-22
-3.486e-21
7.776e-20
2.657e-18
4.54e-17
6.97e-16
1.006e-14
1.358e-13
1.704e-12
1.968e-11
2.071e-10
1.963e-09
1.655e-08
1.225e-07
7.838e-07
4.275e-06
1.959e-05
7.465e-05
0.0002342
0.0006043
0.001295
0.002351
0.003618
0.005102
0.005998
0.006696
0.00637
0.005767
0.005199
0.0046
0.003924
0.003236
0.002588
0.002013
0.001526
0.00113
0.000822
0.0005894
0.0004189
0.0002968
0.0002108
0.0001507
0.0001089
7.983e-05
5.945e-05
4.506e-05
3.48e-05
2.74e-05
2.198e-05
1.798e-05
1.498e-05
1.271e-05
1.097e-05
9.622e-06
8.574e-06
7.753e-06
7.108e-06