/*--------------------------------*- C++ -*----------------------------------*\
  =========                 |
  \\      /  F ield         | OpenFOAM: The Open Source CFD Toolbox
   \\    /   O peration     | Website:  https://openfoam.org
    \\  /    A nd           | Version:  7
     \\/     M anipulation  |
\*---------------------------------------------------------------------------*/
FoamFile
{
    version     2.0;
    format      ascii;
    class       volScalarField;
    location    "2459.99947344194379";
    object      p;
}
// * * * * * * * * * * * * * * * * * * * * * * * * * * * * * * * * * * * * * //

dimensions      [0 2 -2 0 0 0 0];

internalField   nonuniform List<scalar> 
4096
(
0.0005521
0.0003812
0.0002969
0.0002548
0.0002314
0.0002175
0.0002085
0.0002025
0.0001981
0.0001948
0.0001922
0.0001902
0.0001886
0.0001872
0.000186
0.000185
0.0001841
0.0001833
0.0001826
0.0001819
0.0001813
0.0001808
0.0001802
0.0001797
0.0001792
0.0001787
0.0001782
0.0001778
0.0001773
0.0001768
0.0001764
0.0001759
0.0001754
0.0001749
0.0001744
0.0001739
0.0001733
0.0001727
0.0001721
0.0001714
0.0001706
0.0001698
0.0001689
0.0001679
0.0001667
0.0001655
0.000164
0.0001624
0.0001606
0.0001586
0.0001564
0.0001538
0.0001511
0.000148
0.0001446
0.0001409
0.0001369
0.0001326
0.000128
0.0001232
0.0001181
0.0001128
0.0001074
0.0001019
9.636e-05
9.081e-05
8.533e-05
7.995e-05
7.473e-05
6.969e-05
6.486e-05
6.028e-05
5.596e-05
5.192e-05
4.815e-05
4.466e-05
4.146e-05
3.852e-05
3.584e-05
3.341e-05
3.121e-05
2.923e-05
2.745e-05
2.585e-05
2.441e-05
2.312e-05
2.196e-05
2.091e-05
1.997e-05
1.911e-05
1.832e-05
1.76e-05
1.694e-05
1.631e-05
1.573e-05
1.517e-05
1.464e-05
1.413e-05
1.363e-05
1.315e-05
1.268e-05
1.221e-05
1.175e-05
1.129e-05
1.083e-05
1.038e-05
9.921e-06
9.465e-06
9.007e-06
8.549e-06
8.088e-06
7.626e-06
7.161e-06
6.694e-06
6.224e-06
5.751e-06
5.276e-06
4.798e-06
4.318e-06
3.835e-06
3.35e-06
2.862e-06
2.374e-06
1.887e-06
1.403e-06
9.272e-07
4.721e-07
1.031e-07
0.0004076
0.0003439
0.0002941
0.000262
0.0002411
0.0002268
0.0002167
0.0002094
0.0002039
0.0001997
0.0001964
0.0001937
0.0001915
0.0001897
0.0001881
0.0001868
0.0001857
0.0001846
0.0001837
0.0001829
0.0001821
0.0001814
0.0001807
0.0001801
0.0001795
0.0001789
0.0001783
0.0001777
0.0001772
0.0001766
0.000176
0.0001755
0.0001749
0.0001743
0.0001737
0.0001731
0.0001724
0.0001717
0.000171
0.0001702
0.0001693
0.0001684
0.0001674
0.0001662
0.000165
0.0001636
0.0001621
0.0001604
0.0001586
0.0001565
0.0001542
0.0001517
0.0001489
0.0001458
0.0001425
0.0001389
0.000135
0.0001309
0.0001265
0.0001218
0.000117
0.000112
0.0001068
0.0001016
9.631e-05
9.104e-05
8.583e-05
8.071e-05
7.572e-05
7.09e-05
6.628e-05
6.188e-05
5.771e-05
5.379e-05
5.012e-05
4.67e-05
4.354e-05
4.063e-05
3.795e-05
3.551e-05
3.328e-05
3.125e-05
2.941e-05
2.774e-05
2.622e-05
2.485e-05
2.36e-05
2.246e-05
2.143e-05
2.048e-05
1.96e-05
1.879e-05
1.804e-05
1.733e-05
1.666e-05
1.603e-05
1.543e-05
1.485e-05
1.429e-05
1.375e-05
1.322e-05
1.271e-05
1.22e-05
1.17e-05
1.12e-05
1.071e-05
1.022e-05
9.732e-06
9.248e-06
8.764e-06
8.281e-06
7.798e-06
7.315e-06
6.831e-06
6.347e-06
5.861e-06
5.375e-06
4.887e-06
4.399e-06
3.909e-06
3.418e-06
2.927e-06
2.437e-06
1.948e-06
1.462e-06
9.842e-07
5.195e-07
1.227e-07
0.0003241
0.0003025
0.000277
0.0002563
0.0002407
0.000229
0.00022
0.000213
0.0002074
0.000203
0.0001993
0.0001963
0.0001938
0.0001917
0.0001899
0.0001884
0.000187
0.0001858
0.0001847
0.0001837
0.0001828
0.000182
0.0001812
0.0001804
0.0001797
0.000179
0.0001784
0.0001777
0.000177
0.0001764
0.0001757
0.0001751
0.0001744
0.0001737
0.000173
0.0001723
0.0001715
0.0001708
0.0001699
0.000169
0.0001681
0.000167
0.0001659
0.0001647
0.0001634
0.0001619
0.0001603
0.0001586
0.0001566
0.0001545
0.0001522
0.0001497
0.0001469
0.0001439
0.0001407
0.0001371
0.0001334
0.0001294
0.0001251
0.0001207
0.000116
0.0001112
0.0001063
0.0001013
9.625e-05
9.122e-05
8.624e-05
8.134e-05
7.657e-05
7.196e-05
6.751e-05
6.327e-05
5.924e-05
5.544e-05
5.187e-05
4.852e-05
4.541e-05
4.253e-05
3.987e-05
3.742e-05
3.517e-05
3.311e-05
3.122e-05
2.949e-05
2.792e-05
2.647e-05
2.515e-05
2.394e-05
2.282e-05
2.179e-05
2.083e-05
1.994e-05
1.91e-05
1.832e-05
1.758e-05
1.688e-05
1.621e-05
1.557e-05
1.495e-05
1.435e-05
1.377e-05
1.32e-05
1.265e-05
1.21e-05
1.157e-05
1.104e-05
1.052e-05
1e-05
9.492e-06
8.983e-06
8.478e-06
7.974e-06
7.473e-06
6.973e-06
6.473e-06
5.975e-06
5.477e-06
4.98e-06
4.482e-06
3.985e-06
3.488e-06
2.992e-06
2.496e-06
2.002e-06
1.511e-06
1.024e-06
5.444e-07
1.259e-07
0.0002794
0.0002724
0.000259
0.0002458
0.000235
0.0002262
0.0002191
0.0002132
0.0002083
0.0002042
0.0002007
0.0001977
0.0001952
0.000193
0.0001911
0.0001895
0.000188
0.0001867
0.0001855
0.0001844
0.0001834
0.0001824
0.0001815
0.0001807
0.0001799
0.0001791
0.0001784
0.0001776
0.0001769
0.0001762
0.0001754
0.0001747
0.000174
0.0001732
0.0001724
0.0001716
0.0001708
0.0001699
0.000169
0.000168
0.000167
0.0001658
0.0001646
0.0001634
0.000162
0.0001605
0.0001588
0.000157
0.0001551
0.0001529
0.0001506
0.0001481
0.0001454
0.0001424
0.0001392
0.0001358
0.0001321
0.0001282
0.0001241
0.0001197
0.0001153
0.0001106
0.0001059
0.000101
9.618e-05
9.133e-05
8.653e-05
8.182e-05
7.721e-05
7.275e-05
6.846e-05
6.435e-05
6.044e-05
5.674e-05
5.326e-05
4.998e-05
4.693e-05
4.408e-05
4.144e-05
3.9e-05
3.674e-05
3.466e-05
3.274e-05
3.098e-05
2.936e-05
2.786e-05
2.648e-05
2.521e-05
2.403e-05
2.293e-05
2.191e-05
2.095e-05
2.005e-05
1.921e-05
1.84e-05
1.764e-05
1.691e-05
1.622e-05
1.555e-05
1.49e-05
1.427e-05
1.366e-05
1.306e-05
1.248e-05
1.191e-05
1.135e-05
1.08e-05
1.026e-05
9.72e-06
9.189e-06
8.663e-06
8.14e-06
7.622e-06
7.107e-06
6.594e-06
6.083e-06
5.574e-06
5.067e-06
4.561e-06
4.056e-06
3.552e-06
3.049e-06
2.547e-06
2.047e-06
1.547e-06
1.05e-06
5.557e-07
1.233e-07
0.0002525
0.0002515
0.0002446
0.000236
0.0002282
0.0002216
0.0002161
0.0002114
0.0002074
0.0002038
0.0002008
0.0001981
0.0001957
0.0001936
0.0001917
0.0001901
0.0001886
0.0001872
0.000186
0.0001848
0.0001837
0.0001827
0.0001818
0.0001809
0.00018
0.0001792
0.0001784
0.0001776
0.0001768
0.000176
0.0001752
0.0001744
0.0001736
0.0001727
0.0001719
0.000171
0.0001701
0.0001692
0.0001682
0.0001671
0.000166
0.0001648
0.0001636
0.0001622
0.0001608
0.0001592
0.0001576
0.0001557
0.0001538
0.0001516
0.0001493
0.0001468
0.0001441
0.0001412
0.0001381
0.0001347
0.0001311
0.0001273
0.0001233
0.0001191
0.0001147
0.0001102
0.0001055
0.0001008
9.611e-05
9.14e-05
8.673e-05
8.215e-05
7.768e-05
7.334e-05
6.917e-05
6.517e-05
6.136e-05
5.775e-05
5.434e-05
5.113e-05
4.812e-05
4.532e-05
4.27e-05
4.027e-05
3.802e-05
3.593e-05
3.4e-05
3.222e-05
3.056e-05
2.903e-05
2.761e-05
2.629e-05
2.506e-05
2.391e-05
2.284e-05
2.183e-05
2.088e-05
1.998e-05
1.912e-05
1.831e-05
1.753e-05
1.679e-05
1.607e-05
1.538e-05
1.472e-05
1.407e-05
1.344e-05
1.282e-05
1.222e-05
1.163e-05
1.105e-05
1.049e-05
9.927e-06
9.376e-06
8.831e-06
8.292e-06
7.758e-06
7.229e-06
6.704e-06
6.182e-06
5.663e-06
5.147e-06
4.633e-06
4.12e-06
3.61e-06
3.1e-06
2.591e-06
2.083e-06
1.576e-06
1.069e-06
5.626e-07
1.203e-07
0.0002352
0.0002367
0.0002333
0.0002277
0.000222
0.0002169
0.0002126
0.0002088
0.0002055
0.0002026
0.0002
0.0001976
0.0001955
0.0001936
0.0001918
0.0001902
0.0001888
0.0001874
0.0001862
0.000185
0.0001839
0.0001829
0.0001819
0.000181
0.0001801
0.0001792
0.0001783
0.0001775
0.0001766
0.0001758
0.0001749
0.0001741
0.0001732
0.0001723
0.0001714
0.0001705
0.0001695
0.0001685
0.0001675
0.0001664
0.0001652
0.000164
0.0001627
0.0001613
0.0001598
0.0001583
0.0001566
0.0001547
0.0001527
0.0001506
0.0001483
0.0001458
0.0001432
0.0001403
0.0001372
0.0001339
0.0001304
0.0001266
0.0001227
0.0001185
0.0001142
0.0001098
0.0001053
0.0001007
9.603e-05
9.141e-05
8.685e-05
8.236e-05
7.799e-05
7.376e-05
6.968e-05
6.577e-05
6.204e-05
5.85e-05
5.516e-05
5.2e-05
4.904e-05
4.627e-05
4.369e-05
4.127e-05
3.903e-05
3.695e-05
3.501e-05
3.321e-05
3.154e-05
2.999e-05
2.854e-05
2.719e-05
2.592e-05
2.473e-05
2.362e-05
2.257e-05
2.157e-05
2.063e-05
1.974e-05
1.888e-05
1.807e-05
1.728e-05
1.653e-05
1.58e-05
1.51e-05
1.442e-05
1.376e-05
1.312e-05
1.249e-05
1.188e-05
1.128e-05
1.069e-05
1.011e-05
9.539e-06
8.978e-06
8.424e-06
7.877e-06
7.336e-06
6.8e-06
6.268e-06
5.741e-06
5.216e-06
4.695e-06
4.176e-06
3.659e-06
3.143e-06
2.628e-06
2.114e-06
1.599e-06
1.085e-06
5.681e-07
1.182e-07
0.0002233
0.0002257
0.0002244
0.0002208
0.0002166
0.0002126
0.0002091
0.0002061
0.0002034
0.0002009
0.0001987
0.0001967
0.0001948
0.0001931
0.0001915
0.0001901
0.0001887
0.0001874
0.0001862
0.000185
0.000184
0.0001829
0.0001819
0.000181
0.00018
0.0001791
0.0001782
0.0001774
0.0001765
0.0001756
0.0001747
0.0001738
0.0001729
0.000172
0.0001711
0.0001701
0.0001691
0.000168
0.0001669
0.0001658
0.0001646
0.0001633
0.000162
0.0001606
0.0001591
0.0001575
0.0001558
0.0001539
0.000152
0.0001498
0.0001475
0.0001451
0.0001424
0.0001396
0.0001366
0.0001333
0.0001298
0.0001261
0.0001223
0.0001182
0.0001139
0.0001096
0.0001051
0.0001005
9.594e-05
9.139e-05
8.688e-05
8.247e-05
7.817e-05
7.401e-05
7e-05
6.617e-05
6.25e-05
5.903e-05
5.573e-05
5.263e-05
4.971e-05
4.698e-05
4.442e-05
4.203e-05
3.98e-05
3.772e-05
3.579e-05
3.399e-05
3.231e-05
3.074e-05
2.927e-05
2.79e-05
2.661e-05
2.54e-05
2.425e-05
2.317e-05
2.214e-05
2.117e-05
2.024e-05
1.935e-05
1.85e-05
1.769e-05
1.69e-05
1.615e-05
1.542e-05
1.471e-05
1.403e-05
1.336e-05
1.271e-05
1.208e-05
1.146e-05
1.085e-05
1.026e-05
9.675e-06
9.1e-06
8.534e-06
7.976e-06
7.425e-06
6.88e-06
6.34e-06
5.805e-06
5.274e-06
4.747e-06
4.222e-06
3.699e-06
3.178e-06
2.658e-06
2.139e-06
1.619e-06
1.098e-06
5.734e-07
1.172e-07
0.0002147
0.0002174
0.0002173
0.000215
0.000212
0.0002089
0.000206
0.0002034
0.0002012
0.0001991
0.0001972
0.0001955
0.0001939
0.0001924
0.000191
0.0001896
0.0001884
0.0001871
0.000186
0.0001849
0.0001839
0.0001828
0.0001819
0.0001809
0.00018
0.000179
0.0001781
0.0001772
0.0001763
0.0001754
0.0001745
0.0001736
0.0001727
0.0001717
0.0001707
0.0001697
0.0001687
0.0001676
0.0001665
0.0001653
0.0001641
0.0001628
0.0001615
0.0001601
0.0001585
0.0001569
0.0001552
0.0001534
0.0001514
0.0001493
0.000147
0.0001446
0.000142
0.0001392
0.0001362
0.0001329
0.0001295
0.0001259
0.000122
0.000118
0.0001137
0.0001094
0.0001049
0.0001004
9.584e-05
9.132e-05
8.685e-05
8.248e-05
7.823e-05
7.412e-05
7.017e-05
6.638e-05
6.277e-05
5.934e-05
5.61e-05
5.303e-05
5.015e-05
4.745e-05
4.491e-05
4.255e-05
4.034e-05
3.828e-05
3.635e-05
3.455e-05
3.287e-05
3.13e-05
2.982e-05
2.844e-05
2.713e-05
2.59e-05
2.473e-05
2.363e-05
2.258e-05
2.158e-05
2.063e-05
1.972e-05
1.884e-05
1.801e-05
1.72e-05
1.642e-05
1.567e-05
1.494e-05
1.424e-05
1.355e-05
1.289e-05
1.224e-05
1.16e-05
1.098e-05
1.038e-05
9.78e-06
9.195e-06
8.62e-06
8.053e-06
7.494e-06
6.942e-06
6.396e-06
5.855e-06
5.319e-06
4.787e-06
4.258e-06
3.731e-06
3.206e-06
2.683e-06
2.159e-06
1.635e-06
1.109e-06
5.79e-07
1.178e-07
0.0002082
0.0002109
0.0002114
0.0002102
0.000208
0.0002056
0.0002032
0.000201
0.0001991
0.0001973
0.0001957
0.0001942
0.0001928
0.0001915
0.0001902
0.000189
0.0001879
0.0001868
0.0001857
0.0001846
0.0001836
0.0001827
0.0001817
0.0001808
0.0001798
0.0001789
0.000178
0.0001771
0.0001762
0.0001753
0.0001744
0.0001734
0.0001725
0.0001715
0.0001705
0.0001695
0.0001684
0.0001674
0.0001662
0.000165
0.0001638
0.0001625
0.0001611
0.0001597
0.0001582
0.0001565
0.0001548
0.000153
0.000151
0.0001489
0.0001467
0.0001443
0.0001417
0.0001389
0.000136
0.0001328
0.0001294
0.0001257
0.0001219
0.0001179
0.0001136
0.0001093
0.0001048
0.0001003
9.573e-05
9.12e-05
8.675e-05
8.24e-05
7.818e-05
7.41e-05
7.019e-05
6.644e-05
6.286e-05
5.947e-05
5.625e-05
5.322e-05
5.037e-05
4.769e-05
4.519e-05
4.285e-05
4.066e-05
3.861e-05
3.67e-05
3.491e-05
3.324e-05
3.167e-05
3.019e-05
2.88e-05
2.749e-05
2.625e-05
2.507e-05
2.395e-05
2.289e-05
2.187e-05
2.091e-05
1.998e-05
1.909e-05
1.823e-05
1.741e-05
1.661e-05
1.585e-05
1.51e-05
1.439e-05
1.369e-05
1.301e-05
1.235e-05
1.17e-05
1.107e-05
1.046e-05
9.853e-06
9.261e-06
8.679e-06
8.106e-06
7.541e-06
6.984e-06
6.434e-06
5.889e-06
5.35e-06
4.814e-06
4.282e-06
3.753e-06
3.226e-06
2.7e-06
2.174e-06
1.648e-06
1.119e-06
5.852e-07
1.199e-07
0.0002031
0.0002056
0.0002066
0.000206
0.0002045
0.0002027
0.0002007
0.0001989
0.0001972
0.0001957
0.0001943
0.0001929
0.0001917
0.0001905
0.0001894
0.0001883
0.0001873
0.0001863
0.0001853
0.0001843
0.0001833
0.0001824
0.0001815
0.0001806
0.0001797
0.0001788
0.0001779
0.000177
0.0001761
0.0001752
0.0001742
0.0001733
0.0001724
0.0001714
0.0001704
0.0001693
0.0001683
0.0001672
0.000166
0.0001648
0.0001636
0.0001623
0.0001609
0.0001595
0.000158
0.0001564
0.0001547
0.0001528
0.0001509
0.0001488
0.0001466
0.0001442
0.0001417
0.0001389
0.000136
0.0001328
0.0001294
0.0001258
0.0001219
0.0001179
0.0001136
0.0001093
0.0001047
0.0001002
9.559e-05
9.105e-05
8.659e-05
8.223e-05
7.802e-05
7.396e-05
7.006e-05
6.633e-05
6.278e-05
5.941e-05
5.622e-05
5.321e-05
5.038e-05
4.773e-05
4.525e-05
4.293e-05
4.076e-05
3.874e-05
3.685e-05
3.508e-05
3.342e-05
3.185e-05
3.039e-05
2.9e-05
2.769e-05
2.644e-05
2.526e-05
2.414e-05
2.307e-05
2.205e-05
2.107e-05
2.013e-05
1.923e-05
1.836e-05
1.753e-05
1.673e-05
1.595e-05
1.52e-05
1.447e-05
1.376e-05
1.308e-05
1.241e-05
1.176e-05
1.112e-05
1.05e-05
9.892e-06
9.296e-06
8.709e-06
8.133e-06
7.566e-06
7.006e-06
6.453e-06
5.907e-06
5.365e-06
4.829e-06
4.296e-06
3.766e-06
3.238e-06
2.712e-06
2.185e-06
1.657e-06
1.127e-06
5.923e-07
1.237e-07
0.0001991
0.0002014
0.0002026
0.0002024
0.0002015
0.0002001
0.0001985
0.000197
0.0001955
0.0001942
0.0001929
0.0001917
0.0001906
0.0001896
0.0001886
0.0001876
0.0001867
0.0001857
0.0001848
0.0001839
0.000183
0.0001821
0.0001813
0.0001804
0.0001795
0.0001786
0.0001778
0.0001769
0.000176
0.0001751
0.0001742
0.0001732
0.0001723
0.0001713
0.0001703
0.0001693
0.0001682
0.0001671
0.000166
0.0001648
0.0001636
0.0001623
0.0001609
0.0001595
0.000158
0.0001564
0.0001547
0.0001529
0.0001509
0.0001489
0.0001467
0.0001443
0.0001418
0.0001391
0.0001361
0.000133
0.0001296
0.000126
0.0001221
0.000118
0.0001137
0.0001093
0.0001047
0.0001001
9.544e-05
9.085e-05
8.635e-05
8.198e-05
7.775e-05
7.369e-05
6.979e-05
6.607e-05
6.253e-05
5.917e-05
5.599e-05
5.299e-05
5.018e-05
4.755e-05
4.509e-05
4.28e-05
4.066e-05
3.866e-05
3.679e-05
3.504e-05
3.34e-05
3.186e-05
3.04e-05
2.903e-05
2.773e-05
2.649e-05
2.531e-05
2.419e-05
2.312e-05
2.21e-05
2.112e-05
2.018e-05
1.927e-05
1.841e-05
1.757e-05
1.676e-05
1.598e-05
1.522e-05
1.449e-05
1.378e-05
1.309e-05
1.242e-05
1.177e-05
1.113e-05
1.051e-05
9.897e-06
9.299e-06
8.712e-06
8.134e-06
7.566e-06
7.006e-06
6.454e-06
5.907e-06
5.366e-06
4.83e-06
4.298e-06
3.769e-06
3.242e-06
2.716e-06
2.191e-06
1.664e-06
1.135e-06
6.003e-07
1.292e-07
0.0001957
0.0001979
0.0001991
0.0001993
0.0001988
0.0001978
0.0001966
0.0001953
0.000194
0.0001928
0.0001917
0.0001906
0.0001896
0.0001887
0.0001878
0.0001869
0.000186
0.0001852
0.0001843
0.0001835
0.0001827
0.0001818
0.000181
0.0001802
0.0001793
0.0001785
0.0001776
0.0001768
0.0001759
0.000175
0.0001741
0.0001732
0.0001723
0.0001713
0.0001703
0.0001693
0.0001683
0.0001672
0.000166
0.0001649
0.0001636
0.0001624
0.000161
0.0001596
0.0001581
0.0001565
0.0001549
0.0001531
0.0001512
0.0001492
0.000147
0.0001447
0.0001422
0.0001395
0.0001365
0.0001334
0.00013
0.0001263
0.0001224
0.0001183
0.0001139
0.0001094
0.0001047
0.0001
9.527e-05
9.06e-05
8.604e-05
8.163e-05
7.738e-05
7.329e-05
6.938e-05
6.565e-05
6.21e-05
5.873e-05
5.556e-05
5.257e-05
4.977e-05
4.715e-05
4.472e-05
4.245e-05
4.034e-05
3.837e-05
3.653e-05
3.482e-05
3.32e-05
3.168e-05
3.025e-05
2.89e-05
2.761e-05
2.639e-05
2.522e-05
2.411e-05
2.305e-05
2.203e-05
2.106e-05
2.012e-05
1.922e-05
1.836e-05
1.752e-05
1.671e-05
1.594e-05
1.518e-05
1.445e-05
1.374e-05
1.306e-05
1.239e-05
1.173e-05
1.11e-05
1.048e-05
9.867e-06
9.271e-06
8.685e-06
8.11e-06
7.544e-06
6.986e-06
6.435e-06
5.891e-06
5.352e-06
4.819e-06
4.289e-06
3.762e-06
3.238e-06
2.715e-06
2.192e-06
1.668e-06
1.141e-06
6.093e-07
1.366e-07
0.000193
0.0001949
0.0001962
0.0001967
0.0001964
0.0001957
0.0001948
0.0001937
0.0001926
0.0001916
0.0001906
0.0001896
0.0001887
0.0001879
0.000187
0.0001862
0.0001854
0.0001846
0.0001839
0.0001831
0.0001823
0.0001815
0.0001807
0.00018
0.0001792
0.0001784
0.0001775
0.0001767
0.0001759
0.000175
0.0001741
0.0001733
0.0001723
0.0001714
0.0001704
0.0001694
0.0001684
0.0001673
0.0001662
0.0001651
0.0001639
0.0001626
0.0001613
0.0001599
0.0001585
0.0001569
0.0001553
0.0001535
0.0001517
0.0001497
0.0001476
0.0001453
0.0001428
0.0001401
0.0001371
0.000134
0.0001306
0.0001269
0.0001229
0.0001187
0.0001143
0.0001096
0.0001048
9.992e-05
9.507e-05
9.029e-05
8.565e-05
8.118e-05
7.688e-05
7.276e-05
6.882e-05
6.506e-05
6.148e-05
5.81e-05
5.491e-05
5.192e-05
4.912e-05
4.653e-05
4.412e-05
4.188e-05
3.98e-05
3.787e-05
3.608e-05
3.439e-05
3.282e-05
3.133e-05
2.993e-05
2.86e-05
2.734e-05
2.614e-05
2.5e-05
2.39e-05
2.286e-05
2.185e-05
2.089e-05
1.996e-05
1.907e-05
1.822e-05
1.739e-05
1.659e-05
1.582e-05
1.507e-05
1.435e-05
1.365e-05
1.297e-05
1.23e-05
1.166e-05
1.102e-05
1.041e-05
9.803e-06
9.211e-06
8.631e-06
8.06e-06
7.498e-06
6.944e-06
6.398e-06
5.858e-06
5.323e-06
4.794e-06
4.268e-06
3.746e-06
3.226e-06
2.707e-06
2.188e-06
1.669e-06
1.146e-06
6.193e-07
1.457e-07
0.0001906
0.0001925
0.0001938
0.0001943
0.0001943
0.0001939
0.0001932
0.0001923
0.0001914
0.0001905
0.0001896
0.0001887
0.0001879
0.0001871
0.0001863
0.0001856
0.0001849
0.0001841
0.0001834
0.0001827
0.000182
0.0001812
0.0001805
0.0001798
0.000179
0.0001782
0.0001775
0.0001767
0.0001759
0.0001751
0.0001742
0.0001734
0.0001725
0.0001716
0.0001706
0.0001697
0.0001687
0.0001676
0.0001665
0.0001654
0.0001642
0.000163
0.0001617
0.0001604
0.000159
0.0001575
0.0001559
0.0001542
0.0001524
0.0001504
0.0001483
0.0001461
0.0001436
0.0001409
0.000138
0.0001348
0.0001314
0.0001276
0.0001236
0.0001193
0.0001147
0.0001099
0.0001049
9.986e-05
9.484e-05
8.993e-05
8.518e-05
8.062e-05
7.626e-05
7.208e-05
6.808e-05
6.427e-05
6.065e-05
5.723e-05
5.402e-05
5.102e-05
4.823e-05
4.565e-05
4.327e-05
4.107e-05
3.904e-05
3.716e-05
3.541e-05
3.378e-05
3.224e-05
3.08e-05
2.944e-05
2.815e-05
2.692e-05
2.575e-05
2.463e-05
2.356e-05
2.254e-05
2.156e-05
2.061e-05
1.971e-05
1.883e-05
1.799e-05
1.718e-05
1.639e-05
1.564e-05
1.49e-05
1.419e-05
1.35e-05
1.283e-05
1.217e-05
1.153e-05
1.091e-05
1.03e-05
9.707e-06
9.122e-06
8.549e-06
7.985e-06
7.43e-06
6.883e-06
6.343e-06
5.809e-06
5.28e-06
4.757e-06
4.237e-06
3.721e-06
3.206e-06
2.693e-06
2.181e-06
1.667e-06
1.151e-06
6.303e-07
1.565e-07
0.0001886
0.0001904
0.0001916
0.0001923
0.0001925
0.0001922
0.0001917
0.000191
0.0001903
0.0001895
0.0001887
0.0001879
0.0001872
0.0001864
0.0001857
0.000185
0.0001844
0.0001837
0.000183
0.0001824
0.0001817
0.000181
0.0001803
0.0001796
0.0001789
0.0001782
0.0001774
0.0001767
0.0001759
0.0001751
0.0001743
0.0001735
0.0001727
0.0001718
0.0001709
0.00017
0.000169
0.000168
0.000167
0.0001659
0.0001648
0.0001636
0.0001623
0.000161
0.0001597
0.0001582
0.0001567
0.0001551
0.0001533
0.0001514
0.0001494
0.0001471
0.0001447
0.0001421
0.0001391
0.000136
0.0001325
0.0001286
0.0001245
0.0001201
0.0001153
0.0001103
0.0001051
9.98e-05
9.457e-05
8.949e-05
8.461e-05
7.994e-05
7.548e-05
7.122e-05
6.714e-05
6.326e-05
5.958e-05
5.611e-05
5.286e-05
4.985e-05
4.706e-05
4.451e-05
4.216e-05
4.002e-05
3.804e-05
3.622e-05
3.453e-05
3.296e-05
3.148e-05
3.01e-05
2.878e-05
2.754e-05
2.635e-05
2.522e-05
2.414e-05
2.31e-05
2.211e-05
2.116e-05
2.024e-05
1.936e-05
1.85e-05
1.768e-05
1.689e-05
1.613e-05
1.539e-05
1.467e-05
1.397e-05
1.33e-05
1.264e-05
1.2e-05
1.137e-05
1.076e-05
1.016e-05
9.58e-06
9.006e-06
8.442e-06
7.887e-06
7.341e-06
6.803e-06
6.271e-06
5.745e-06
5.224e-06
4.708e-06
4.196e-06
3.687e-06
3.18e-06
2.674e-06
2.169e-06
1.663e-06
1.154e-06
6.422e-07
1.69e-07
0.0001869
0.0001885
0.0001898
0.0001905
0.0001908
0.0001907
0.0001904
0.0001899
0.0001893
0.0001886
0.0001879
0.0001872
0.0001865
0.0001858
0.0001852
0.0001846
0.0001839
0.0001833
0.0001827
0.0001821
0.0001814
0.0001808
0.0001801
0.0001795
0.0001788
0.0001781
0.0001774
0.0001767
0.000176
0.0001753
0.0001745
0.0001737
0.0001729
0.0001721
0.0001712
0.0001703
0.0001694
0.0001685
0.0001675
0.0001665
0.0001654
0.0001643
0.0001631
0.0001619
0.0001606
0.0001592
0.0001577
0.0001562
0.0001545
0.0001527
0.0001507
0.0001485
0.0001462
0.0001435
0.0001406
0.0001374
0.0001339
0.00013
0.0001257
0.0001211
0.0001161
0.0001108
0.0001053
9.976e-05
9.427e-05
8.896e-05
8.391e-05
7.91e-05
7.452e-05
7.014e-05
6.595e-05
6.197e-05
5.82e-05
5.467e-05
5.138e-05
4.835e-05
4.559e-05
4.307e-05
4.078e-05
3.869e-05
3.679e-05
3.505e-05
3.344e-05
3.194e-05
3.054e-05
2.922e-05
2.797e-05
2.678e-05
2.564e-05
2.456e-05
2.352e-05
2.253e-05
2.157e-05
2.065e-05
1.977e-05
1.891e-05
1.809e-05
1.73e-05
1.653e-05
1.579e-05
1.508e-05
1.438e-05
1.37e-05
1.305e-05
1.241e-05
1.178e-05
1.117e-05
1.058e-05
9.996e-06
9.424e-06
8.863e-06
8.312e-06
7.769e-06
7.233e-06
6.705e-06
6.183e-06
5.667e-06
5.156e-06
4.649e-06
4.145e-06
3.645e-06
3.147e-06
2.65e-06
2.153e-06
1.656e-06
1.157e-06
6.549e-07
1.829e-07
0.0001855
0.000187
0.0001882
0.000189
0.0001894
0.0001894
0.0001892
0.0001888
0.0001883
0.0001878
0.0001872
0.0001865
0.0001859
0.0001853
0.0001847
0.0001841
0.0001835
0.000183
0.0001824
0.0001818
0.0001812
0.0001806
0.00018
0.0001794
0.0001788
0.0001781
0.0001775
0.0001768
0.0001761
0.0001754
0.0001747
0.000174
0.0001732
0.0001725
0.0001717
0.0001708
0.00017
0.0001691
0.0001681
0.0001672
0.0001662
0.0001651
0.000164
0.0001629
0.0001616
0.0001603
0.000159
0.0001575
0.0001559
0.0001542
0.0001523
0.0001503
0.000148
0.0001454
0.0001425
0.0001393
0.0001357
0.0001317
0.0001273
0.0001224
0.0001172
0.0001116
0.0001057
9.976e-05
9.391e-05
8.833e-05
8.305e-05
7.805e-05
7.33e-05
6.876e-05
6.443e-05
6.032e-05
5.645e-05
5.285e-05
4.953e-05
4.65e-05
4.376e-05
4.13e-05
3.908e-05
3.709e-05
3.529e-05
3.364e-05
3.213e-05
3.072e-05
2.941e-05
2.817e-05
2.699e-05
2.587e-05
2.48e-05
2.377e-05
2.278e-05
2.184e-05
2.093e-05
2.005e-05
1.921e-05
1.839e-05
1.761e-05
1.685e-05
1.611e-05
1.54e-05
1.471e-05
1.404e-05
1.339e-05
1.275e-05
1.214e-05
1.153e-05
1.094e-05
1.036e-05
9.799e-06
9.244e-06
8.698e-06
8.16e-06
7.631e-06
7.109e-06
6.593e-06
6.082e-06
5.577e-06
5.077e-06
4.58e-06
4.087e-06
3.596e-06
3.108e-06
2.621e-06
2.134e-06
1.647e-06
1.159e-06
6.684e-07
1.981e-07
0.0001842
0.0001856
0.0001868
0.0001876
0.0001881
0.0001882
0.0001882
0.0001879
0.0001875
0.000187
0.0001865
0.000186
0.0001854
0.0001849
0.0001843
0.0001838
0.0001832
0.0001827
0.0001821
0.0001816
0.000181
0.0001805
0.0001799
0.0001793
0.0001788
0.0001782
0.0001776
0.0001769
0.0001763
0.0001757
0.000175
0.0001743
0.0001736
0.0001729
0.0001721
0.0001714
0.0001706
0.0001697
0.0001689
0.000168
0.0001671
0.0001661
0.0001651
0.000164
0.0001629
0.0001617
0.0001604
0.0001591
0.0001576
0.0001561
0.0001543
0.0001524
0.0001502
0.0001477
0.0001449
0.0001417
0.0001381
0.000134
0.0001294
0.0001243
0.0001187
0.0001126
0.0001063
9.98e-05
9.349e-05
8.753e-05
8.195e-05
7.669e-05
7.171e-05
6.697e-05
6.247e-05
5.822e-05
5.424e-05
5.058e-05
4.723e-05
4.422e-05
4.154e-05
3.917e-05
3.706e-05
3.519e-05
3.352e-05
3.2e-05
3.06e-05
2.931e-05
2.81e-05
2.695e-05
2.586e-05
2.482e-05
2.382e-05
2.286e-05
2.194e-05
2.105e-05
2.019e-05
1.936e-05
1.857e-05
1.779e-05
1.705e-05
1.633e-05
1.563e-05
1.495e-05
1.429e-05
1.365e-05
1.303e-05
1.242e-05
1.183e-05
1.125e-05
1.068e-05
1.013e-05
9.579e-06
9.041e-06
8.513e-06
7.991e-06
7.477e-06
6.969e-06
6.467e-06
5.97e-06
5.477e-06
4.988e-06
4.503e-06
4.021e-06
3.542e-06
3.064e-06
2.588e-06
2.112e-06
1.637e-06
1.161e-06
6.824e-07
2.143e-07
0.0001831
0.0001845
0.0001856
0.0001864
0.000187
0.0001872
0.0001872
0.0001871
0.0001868
0.0001864
0.000186
0.0001855
0.000185
0.0001845
0.000184
0.0001835
0.0001829
0.0001824
0.0001819
0.0001814
0.0001809
0.0001804
0.0001799
0.0001793
0.0001788
0.0001782
0.0001777
0.0001771
0.0001765
0.0001759
0.0001753
0.0001747
0.000174
0.0001734
0.0001727
0.000172
0.0001713
0.0001705
0.0001697
0.0001689
0.0001681
0.0001672
0.0001663
0.0001653
0.0001643
0.0001632
0.0001621
0.0001609
0.0001596
0.0001582
0.0001566
0.0001549
0.0001529
0.0001506
0.0001479
0.0001448
0.0001411
0.0001369
0.0001322
0.0001268
0.0001208
0.0001142
0.0001071
9.993e-05
9.298e-05
8.648e-05
8.046e-05
7.485e-05
6.957e-05
6.459e-05
5.99e-05
5.551e-05
5.145e-05
4.775e-05
4.442e-05
4.148e-05
3.89e-05
3.665e-05
3.47e-05
3.3e-05
3.148e-05
3.012e-05
2.887e-05
2.771e-05
2.662e-05
2.558e-05
2.459e-05
2.364e-05
2.272e-05
2.184e-05
2.099e-05
2.016e-05
1.937e-05
1.86e-05
1.785e-05
1.713e-05
1.643e-05
1.575e-05
1.51e-05
1.446e-05
1.384e-05
1.323e-05
1.264e-05
1.206e-05
1.149e-05
1.094e-05
1.04e-05
9.864e-06
9.339e-06
8.821e-06
8.311e-06
7.808e-06
7.31e-06
6.818e-06
6.331e-06
5.848e-06
5.368e-06
4.893e-06
4.42e-06
3.95e-06
3.482e-06
3.016e-06
2.552e-06
2.088e-06
1.625e-06
1.161e-06
6.969e-07
2.313e-07
0.0001822
0.0001835
0.0001846
0.0001854
0.000186
0.0001863
0.0001864
0.0001863
0.0001861
0.0001858
0.0001854
0.000185
0.0001846
0.0001841
0.0001837
0.0001832
0.0001827
0.0001822
0.0001818
0.0001813
0.0001808
0.0001803
0.0001799
0.0001794
0.0001789
0.0001784
0.0001778
0.0001773
0.0001768
0.0001762
0.0001757
0.0001751
0.0001745
0.0001739
0.0001733
0.0001727
0.000172
0.0001713
0.0001706
0.0001699
0.0001691
0.0001684
0.0001676
0.0001667
0.0001658
0.0001649
0.0001639
0.0001629
0.0001618
0.0001606
0.0001593
0.0001578
0.0001561
0.000154
0.0001516
0.0001486
0.0001451
0.0001409
0.000136
0.0001303
0.0001238
0.0001165
0.0001085
0.0001002
9.227e-05
8.494e-05
7.827e-05
7.218e-05
6.656e-05
6.134e-05
5.65e-05
5.204e-05
4.796e-05
4.428e-05
4.103e-05
3.821e-05
3.579e-05
3.374e-05
3.2e-05
3.05e-05
2.919e-05
2.801e-05
2.694e-05
2.594e-05
2.498e-05
2.407e-05
2.32e-05
2.235e-05
2.152e-05
2.073e-05
1.995e-05
1.92e-05
1.847e-05
1.777e-05
1.708e-05
1.641e-05
1.577e-05
1.514e-05
1.452e-05
1.393e-05
1.335e-05
1.278e-05
1.222e-05
1.167e-05
1.114e-05
1.061e-05
1.01e-05
9.586e-06
9.084e-06
8.588e-06
8.098e-06
7.614e-06
7.134e-06
6.658e-06
6.187e-06
5.718e-06
5.253e-06
4.791e-06
4.332e-06
3.874e-06
3.419e-06
2.965e-06
2.513e-06
2.062e-06
1.612e-06
1.162e-06
7.115e-07
2.489e-07
0.0001814
0.0001826
0.0001837
0.0001845
0.0001851
0.0001855
0.0001856
0.0001856
0.0001855
0.0001853
0.000185
0.0001846
0.0001843
0.0001838
0.0001834
0.000183
0.0001825
0.0001821
0.0001817
0.0001812
0.0001808
0.0001803
0.0001799
0.0001794
0.000179
0.0001785
0.000178
0.0001775
0.0001771
0.0001766
0.0001761
0.0001755
0.000175
0.0001745
0.0001739
0.0001734
0.0001728
0.0001722
0.0001716
0.000171
0.0001703
0.0001696
0.0001689
0.0001682
0.0001675
0.0001667
0.000166
0.0001651
0.0001643
0.0001633
0.0001623
0.0001611
0.0001597
0.0001581
0.000156
0.0001534
0.0001502
0.0001462
0.0001414
0.0001356
0.0001286
0.0001205
0.000111
0.0001008
9.11e-05
8.233e-05
7.471e-05
6.808e-05
6.219e-05
5.685e-05
5.203e-05
4.762e-05
4.364e-05
4.009e-05
3.701e-05
3.44e-05
3.222e-05
3.044e-05
2.896e-05
2.773e-05
2.666e-05
2.571e-05
2.484e-05
2.401e-05
2.322e-05
2.245e-05
2.169e-05
2.096e-05
2.024e-05
1.953e-05
1.885e-05
1.818e-05
1.752e-05
1.688e-05
1.626e-05
1.566e-05
1.506e-05
1.449e-05
1.392e-05
1.337e-05
1.283e-05
1.23e-05
1.178e-05
1.127e-05
1.077e-05
1.027e-05
9.781e-06
9.297e-06
8.819e-06
8.346e-06
7.877e-06
7.412e-06
6.951e-06
6.493e-06
6.037e-06
5.585e-06
5.135e-06
4.686e-06
4.24e-06
3.796e-06
3.354e-06
2.913e-06
2.473e-06
2.035e-06
1.598e-06
1.162e-06
7.261e-07
2.667e-07
0.0001807
0.0001819
0.0001829
0.0001837
0.0001844
0.0001848
0.000185
0.0001851
0.000185
0.0001848
0.0001846
0.0001843
0.000184
0.0001836
0.0001832
0.0001828
0.0001824
0.000182
0.0001816
0.0001812
0.0001808
0.0001803
0.0001799
0.0001795
0.0001791
0.0001787
0.0001782
0.0001778
0.0001774
0.0001769
0.0001765
0.000176
0.0001756
0.0001751
0.0001746
0.0001741
0.0001736
0.0001731
0.0001726
0.0001721
0.0001715
0.000171
0.0001704
0.0001698
0.0001693
0.0001687
0.0001681
0.0001675
0.0001669
0.0001662
0.0001655
0.0001647
0.0001638
0.0001626
0.0001611
0.0001591
0.0001564
0.000153
0.0001487
0.0001434
0.0001365
0.0001277
0.0001164
0.0001022
8.842e-05
7.712e-05
6.845e-05
6.152e-05
5.57e-05
5.066e-05
4.623e-05
4.215e-05
3.845e-05
3.518e-05
3.238e-05
3.007e-05
2.822e-05
2.677e-05
2.564e-05
2.472e-05
2.394e-05
2.325e-05
2.259e-05
2.196e-05
2.134e-05
2.072e-05
2.011e-05
1.949e-05
1.888e-05
1.828e-05
1.769e-05
1.71e-05
1.653e-05
1.596e-05
1.541e-05
1.487e-05
1.434e-05
1.382e-05
1.33e-05
1.28e-05
1.23e-05
1.181e-05
1.133e-05
1.086e-05
1.039e-05
9.921e-06
9.46e-06
9.003e-06
8.55e-06
8.1e-06
7.653e-06
7.208e-06
6.765e-06
6.325e-06
5.886e-06
5.449e-06
5.014e-06
4.58e-06
4.148e-06
3.717e-06
3.287e-06
2.859e-06
2.433e-06
2.007e-06
1.583e-06
1.161e-06
7.406e-07
2.844e-07
0.0001801
0.0001812
0.0001823
0.0001831
0.0001837
0.0001841
0.0001844
0.0001845
0.0001845
0.0001844
0.0001843
0.000184
0.0001837
0.0001834
0.000183
0.0001827
0.0001823
0.0001819
0.0001815
0.0001811
0.0001808
0.0001804
0.00018
0.0001796
0.0001792
0.0001788
0.0001784
0.0001781
0.0001777
0.0001773
0.0001769
0.0001765
0.0001761
0.0001757
0.0001753
0.0001749
0.0001745
0.000174
0.0001736
0.0001732
0.0001728
0.0001723
0.0001719
0.0001715
0.0001711
0.0001706
0.0001703
0.0001699
0.0001696
0.0001692
0.0001689
0.0001686
0.0001682
0.0001676
0.0001667
0.0001655
0.0001637
0.0001613
0.0001583
0.0001546
0.0001498
0.000141
0.000127
0.0001044
8.243e-05
6.779e-05
5.831e-05
5.13e-05
4.636e-05
4.248e-05
3.9e-05
3.566e-05
3.249e-05
2.964e-05
2.722e-05
2.53e-05
2.385e-05
2.282e-05
2.208e-05
2.153e-05
2.108e-05
2.066e-05
2.026e-05
1.983e-05
1.939e-05
1.894e-05
1.846e-05
1.798e-05
1.749e-05
1.699e-05
1.65e-05
1.6e-05
1.551e-05
1.503e-05
1.455e-05
1.407e-05
1.36e-05
1.314e-05
1.268e-05
1.222e-05
1.177e-05
1.133e-05
1.088e-05
1.044e-05
1.001e-05
9.572e-06
9.14e-06
8.71e-06
8.282e-06
7.855e-06
7.429e-06
7.005e-06
6.581e-06
6.158e-06
5.736e-06
5.315e-06
4.895e-06
4.475e-06
4.056e-06
3.638e-06
3.222e-06
2.806e-06
2.392e-06
1.979e-06
1.569e-06
1.16e-06
7.546e-07
3.018e-07
0.0001796
0.0001807
0.0001817
0.0001825
0.0001831
0.0001836
0.0001839
0.0001841
0.0001841
0.0001841
0.000184
0.0001838
0.0001835
0.0001832
0.0001829
0.0001826
0.0001822
0.0001819
0.0001815
0.0001811
0.0001808