/*--------------------------------*- C++ -*----------------------------------*\
  =========                 |
  \\      /  F ield         | OpenFOAM: The Open Source CFD Toolbox
   \\    /   O peration     | Website:  https://openfoam.org
    \\  /    A nd           | Version:  7
     \\/     M anipulation  |
\*---------------------------------------------------------------------------*/
FoamFile
{
    version     2.0;
    format      ascii;
    class       surfaceScalarField;
    location    "2459.99947344194379";
    object      phi;
}
// * * * * * * * * * * * * * * * * * * * * * * * * * * * * * * * * * * * * * //

dimensions      [0 3 -1 0 0 0 0];

internalField   nonuniform List<scalar> 
8032
(
6.857e-10
2.518e-10
4.804e-10
2.053e-10
3.48e-10
1.324e-10
2.643e-10
8.373e-11
2.101e-10
5.417e-11
1.737e-10
3.639e-11
1.482e-10
2.553e-11
1.295e-10
1.868e-11
1.153e-10
1.418e-11
1.043e-10
1.107e-11
9.542e-11
8.847e-12
8.823e-11
7.191e-12
8.23e-11
5.922e-12
7.738e-11
4.923e-12
7.326e-11
4.121e-12
6.98e-11
3.464e-12
6.688e-11
2.918e-12
6.442e-11
2.457e-12
6.236e-11
2.063e-12
6.064e-11
1.721e-12
5.922e-11
1.422e-12
5.806e-11
1.156e-12
5.715e-11
9.163e-13
5.645e-11
6.984e-13
5.595e-11
4.973e-13
5.564e-11
3.091e-13
5.551e-11
1.307e-13
5.555e-11
-4.087e-14
5.576e-11
-2.079e-13
5.613e-11
-3.726e-13
5.667e-11
-5.367e-13
5.737e-11
-7.021e-13
5.824e-11
-8.701e-13
5.928e-11
-1.042e-12
6.05e-11
-1.219e-12
6.19e-11
-1.401e-12
6.349e-11
-1.59e-12
6.528e-11
-1.785e-12
6.726e-11
-1.987e-12
6.946e-11
-2.196e-12
7.187e-11
-2.41e-12
7.45e-11
-2.628e-12
7.735e-11
-2.849e-12
8.042e-11
-3.071e-12
8.371e-11
-3.29e-12
8.721e-11
-3.504e-12
9.092e-11
-3.707e-12
9.482e-11
-3.896e-12
9.888e-11
-4.064e-12
1.031e-10
-4.206e-12
1.074e-10
-4.314e-12
1.118e-10
-4.383e-12
1.162e-10
-4.405e-12
1.206e-10
-4.373e-12
1.248e-10
-4.282e-12
1.29e-10
-4.126e-12
1.329e-10
-3.903e-12
1.365e-10
-3.611e-12
1.397e-10
-3.251e-12
1.426e-10
-2.827e-12
1.449e-10
-2.345e-12
1.467e-10
-1.815e-12
1.48e-10
-1.248e-12
1.486e-10
-6.583e-13
1.487e-10
-5.921e-14
1.482e-10
5.345e-13
1.47e-10
1.109e-12
1.454e-10
1.653e-12
1.432e-10
2.156e-12
1.406e-10
2.61e-12
1.376e-10
3.009e-12
1.343e-10
3.351e-12
1.306e-10
3.634e-12
1.268e-10
3.858e-12
1.227e-10
4.025e-12
1.186e-10
4.137e-12
1.144e-10
4.198e-12
1.102e-10
4.212e-12
1.06e-10
4.183e-12
1.019e-10
4.118e-12
9.788e-11
4.021e-12
9.398e-11
3.897e-12
9.023e-11
3.751e-12
8.664e-11
3.589e-12
8.323e-11
3.414e-12
8e-11
3.231e-12
7.696e-11
3.043e-12
7.41e-11
2.853e-12
7.144e-11
2.664e-12
6.896e-11
2.479e-12
6.666e-11
2.298e-12
6.454e-11
2.123e-12
6.258e-11
1.956e-12
6.079e-11
1.797e-12
5.914e-11
1.646e-12
5.764e-11
1.505e-12
5.626e-11
1.372e-12
5.501e-11
1.249e-12
5.388e-11
1.134e-12
5.285e-11
1.028e-12
5.192e-11
9.298e-13
5.108e-11
8.396e-13
5.033e-11
7.569e-13
4.965e-11
6.811e-13
4.903e-11
6.12e-13
4.848e-11
5.49e-13
4.799e-11
4.917e-13
4.755e-11
4.397e-13
4.716e-11
3.927e-13
4.681e-11
3.501e-13
4.65e-11
3.118e-13
4.622e-11
2.773e-13
4.597e-11
2.465e-13
4.576e-11
2.189e-13
4.556e-11
1.946e-13
4.539e-11
1.731e-13
4.523e-11
1.546e-13
4.509e-11
1.388e-13
4.497e-11
1.259e-13
4.485e-11
1.158e-13
4.474e-11
1.09e-13
4.464e-11
1.059e-13
4.453e-11
1.075e-13
4.441e-11
1.154e-13
4.428e-11
1.332e-13
4.412e-11
1.662e-13
4.389e-11
2.208e-13
2.87e-13
9.523e-10
2.37e-10
8.501e-10
3.075e-10
7.275e-10
2.551e-10
6.182e-10
1.93e-10
5.293e-10
1.431e-10
4.591e-10
1.066e-10
4.04e-10
8.065e-11
3.604e-10
6.229e-11
3.255e-10
4.907e-11
2.972e-10
3.936e-11
2.74e-10
3.204e-11
2.548e-10
2.641e-11
2.387e-10
2.197e-11
2.252e-10
1.841e-11
2.138e-10
1.551e-11
2.042e-10
1.31e-11
1.96e-10
1.109e-11
1.891e-10
9.368e-12
1.833e-10
7.889e-12
1.784e-10
6.601e-12
1.744e-10
5.466e-12
1.711e-10
4.455e-12
1.685e-10
3.542e-12
1.664e-10
2.708e-12
1.65e-10
1.938e-12
1.641e-10
1.215e-12
1.637e-10
5.299e-13
1.638e-10
-1.289e-13
1.643e-10
-7.701e-13
1.654e-10
-1.402e-12
1.669e-10
-2.03e-12
1.688e-10
-2.662e-12
1.713e-10
-3.303e-12
1.742e-10
-3.957e-12
1.776e-10
-4.627e-12
1.815e-10
-5.317e-12
1.859e-10
-6.029e-12
1.909e-10
-6.764e-12
1.965e-10
-7.521e-12
2.026e-10
-8.299e-12
2.092e-10
-9.096e-12
2.165e-10
-9.906e-12
2.244e-10
-1.072e-11
2.329e-10
-1.154e-11
2.419e-10
-1.234e-11
2.515e-10
-1.312e-11
2.617e-10
-1.386e-11
2.723e-10
-1.454e-11
2.834e-10
-1.514e-11
2.948e-10
-1.564e-11
3.065e-10
-1.601e-11
3.184e-10
-1.624e-11
3.303e-10
-1.629e-11
3.42e-10
-1.615e-11
3.536e-10
-1.579e-11
3.646e-10
-1.519e-11
3.751e-10
-1.436e-11
3.847e-10
-1.327e-11
3.934e-10
-1.194e-11
4.01e-10
-1.038e-11
4.072e-10
-8.611e-12
4.121e-10
-6.672e-12
4.154e-10
-4.602e-12
4.172e-10
-2.449e-12
4.174e-10
-2.614e-13
4.161e-10
1.908e-12
4.132e-10
4.013e-12
4.088e-10
6.009e-12
4.031e-10
7.86e-12
3.962e-10
9.538e-12
3.882e-10
1.102e-11
3.792e-10
1.23e-11
3.695e-10
1.336e-11
3.591e-10
1.421e-11
3.483e-10
1.485e-11
3.371e-10
1.53e-11
3.258e-10
1.555e-11
3.144e-10
1.563e-11
3.03e-10
1.555e-11
2.918e-10
1.534e-11
2.808e-10
1.5e-11
2.701e-10
1.457e-11
2.598e-10
1.405e-11
2.499e-10
1.347e-11
2.405e-10
1.283e-11
2.316e-10
1.217e-11
2.232e-10
1.148e-11
2.152e-10
1.079e-11
2.078e-10
1.009e-11
2.009e-10
9.404e-12
1.944e-10
8.734e-12
1.885e-10
8.085e-12
1.83e-10
7.462e-12
1.779e-10
6.868e-12
1.732e-10
6.304e-12
1.69e-10
5.772e-12
1.651e-10
5.273e-12
1.615e-10
4.807e-12
1.583e-10
4.373e-12
1.553e-10
3.971e-12
1.527e-10
3.599e-12
1.502e-10
3.256e-12
1.481e-10
2.94e-12
1.461e-10
2.651e-12
1.443e-10
2.387e-12
1.427e-10
2.145e-12
1.413e-10
1.925e-12
1.4e-10
1.726e-12
1.388e-10
1.544e-12
1.378e-10
1.38e-12
1.369e-10
1.232e-12
1.361e-10
1.099e-12
1.353e-10
9.789e-13
1.347e-10
8.72e-13
1.341e-10
7.771e-13
1.336e-10
6.936e-13
1.331e-10
6.21e-13
1.327e-10
5.59e-13
1.323e-10
5.077e-13
1.32e-10
4.672e-13
1.316e-10
4.384e-13
1.313e-10
4.222e-13
1.31e-10
4.208e-13
1.307e-10
4.37e-13
1.303e-10
4.751e-13
1.3e-10
5.402e-13
1.296e-10
6.312e-13
7.17e-13
9.779e-10
1.966e-10
9.637e-10
3.217e-10
9.013e-10
3.175e-10
8.211e-10
2.731e-10
7.408e-10
2.235e-10
6.677e-10
1.796e-10
6.042e-10
1.442e-10
5.501e-10
1.163e-10
5.045e-10
9.473e-11
4.66e-10
7.788e-11
4.334e-10
6.46e-11
4.058e-10
5.4e-11
3.824e-10
4.543e-11
3.624e-10
3.841e-11
3.453e-10
3.258e-11
3.307e-10
2.769e-11
3.183e-10
2.353e-11
3.077e-10
1.996e-11
2.987e-10
1.687e-11
2.911e-10
1.416e-11
2.849e-10
1.175e-11
2.797e-10
9.597e-12
2.756e-10
7.646e-12
2.725e-10
5.858e-12
2.702e-10
4.199e-12
2.688e-10
2.643e-12
2.681e-10
1.163e-12
2.683e-10
-2.607e-13
2.692e-10
-1.647e-12
2.708e-10
-3.012e-12
2.731e-10
-4.371e-12
2.762e-10
-5.735e-12
2.8e-10
-7.117e-12
2.846e-10
-8.525e-12
2.899e-10
-9.966e-12
2.96e-10
-1.145e-11
3.03e-10
-1.297e-11
3.108e-10
-1.454e-11
3.194e-10
-1.616e-11
3.289e-10
-1.782e-11
3.393e-10
-1.951e-11
3.507e-10
-2.123e-11
3.629e-10
-2.296e-11
3.76e-10
-2.468e-11
3.901e-10
-2.637e-11
4.05e-10
-2.801e-11
4.206e-10
-2.955e-11
4.371e-10
-3.097e-11
4.542e-10
-3.222e-11
4.718e-10
-3.325e-11
4.898e-10
-3.401e-11
5.08e-10
-3.446e-11
5.262e-10
-3.454e-11
5.443e-10
-3.421e-11
5.619e-10
-3.342e-11
5.789e-10
-3.215e-11
5.949e-10
-3.035e-11
6.097e-10
-2.805e-11
6.23e-10
-2.523e-11
6.345e-10
-2.193e-11
6.441e-10
-1.82e-11
6.516e-10
-1.412e-11
6.567e-10
-9.757e-12
6.595e-10
-5.221e-12
6.598e-10
-6.137e-13
6.578e-10
3.959e-12
6.534e-10
8.398e-12
6.468e-10
1.261e-11
6.381e-10
1.653e-11
6.276e-10
2.009e-11
6.154e-10
2.324e-11
6.017e-10
2.596e-11
5.868e-10
2.824e-11
5.71e-10
3.007e-11
5.544e-10
3.146e-11
5.372e-10
3.243e-11
5.198e-10
3.3e-11
5.022e-10
3.32e-11
4.847e-10
3.308e-11
4.674e-10
3.265e-11
4.504e-10
3.198e-11
4.339e-10
3.108e-11
4.179e-10
3.001e-11
4.026e-10
2.88e-11
3.879e-10
2.748e-11
3.74e-10
2.608e-11
3.609e-10
2.464e-11
3.485e-10
2.317e-11
3.368e-10
2.171e-11
3.26e-10
2.025e-11
3.159e-10
1.883e-11
3.065e-10
1.746e-11
2.979e-10
1.613e-11
2.899e-10
1.486e-11
2.825e-10
1.366e-11
2.758e-10
1.252e-11
2.696e-10
1.145e-11
2.639e-10
1.045e-11
2.588e-10
9.522e-12
2.541e-10
8.656e-12
2.498e-10
7.855e-12
2.46e-10
7.116e-12
2.425e-10
6.435e-12
2.393e-10
5.81e-12
2.365e-10
5.238e-12
2.339e-10
4.714e-12
2.316e-10
4.237e-12
2.295e-10
3.803e-12
2.277e-10
3.409e-12
2.26e-10
3.051e-12
2.245e-10
2.728e-12
2.231e-10
2.437e-12
2.22e-10
2.175e-12
2.209e-10
1.941e-12
2.199e-10
1.733e-12
2.191e-10
1.549e-12
2.183e-10
1.389e-12
2.176e-10
1.251e-12
2.17e-10
1.136e-12
2.164e-10
1.044e-12
2.159e-10
9.75e-13
2.154e-10
9.31e-13
2.149e-10
9.14e-13
2.144e-10
9.264e-13
2.139e-10
9.709e-13
2.134e-10
1.047e-12
2.129e-10
1.146e-12
1.225e-12
9.752e-10
1.589e-10
9.93e-10
3.039e-10
9.727e-10
3.378e-10
9.267e-10
3.191e-10
8.687e-10
2.814e-10
8.08e-10
2.404e-10
7.497e-10
2.024e-10
6.963e-10
1.698e-10
6.486e-10
1.424e-10
6.066e-10
1.199e-10
5.698e-10
1.013e-10
5.379e-10
8.596e-11
5.101e-10
7.318e-11
4.861e-10
6.247e-11
4.652e-10
5.341e-11
4.472e-10
4.569e-11
4.317e-10
3.904e-11
4.184e-10
3.327e-11
4.071e-10
2.822e-11
3.975e-10
2.375e-11
3.894e-10
1.977e-11
3.829e-10
1.618e-11
3.776e-10
1.291e-11
3.736e-10
9.9e-12
3.707e-10
7.1e-12
3.688e-10
4.463e-12
3.681e-10
1.951e-12
3.683e-10
-4.704e-13
3.694e-10
-2.831e-12
3.716e-10
-5.157e-12
3.747e-10
-7.472e-12
3.787e-10
-9.796e-12
3.838e-10
-1.215e-11
3.898e-10
-1.454e-11
3.968e-10
-1.699e-11
4.049e-10
-1.951e-11
4.14e-10
-2.209e-11
4.242e-10
-2.475e-11
4.355e-10
-2.748e-11
4.48e-10
-3.028e-11
4.616e-10
-3.313e-11
4.764e-10
-3.602e-11
4.924e-10
-3.892e-11
5.095e-10
-4.181e-11
5.278e-10
-4.464e-11
5.471e-10
-4.737e-11
5.675e-10
-4.994e-11
5.888e-10
-5.229e-11
6.11e-10
-5.436e-11
6.338e-10
-5.605e-11
6.571e-10
-5.731e-11
6.806e-10
-5.802e-11
7.042e-10
-5.813e-11
7.275e-10
-5.754e-11
7.503e-10
-5.619e-11
7.722e-10
-5.402e-11
7.928e-10
-5.099e-11
8.119e-10
-4.711e-11
8.29e-10
-4.237e-11
8.439e-10
-3.684e-11
8.563e-10
-3.059e-11
8.659e-10
-2.374e-11
8.726e-10
-1.643e-11
8.762e-10
-8.832e-12
8.767e-10
-1.111e-12
8.741e-10
6.554e-12
8.685e-10
1.4e-11
8.601e-10
2.107e-11
8.489e-10
2.765e-11
8.354e-10
3.364e-11
8.197e-10
3.895e-11
8.021e-10
4.355e-11
7.829e-10
4.74e-11
7.625e-10
5.051e-11
7.411e-10
5.288e-11
7.19e-10
5.455e-11
6.964e-10
5.556e-11
6.736e-10
5.595e-11
6.509e-10
5.578e-11
6.285e-10
5.512e-11
6.064e-10
5.402e-11
5.85e-10
5.256e-11
5.642e-10
5.079e-11
5.442e-10
4.879e-11
5.251e-10
4.659e-11
5.069e-10
4.427e-11
4.897e-10
4.186e-11
4.734e-10
3.941e-11
4.582e-10
3.695e-11
4.439e-10
3.451e-11
4.307e-10
3.212e-11
4.183e-10
2.98e-11
4.069e-10
2.757e-11
3.963e-10
2.543e-11
3.866e-10
2.339e-11
3.776e-10
2.147e-11
3.694e-10
1.966e-11
3.619e-10
1.796e-11
3.551e-10
1.638e-11
3.488e-10
1.49e-11
3.431e-10
1.354e-11
3.38e-10
1.228e-11
3.333e-10
1.112e-11
3.291e-10
1.005e-11
3.252e-10
9.067e-12
3.218e-10
8.171e-12
3.187e-10
7.353e-12
3.159e-10
6.608e-12
3.133e-10
5.93e-12
3.111e-10
5.315e-12
3.09e-10
4.758e-12
3.072e-10
4.256e-12
3.056e-10
3.804e-12
3.041e-10
3.399e-12
3.028e-10
3.039e-12
3.017e-10
2.719e-12
3.006e-10
2.44e-12
2.997e-10
2.198e-12
2.988e-10
1.994e-12
2.98e-10
1.828e-12
2.973e-10
1.698e-12
2.966e-10
1.608e-12
2.96e-10
1.557e-12
2.954e-10
1.547e-12
2.947e-10
1.578e-12
2.941e-10
1.645e-12
2.936e-10
1.732e-12
1.798e-12
9.668e-10
1.296e-10
9.944e-10
2.763e-10
9.977e-10
3.344e-10
9.778e-10
3.391e-10
9.421e-10
3.171e-10
8.981e-10
2.844e-10
8.51e-10
2.495e-10
8.045e-10
2.163e-10
7.605e-10
1.865e-10
7.199e-10
1.605e-10
6.832e-10
1.381e-10
6.503e-10
1.189e-10
6.211e-10
1.024e-10
5.952e-10
8.83e-11
5.725e-10
7.613e-11
5.526e-10
6.557e-11
5.353e-10
5.635e-11
5.203e-10
4.826e-11
5.075e-10
4.109e-11
4.965e-10
3.471e-11
4.873e-10
2.896e-11
4.798e-10
2.375e-11
4.737e-10
1.897e-11
4.69e-10
1.455e-11
4.657e-10
1.043e-11
4.636e-10
6.525e-12
4.628e-10
2.797e-12
4.631e-10
-8.047e-13
4.646e-10
-4.322e-12
4.673e-10
-7.791e-12
4.71e-10
-1.125e-11
4.76e-10
-1.472e-11
4.82e-10
-1.823e-11
4.893e-10
-2.18e-11
4.978e-10
-2.546e-11
5.075e-10
-2.92e-11
5.184e-10
-3.305e-11
5.307e-10
-3.701e-11
5.443e-10
-4.106e-11
5.592e-10
-4.521e-11
5.755e-10
-4.944e-11
5.932e-10
-5.371e-11
6.123e-10
-5.8e-11
6.327e-10
-6.226e-11
6.545e-10
-6.643e-11
6.776e-10
-7.045e-11
7.019e-10
-7.423e-11
7.273e-10
-7.768e-11
7.536e-10
-8.07e-11
7.807e-10
-8.318e-11
8.084e-10
-8.5e-11
8.364e-10
-8.603e-11
8.645e-10
-8.616e-11
8.922e-10
-8.526e-11
9.192e-10
-8.324e-11
9.452e-10
-8.001e-11
9.698e-10
-7.553e-11
9.924e-10
-6.977e-11
1.013e-09
-6.276e-11
1.031e-09
-5.457e-11
1.045e-09
-4.533e-11
1.057e-09
-3.52e-11
1.065e-09
-2.439e-11
1.069e-09
-1.315e-11
1.07e-09
-1.736e-12
1.067e-09
9.602e-12
1.06e-09
2.062e-11
1.05e-09
3.108e-11
1.037e-09
4.083e-11
1.021e-09
4.969e-11
1.002e-09
5.757e-11
9.813e-10
6.44e-11
9.586e-10
7.013e-11
9.343e-10
7.477e-11
9.089e-10
7.832e-11
8.826e-10
8.084e-11
8.558e-10
8.237e-11
8.287e-10
8.3e-11
8.017e-10
8.28e-11
7.749e-10
8.187e-11
7.487e-10
8.03e-11
7.23e-10
7.818e-11
6.982e-10
7.56e-11
6.744e-10
7.267e-11
6.515e-10
6.946e-11
6.297e-10
6.604e-11
6.091e-10
6.25e-11
5.896e-10
5.888e-11
5.713e-10
5.525e-11
5.542e-10
5.165e-11
5.382e-10
4.811e-11
5.233e-10
4.468e-11
5.095e-10
4.136e-11
4.967e-10
3.818e-11
4.85e-10
3.516e-11
4.741e-10
3.23e-11
4.642e-10
2.96e-11
4.551e-10
2.707e-11
4.468e-10
2.471e-11
4.392e-10
2.251e-11
4.322e-10
2.046e-11
4.259e-10
1.858e-11
4.202e-10
1.683e-11
4.15e-10
1.523e-11
4.103e-10
1.376e-11
4.061e-10
1.241e-11
4.023e-10
1.118e-11
3.988e-10
1.006e-11
3.957e-10
9.036e-12
3.929e-10
8.108e-12
3.904e-10
7.267e-12
3.882e-10
6.507e-12
3.861e-10
5.823e-12
3.843e-10
5.208e-12
3.827e-10
4.66e-12
3.813e-10
4.173e-12
3.8e-10
3.746e-12
3.788e-10
3.374e-12
3.777e-10
3.058e-12
3.768e-10
2.794e-12
3.759e-10
2.584e-12
3.75e-10
2.427e-12
3.743e-10
2.323e-12
3.736e-10
2.272e-12
3.729e-10
2.27e-12
3.722e-10
2.31e-12
3.716e-10
2.373e-12
2.422e-12
9.592e-10
1.08e-10
9.875e-10
2.48e-10
1.003e-09
3.193e-10
9.999e-10
3.418e-10
9.821e-10
3.349e-10
9.538e-10
3.127e-10
9.194e-10
2.838e-10
8.824e-10
2.533e-10
8.452e-10
2.237e-10
8.092e-10
1.964e-10
7.754e-10
1.719e-10
7.441e-10
1.501e-10
7.157e-10
1.309e-10
6.9e-10
1.14e-10
6.67e-10
9.908e-11
6.467e-10
8.594e-11
6.287e-10
7.431e-11
6.13e-10
6.395e-11
5.994e-10
5.468e-11
5.878e-10
4.634e-11
5.78e-10
3.877e-11
5.699e-10
3.185e-11
5.634e-10
2.547e-11
5.584e-10
1.953e-11
5.549e-10
1.396e-11
5.527e-10
8.67e-12
5.519e-10
3.599e-12
5.524e-10
-1.314e-12
5.542e-10
-6.122e-12
5.573e-10
-1.087e-11
5.617e-10
-1.561e-11
5.673e-10
-2.037e-11
5.743e-10
-2.519e-11
5.826e-10
-3.009e-11
5.922e-10
-3.51e-11
6.033e-10
-4.024e-11
6.157e-10
-4.551e-11
6.296e-10
-5.092e-11
6.45e-10
-5.647e-11
6.62e-10
-6.214e-11
6.805e-10
-6.791e-11
7.005e-10
-7.375e-11
7.221e-10
-7.96e-11
7.452e-10
-8.54e-11
7.699e-10
-9.108e-11
7.96e-10
-9.654e-11
8.234e-10
-1.017e-10
8.521e-10
-1.064e-10
8.819e-10
-1.105e-10
9.126e-10
-1.138e-10
9.439e-10
-1.163e-10
9.755e-10
-1.177e-10
1.007e-09
-1.179e-10
1.039e-09
-1.166e-10
1.069e-09
-1.139e-10
1.099e-09
-1.095e-10
1.126e-09
-1.033e-10
1.152e-09
-9.547e-11
1.175e-09
-8.59e-11
1.195e-09
-7.471e-11
1.212e-09
-6.208e-11
1.225e-09
-4.823e-11
1.234e-09
-3.345e-11
1.239e-09
-1.808e-11
1.24e-09
-2.46e-12
1.237e-09
1.305e-11
1.229e-09
2.81e-11
1.218e-09
4.242e-11
1.203e-09
5.573e-11
1.185e-09
6.785e-11
1.164e-09
7.863e-11
1.14e-09
8.797e-11
1.114e-09
9.583e-11
1.087e-09
1.022e-10
1.058e-09
1.071e-10
1.028e-09
1.106e-10
9.981e-10
1.127e-10
9.675e-10
1.136e-10
9.369e-10
1.134e-10
9.066e-10
1.121e-10
8.769e-10
1.1e-10
8.479e-10
1.072e-10
8.198e-10
1.037e-10
7.927e-10
9.973e-11
7.668e-10
9.538e-11
7.421e-10
9.074e-11
7.187e-10
8.592e-11
6.966e-10
8.1e-11
6.758e-10
7.606e-11
6.563e-10
7.115e-11
6.38e-10
6.632e-11
6.211e-10
6.163e-11
6.054e-10
5.71e-11
5.908e-10
5.275e-11
5.773e-10
4.861e-11
5.65e-10
4.469e-11
5.536e-10
4.099e-11
5.431e-10
3.751e-11
5.336e-10
3.426e-11
5.248e-10
3.124e-11
5.169e-10
2.843e-11
5.096e-10
2.583e-11
5.03e-10
2.343e-11
4.97e-10
2.121e-11
4.916e-10
1.918e-11
4.867e-10
1.732e-11
4.823e-10
1.561e-11
4.783e-10
1.406e-11
4.747e-10
1.264e-11
4.714e-10
1.135e-11
4.685e-10
1.019e-11
4.659e-10
9.13e-12
4.635e-10
8.177e-12
4.614e-10
7.321e-12
4.595e-10
6.555e-12
4.578e-10
5.873e-12
4.563e-10
5.272e-12
4.549e-10
4.747e-12
4.537e-10
4.296e-12
4.526e-10
3.916e-12
4.515e-10
3.605e-12
4.506e-10
3.363e-12
4.497e-10
3.188e-12
4.489e-10
3.077e-12
4.482e-10
3.026e-12
4.475e-10
3.025e-12
4.468e-10
3.055e-12
3.086e-12
9.536e-10
9.188e-11
9.794e-10
2.221e-10
9.994e-10
2.993e-10
1.007e-09
3.34e-10
1.002e-09
3.398e-10
9.869e-10
3.28e-10
9.644e-10
3.064e-10
9.373e-10
2.803e-10
9.08e-10
2.53e-10
8.782e-10
2.263e-10
8.49e-10
2.011e-10
8.211e-10
1.78e-10
7.95e-10
1.57e-10
7.71e-10
1.38e-10
7.491e-10
1.21e-10
7.294e-10
1.057e-10
7.118e-10
9.189e-11
6.963e-10
7.948e-11
6.827e-10
6.824e-11
6.71e-10
5.802e-11
6.611e-10
4.866e-11
6.529e-10
4.004e-11
6.464e-10
3.204e-11
6.413e-10
2.456e-11
6.378e-10
1.748e-11
6.357e-10
1.074e-11
6.351e-10
4.258e-12
6.358e-10
-2.046e-12
6.379e-10
-8.231e-12
6.414e-10
-1.435e-11
6.463e-10
-2.047e-11
6.525e-10
-2.662e-11
6.602e-10
-3.285e-11
6.693e-10
-3.919e-11
6.798e-10
-4.567e-11
6.919e-10
-5.231e-11
7.055e-10
-5.913e-11
7.207e-10
-6.612e-11
7.375e-10
-7.329e-11
7.56e-10
-8.061e-11
7.761e-10
-8.806e-11
7.98e-10
-9.558e-11
8.215e-10
-1.031e-10
8.467e-10
-1.106e-10
8.736e-10
-1.179e-10
9.02e-10
-1.25e-10
9.32e-10
-1.316e-10
9.632e-10
-1.377e-10
9.957e-10
-1.43e-10
1.029e-09
-1.473e-10
1.063e-09
-1.505e-10
1.098e-09
-1.523e-10
1.133e-09
-1.526e-10
1.167e-09
-1.51e-10
1.201e-09
-1.475e-10
1.233e-09
-1.418e-10
1.264e-09
-1.339e-10
1.292e-09
-1.238e-10
1.317e-09
-1.114e-10
1.34e-09
-9.691e-11
1.358e-09
-8.055e-11
1.372e-09
-6.26e-11
1.382e-09
-4.344e-11
1.388e-09
-2.35e-11
1.389e-09
-3.247e-12
1.385e-09
1.685e-11
1.377e-09
3.636e-11
1.364e-09
5.49e-11
1.348e-09
7.213e-11
1.328e-09
8.781e-11
1.305e-09
1.017e-10
1.279e-09
1.138e-10
1.251e-09
1.24e-10
1.221e-09
1.322e-10
1.189e-09
1.386e-10
1.157e-09
1.431e-10
1.123e-09
1.458e-10
1.09e-09
1.47e-10
1.057e-09
1.468e-10
1.023e-09
1.452e-10
9.91e-10
1.425e-10
9.593e-10
1.389e-10
9.286e-10
1.344e-10
8.99e-10
1.293e-10
8.707e-10
1.237e-10
8.437e-10
1.177e-10
8.181e-10
1.115e-10
7.939e-10
1.052e-10
7.712e-10
9.881e-11
7.499e-10
9.248e-11
7.299e-10
8.626e-11
7.113e-10
8.02e-11
6.941e-10
7.435e-11
6.781e-10
6.873e-11
6.634e-10
6.337e-11
6.497e-10
5.83e-11
6.372e-10
5.35e-11
6.257e-10
4.9e-11
6.152e-10
4.479e-11
6.056e-10
4.086e-11
5.968e-10
3.722e-11
5.888e-10
3.383e-11
5.815e-10
3.071e-11
5.749e-10
2.783e-11
5.689e-10
2.519e-11
5.634e-10
2.276e-11
5.585e-10
2.054e-11
5.541e-10
1.851e-11
5.501e-10
1.665e-11
5.464e-10
1.497e-11
5.432e-10
1.344e-11
5.403e-10
1.206e-11
5.376e-10
1.081e-11
5.353e-10
9.682e-12
5.332e-10
8.673e-12
5.313e-10
7.775e-12
5.295e-10
6.979e-12
5.28e-10
6.281e-12
5.266e-10
5.676e-12
5.254e-10
5.161e-12
5.243e-10
4.733e-12
5.232e-10
4.389e-12
5.223e-10
4.126e-12
5.214e-10
3.941e-12
5.206e-10
3.827e-12
5.199e-10
3.774e-12
5.192e-10
3.765e-12
3.775e-12
9.497e-10
7.963e-11
9.723e-10
1.996e-10
9.936e-10
2.78e-10
1.007e-09
3.205e-10
1.011e-09
3.36e-10
1.006e-09
3.333e-10
9.931e-10
3.19e-10
9.752e-10
2.983e-10
9.538e-10
2.743e-10
9.307e-10
2.494e-10
9.069e-10
2.249e-10
8.834e-10
2.015e-10
8.607e-10
1.796e-10
8.394e-10
1.594e-10
8.195e-10
1.408e-10
8.014e-10
1.238e-10
7.85e-10
1.083e-10
7.703e-10
9.414e-11
7.574e-10
8.115e-11
7.462e-10
6.922e-11
7.367e-10
5.82e-11
7.288e-10
4.796e-11
7.224e-10
3.839e-11
7.176e-10
2.937e-11
7.143e-10
2.081e-11
7.124e-10
1.261e-11
7.12e-10
4.687e-12
7.13e-10
-3.039e-12
7.154e-10
-1.064e-11
7.192e-10
-1.818e-11
7.245e-10
-2.573e-11
7.312e-10
-3.333e-11
7.394e-10
-4.103e-11
7.49e-10
-4.888e-11
7.603e-10
-5.69e-11
7.731e-10
-6.512e-11
7.875e-10
-7.356e-11
8.036e-10
-8.222e-11
8.214e-10
-9.109e-11
8.41e-10
-1.002e-10
8.623e-10
-1.094e-10
8.854e-10
-1.187e-10
9.103e-10
-1.28e-10
9.37e-10
-1.373e-10
9.655e-10
-1.464e-10
9.956e-10
-1.551e-10
1.027e-09
-1.634e-10
1.061e-09
-1.709e-10
1.095e-09
-1.775e-10
1.131e-09
-1.829e-10
1.167e-09
-1.869e-10
1.204e-09
-1.893e-10
1.241e-09
-1.896e-10
1.278e-09
-1.878e-10
1.314e-09
-1.835e-10
1.349e-09
-1.765e-10
1.381e-09
-1.668e-10
1.412e-09
-1.542e-10
1.439e-09
-1.389e-10
1.463e-09
-1.209e-10
1.483e-09
-1.005e-10
1.499e-09
-7.811e-11
1.51e-09
-5.421e-11
1.515e-09
-2.932e-11
1.516e-09
-4.053e-12
1.512e-09
2.101e-11
1.503e-09
4.532e-11
1.49e-09
6.839e-11
1.472e-09
8.981e-11
1.45e-09
1.093e-10
1.426e-09
1.266e-10
1.398e-09
1.416e-10
1.368e-09
1.542e-10
1.336e-09
1.643e-10
1.302e-09
1.722e-10
1.267e-09
1.778e-10
1.232e-09
1.812e-10
1.196e-09
1.827e-10
1.161e-09
1.824e-10
1.125e-09
1.804e-10
1.091e-09
1.771e-10
1.057e-09
1.726e-10
1.025e-09
1.67e-10
9.931e-10
1.607e-10
9.631e-10
1.538e-10
9.344e-10
1.464e-10
9.072e-10
1.387e-10
8.815e-10
1.309e-10
8.574e-10
1.23e-10
8.347e-10
1.151e-10
8.135e-10
1.074e-10
7.938e-10
9.993e-11
7.755e-10
9.268e-11
7.585e-10
8.572e-11
7.428e-10
7.908e-11
7.283e-10
7.278e-11
7.15e-10
6.683e-11
7.027e-10
6.125e-11
6.915e-10
5.601e-11
6.812e-10
5.113e-11
6.719e-10
4.66e-11
6.633e-10
4.239e-11
6.555e-10
3.85e-11
6.484e-10
3.492e-11
6.42e-10
3.162e-11
6.362e-10
2.859e-11
6.309e-10
2.582e-11
6.261e-10
2.328e-11
6.218e-10
2.097e-11
6.179e-10
1.886e-11
6.144e-10
1.695e-11
6.112e-10
1.521e-11
6.084e-10
1.364e-11
6.059e-10
1.223e-11
6.036e-10
1.096e-11
6.015e-10
9.828e-12
5.997e-10
8.821e-12
5.98e-10
7.934e-12
5.965e-10
7.162e-12
5.952e-10
6.498e-12
5.94e-10
5.938e-12
5.929e-10
5.479e-12
5.919e-10
5.116e-12
5.91e-10
4.844e-12
5.902e-10
4.657e-12
5.894e-10
4.544e-12
5.887e-10
4.491e-12
4.478e-12
9.471e-10
7.001e-11
9.667e-10
1.8e-10
9.876e-10
2.572e-10
1.004e-09
3.04e-10
1.014e-09
3.265e-10
1.016e-09
3.313e-10
1.011e-09
3.237e-10
1.001e-09
3.083e-10
9.868e-10
2.883e-10
9.701e-10
2.661e-10
9.52e-10
2.43e-10
9.333e-10
2.202e-10
9.146e-10
1.982e-10
8.965e-10
1.774e-10
8.794e-10
1.579e-10
8.634e-10
1.398e-10
8.488e-10
1.23e-10
8.355e-10
1.074e-10
8.238e-10
9.292e-11
8.135e-10
7.95e-11
8.047e-10
6.698e-11
7.974e-10
5.526e-11
7.915e-10
4.423e-11
7.872e-10
3.376e-11
7.842e-10
2.377e-11
7.826e-10
1.415e-11
7.825e-10
4.818e-12
7.838e-10
-4.316e-12
7.865e-10
-1.333e-11
7.906e-10
-2.23e-11
7.962e-10
-3.128e-11
8.032e-10
-4.035e-11
8.117e-10
-4.955e-11
8.218e-10
-5.893e-11
8.334e-10
-6.853e-11
8.466e-10
-7.837e-11
8.615e-10
-8.847e-11
8.782e-10
-9.885e-11
8.966e-10
-1.095e-10
9.167e-10
-1.203e-10
9.387e-10
-1.314e-10
9.626e-10
-1.426e-10
9.884e-10
-1.538e-10
1.016e-09
-1.649e-10
1.045e-09
-1.758e-10
1.077e-09
-1.863e-10
1.11e-09
-1.963e-10
1.144e-09
-2.054e-10
1.18e-09
-2.134e-10
1.217e-09
-2.2e-10
1.255e-09
-2.25e-10
1.294e-09
-2.279e-10
1.333e-09
-2.285e-10
1.371e-09
-2.264e-10
1.409e-09
-2.214e-10
1.446e-09
-2.131e-10
1.48e-09
-2.015e-10
1.513e-09
-1.865e-10
1.542e-09
-1.68e-10
1.567e-09
-1.463e-10
1.589e-09
-1.217e-10
1.605e-09
-9.46e-11
1.616e-09
-6.562e-11
1.623e-09
-3.545e-11
1.623e-09
-4.825e-12
1.619e-09
2.553e-11
1.609e-09
5.493e-11
1.595e-09
8.278e-11
1.576e-09
1.086e-10
1.553e-09
1.32e-10
1.527e-09
1.528e-10
1.498e-09
1.708e-10
1.466e-09
1.859e-10
1.432e-09
1.981e-10
1.397e-09
2.075e-10
1.361e-09
2.141e-10
1.324e-09
2.182e-10
1.286e-09
2.199e-10
1.249e-09
2.195e-10
1.213e-09
2.171e-10
1.177e-09
2.131e-10
1.141e-09
2.076e-10
1.108e-09
2.01e-10
1.075e-09
1.933e-10
1.044e-09
1.85e-10
1.014e-09
1.761e-10
9.858e-10
1.669e-10
9.592e-10
1.575e-10
9.341e-10
1.48e-10
9.107e-10
1.386e-10
8.887e-10
1.294e-10
8.683e-10
1.204e-10
8.493e-10
1.117e-10
8.317e-10
1.033e-10
8.155e-10
9.534e-11
8.005e-10
8.779e-11
7.867e-10
8.065e-11
7.74e-10
7.394e-11
7.623e-10
6.766e-11
7.517e-10
6.179e-11
7.419e-10
5.634e-11
7.33e-10
5.128e-11
7.249e-10
4.66e-11
7.175e-10
4.229e-11
7.109e-10
3.832e-11
7.048e-10
3.467e-11
6.993e-10
3.132e-11
6.943e-10
2.826e-11
6.898e-10
2.547e-11
6.857e-10
2.293e-11
6.82e-10
2.061e-11
6.787e-10
1.851e-11
6.758e-10
1.661e-11
6.731e-10
1.49e-11
6.707e-10
1.336e-11
6.686e-10
1.198e-11
6.666e-10
1.075e-11
6.649e-10
9.666e-12
6.633e-10
8.714e-12
6.619e-10
7.891e-12
6.607e-10
7.19e-12
6.596e-10
6.605e-12
6.585e-10
6.133e-12
6.576e-10
5.766e-12
6.568e-10
5.498e-12
6.56e-10
5.319e-12
6.553e-10
5.219e-12
5.181e-12
9.453e-10
6.221e-11
9.623e-10
1.63e-10
9.821e-10
2.374e-10
9.998e-10
2.862e-10
1.013e-09
3.136e-10
1.02e-09
3.241e-10
1.021e-09
3.223e-10
1.018e-09
3.12e-10
1.01e-09
2.96e-10
9.994e-10
2.767e-10
9.867e-10
2.557e-10
9.728e-10
2.341e-10
9.583e-10
2.127e-10
9.439e-10
1.919e-10
9.298e-10
1.72e-10
9.164e-10
1.532e-10
9.039e-10
1.355e-10
8.925e-10
1.188e-10
8.822e-10
1.032e-10
8.732e-10
8.853e-11
8.654e-10
7.474e-11
8.59e-10
6.171e-11
8.538e-10
4.936e-11
8.5e-10
3.757e-11
8.476e-10
2.624e-11
8.464e-10
1.528e-11
8.466e-10
4.606e-12
8.482e-10
-5.885e-12
8.512e-10
-1.627e-11
8.555e-10
-2.663e-11
8.612e-10
-3.703e-11
8.684e-10
-4.754e-11
8.771e-10
-5.823e-11
8.873e-10
-6.913e-11
8.991e-10
-8.03e-11
9.125e-10
-9.176e-11
9.275e-10
-1.035e-10
9.443e-10
-1.156e-10
9.628e-10
-1.28e-10
9.832e-10
-1.407e-10
1.005e-09
-1.536e-10
1.03e-09
-1.667e-10
1.056e-09
-1.798e-10
1.084e-09
-1.929e-10
1.113e-09
-2.057e-10
1.145e-09
-2.18e-10
1.179e-09
-2.298e-10
1.214e-09
-2.405e-10
1.25e-09
-2.5e-10
1.288e-09
-2.58e-10
1.327e-09
-2.64e-10
1.367e-09
-2.676e-10
1.407e-09
-2.685e-10
1.447e-09
-2.663e-10
1.486e-09
-2.607e-10
1.524e-09
-2.512e-10
1.561e-09
-2.378e-10
1.594e-09
-2.202e-10
1.625e-09
-1.986e-10
1.652e-09
-1.73e-10
1.674e-09
-1.44e-10
1.691e-09
-1.119e-10
1.703e-09
-7.756e-11
1.71e-09
-4.179e-11
1.71e-09
-5.5e-12
1.705e-09
3.042e-11
1.695e-09
6.515e-11
1.68e-09
9.799e-11
1.66e-09
1.284e-10
1.636e-09
1.559e-10
1.609e-09
1.802e-10
1.579e-09
2.012e-10
1.546e-09
2.188e-10
1.511e-09
2.33e-10
1.474e-09
2.439e-10
1.437e-09
2.516e-10
1.399e-09
2.563e-10
1.36e-09
2.582e-10
1.322e-09
2.576e-10
1.285e-09
2.547e-10
1.248e-09
2.499e-10
1.212e-09
2.434e-10
1.178e-09
2.355e-10
1.144e-09
2.266e-10
1.113e-09
2.167e-10
1.082e-09
2.063e-10
1.054e-09
1.955e-10
1.027e-09
1.845e-10
1.001e-09
1.734e-10
9.776e-10
1.624e-10
9.554e-10
1.516e-10
9.348e-10
1.41e-10
9.156e-10
1.309e-10
8.978e-10
1.211e-10
8.813e-10
1.118e-10
8.661e-10
1.03e-10
8.522e-10
9.462e-11
8.393e-10
8.678e-11
8.275e-10
7.944e-11
8.168e-10
7.258e-11
8.069e-10
6.621e-11
7.979e-10
6.029e-11
7.897e-10
5.482e-11
7.822e-10
4.976e-11
7.754e-10
4.511e-11
7.692e-10
4.084e-11
7.636e-10
3.692e-11
7.586e-10
3.333e-11
7.54e-10
3.005e-11
7.498e-10
2.707e-11
7.461e-10
2.435e-11
7.427e-10
2.188e-11
7.397e-10
1.965e-11
7.37e-10
1.763e-11
7.345e-10
1.581e-11
7.323e-10
1.418e-11
7.304e-10
1.272e-11
7.286e-10
1.143e-11
7.27e-10
1.029e-11
7.256e-10
9.306e-12
7.243e-10
8.457e-12
7.232e-10
7.741e-12
7.222e-10
7.153e-12
7.213e-10
6.685e-12
7.204e-10
6.332e-12
7.197e-10
6.085e-12
7.189e-10
5.935e-12
5.872e-12
9.44e-10
5.572e-11
9.589e-10
1.481e-10
9.773e-10
2.189e-10
9.954e-10
2.682e-10
1.01e-09
2.986e-10
1.021e-09
3.134e-10
1.027e-09
3.163e-10
1.029e-09
3.104e-10
1.026e-09
2.983e-10
1.021e-09
2.821e-10
1.013e-09
2.634e-10
1.004e-09
2.435e-10
9.935e-10
2.23e-10
9.827e-10
2.027e-10
9.718e-10
1.829e-10
9.612e-10
1.638e-10
9.511e-10
1.456e-10
9.418e-10
1.282e-10
9.332e-10
1.117e-10
9.257e-10
9.608e-11
9.192e-10
8.125e-11
9.138e-10
6.712e-11
9.095e-10
5.362e-11
9.064e-10
4.066e-11
9.045e-10
2.813e-11
9.039e-10
1.595e-11
9.044e-10
4.028e-12
9.063e-10
-7.73e-12
9.094e-10
-1.941e-11
9.139e-10
-3.109e-11
9.197e-10
-4.284e-11
9.269e-10
-5.475e-11
9.355e-10
-6.687e-11
9.457e-10
-7.925e-11
9.573e-10
-9.195e-11
9.705e-10
-1.05e-10
9.854e-10
-1.184e-10
1.002e-09
-1.322e-10
1.02e-09
-1.463e-10
1.04e-09
-1.608e-10
1.062e-09
-1.756e-10
1.086e-09
-1.905e-10
1.112e-09
-2.056e-10
1.14e-09
-2.206e-10
1.169e-09
-2.353e-10
1.201e-09
-2.496e-10
1.234e-09
-2.632e-10
1.27e-09
-2.757e-10
1.306e-09
-2.868e-10
1.344e-09
-2.962e-10
1.384e-09
-3.033e-10
1.424e-09
-3.079e-10
1.465e-09
-3.093e-10
1.506e-09
-3.071e-10
1.546e-09
-3.009e-10
1.585e-09
-2.904e-10
1.622e-09
-2.751e-10
1.657e-09
-2.551e-10
1.689e-09
-2.303e-10
1.717e-09
-2.008e-10
1.74e-09
-1.671e-10
1.758e-09
-1.298e-10
1.77e-09
-8.988e-11
1.776e-09
-4.823e-11
1.777e-09
-6.003e-12
1.772e-09
3.573e-11
1.761e-09
7.598e-11
1.745e-09
1.139e-10
1.724e-09
1.489e-10
1.7e-09
1.805e-10
1.671e-09
2.085e-10
1.64e-09
2.325e-10
1.606e-09
2.526e-10
1.571e-09
2.687e-10
1.534e-09
2.81e-10
1.496e-09
2.897e-10
1.457e-09
2.949e-10
1.418e-09
2.969e-10
1.38e-09
2.96e-10
1.342e-09
2.925e-10
1.305e-09
2.869e-10
1.269e-09
2.793e-10
1.235e-09
2.701e-10
1.201e-09
2.598e-10
1.17e-09
2.484e-10
1.14e-09
2.364e-10
1.111e-09
2.24e-10
1.084e-09
2.113e-10
1.059e-09
1.986e-10
1.036e-09
1.859e-10
1.014e-09
1.735e-10
9.932e-10
1.615e-10
9.742e-10
1.499e-10
9.566e-10
1.387e-10
9.403e-10
1.281e-10
9.253e-10
1.18e-10
9.115e-10
1.084e-10
8.988e-10
9.947e-11
8.872e-10
9.108e-11
8.765e-10
8.325e-11
8.667e-10
7.596e-11
8.578e-10
6.92e-11
8.497e-10
6.294e-11
8.423e-10
5.716e-11
8.356e-10
5.184e-11
8.295e-10
4.695e-11
8.239e-10
4.246e-11
8.189e-10
3.836e-11
8.143e-10
3.46e-11
8.102e-10
3.118e-11
8.065e-10
2.806e-11
8.032e-10
2.523e-11
8.002e-10
2.266e-11
7.975e-10
2.034e-11
7.95e-10
1.824e-11
7.928e-10
1.636e-11
7.909e-10
1.468e-11
7.891e-10
1.318e-11
7.876e-10
1.186e-11
7.862e-10
1.071e-11
7.849e-10
9.709e-12
7.838e-10
8.86e-12
7.828e-10
8.153e-12
7.819e-10
7.582e-12
7.811e-10
7.142e-12
7.803e-10
6.824e-12
7.796e-10
6.624e-12
6.536e-12
9.43e-10
5.02e-11
9.562e-10
1.349e-10
9.733e-10
2.018e-10
9.911e-10
2.504e-10
1.007e-09
2.824e-10
1.02e-09
3.004e-10
1.03e-09
3.07e-10
1.035e-09
3.048e-10
1.037e-09
2.962e-10
1.036e-09
2.83e-10
1.033e-09
2.667e-10
1.028e-09
2.486e-10
1.022e-09
2.295e-10
1.014e-09
2.1e-10
1.007e-09
1.906e-10
9.989e-10
1.716e-10
9.913e-10
1.532e-10
9.841e-10
1.354e-10
9.774e-10
1.184e-10
9.715e-10
1.02e-10
9.664e-10
8.639e-11
9.621e-10
7.138e-11
9.588e-10
5.693e-11
9.565e-10
4.296e-11
9.552e-10
2.939e-11
9.551e-10
1.613e-11
9.56e-10
3.091e-12
9.581e-10
-9.817e-12
9.614e-10
-2.268e-11
9.659e-10
-3.558e-11
9.716e-10
-4.86e-11
9.787e-10
-6.181e-11
9.871e-10
-7.528e-11
9.969e-10
-8.906e-11
1.008e-09
-1.032e-10
1.021e-09
-1.178e-10
1.035e-09
-1.328e-10
1.051e-09
-1.482e-10
1.069e-09
-1.64e-10
1.088e-09
-1.803e-10
1.11e-09
-1.968e-10
1.133e-09
-2.137e-10
1.158e-09
-2.306e-10
1.185e-09
-2.475e-10
1.214e-09
-2.642e-10
1.244e-09
-2.804e-10
1.277e-09
-2.959e-10
1.312e-09
-3.102e-10
1.348e-09
-3.231e-10
1.386e-09
-3.34e-10
1.425e-09
-3.424e-10
1.465e-09
-3.48e-10
1.506e-09
-3.5e-10
1.547e-09
-3.48e-10
1.587e-09
-3.415e-10
1.627e-09
-3.3e-10