/*--------------------------------*- C++ -*----------------------------------*\
  =========                 |
  \\      /  F ield         | OpenFOAM: The Open Source CFD Toolbox
   \\    /   O peration     | Website:  https://openfoam.org
    \\  /    A nd           | Version:  7
     \\/     M anipulation  |
\*---------------------------------------------------------------------------*/
FoamFile
{
    version     2.0;
    format      ascii;
    class       volVectorField;
    location    "2459.99947344194379";
    object      U;
}
// * * * * * * * * * * * * * * * * * * * * * * * * * * * * * * * * * * * * * //

dimensions      [0 1 -1 0 0 0 0];

internalField   nonuniform List<vector> 
4096
(
(0.001039 0.0001611 0)
(0.0007463 0.0001314 0)
(0.0005302 8.474e-05 0)
(0.0003919 5.359e-05 0)
(0.0003036 3.467e-05 0)
(0.0002457 2.329e-05 0)
(0.000206 1.634e-05 0)
(0.0001777 1.196e-05 0)
(0.0001567 9.072e-06 0)
(0.0001405 7.087e-06 0)
(0.0001278 5.662e-06 0)
(0.0001175 4.602e-06 0)
(0.0001091 3.79e-06 0)
(0.0001022 3.151e-06 0)
(9.641e-05 2.637e-06 0)
(9.156e-05 2.217e-06 0)
(8.747e-05 1.867e-06 0)
(8.403e-05 1.572e-06 0)
(8.114e-05 1.32e-06 0)
(7.872e-05 1.101e-06 0)
(7.671e-05 9.098e-07 0)
(7.506e-05 7.395e-07 0)
(7.373e-05 5.865e-07 0)
(7.27e-05 4.47e-07 0)
(7.193e-05 3.183e-07 0)
(7.142e-05 1.978e-07 0)
(7.114e-05 8.362e-08 0)
(7.108e-05 -2.616e-08 0)
(7.124e-05 -1.331e-07 0)
(7.161e-05 -2.384e-07 0)
(7.219e-05 -3.435e-07 0)
(7.298e-05 -4.493e-07 0)
(7.399e-05 -5.568e-07 0)
(7.521e-05 -6.668e-07 0)
(7.666e-05 -7.799e-07 0)
(7.834e-05 -8.967e-07 0)
(8.025e-05 -1.017e-06 0)
(8.241e-05 -1.143e-06 0)
(8.483e-05 -1.272e-06 0)
(8.75e-05 -1.405e-06 0)
(9.045e-05 -1.542e-06 0)
(9.367e-05 -1.682e-06 0)
(9.718e-05 -1.824e-06 0)
(0.000101 -1.965e-06 0)
(0.000105 -2.106e-06 0)
(0.0001094 -2.242e-06 0)
(0.000114 -2.373e-06 0)
(0.0001189 -2.493e-06 0)
(0.000124 -2.601e-06 0)
(0.0001293 -2.692e-06 0)
(0.0001347 -2.761e-06 0)
(0.0001403 -2.805e-06 0)
(0.0001459 -2.819e-06 0)
(0.0001515 -2.799e-06 0)
(0.0001571 -2.74e-06 0)
(0.0001624 -2.641e-06 0)
(0.0001676 -2.498e-06 0)
(0.0001724 -2.311e-06 0)
(0.0001768 -2.081e-06 0)
(0.0001807 -1.809e-06 0)
(0.000184 -1.501e-06 0)
(0.0001866 -1.162e-06 0)
(0.0001886 -7.99e-07 0)
(0.0001898 -4.213e-07 0)
(0.0001903 -3.789e-08 0)
(0.00019 3.421e-07 0)
(0.0001889 7.099e-07 0)
(0.0001872 1.058e-06 0)
(0.0001847 1.38e-06 0)
(0.0001817 1.67e-06 0)
(0.0001781 1.926e-06 0)
(0.000174 2.145e-06 0)
(0.0001695 2.326e-06 0)
(0.0001647 2.469e-06 0)
(0.0001597 2.576e-06 0)
(0.0001545 2.648e-06 0)
(0.0001491 2.686e-06 0)
(0.0001438 2.695e-06 0)
(0.0001384 2.677e-06 0)
(0.0001331 2.635e-06 0)
(0.0001279 2.573e-06 0)
(0.0001228 2.494e-06 0)
(0.0001179 2.401e-06 0)
(0.0001132 2.297e-06 0)
(0.0001087 2.185e-06 0)
(0.0001045 2.068e-06 0)
(0.0001005 1.947e-06 0)
(9.668e-05 1.826e-06 0)
(9.315e-05 1.705e-06 0)
(8.986e-05 1.586e-06 0)
(8.68e-05 1.471e-06 0)
(8.397e-05 1.359e-06 0)
(8.136e-05 1.252e-06 0)
(7.896e-05 1.15e-06 0)
(7.675e-05 1.054e-06 0)
(7.474e-05 9.632e-07 0)
(7.29e-05 8.783e-07 0)
(7.122e-05 7.992e-07 0)
(6.969e-05 7.258e-07 0)
(6.831e-05 6.578e-07 0)
(6.706e-05 5.95e-07 0)
(6.592e-05 5.373e-07 0)
(6.49e-05 4.844e-07 0)
(6.398e-05 4.359e-07 0)
(6.315e-05 3.917e-07 0)
(6.241e-05 3.514e-07 0)
(6.175e-05 3.147e-07 0)
(6.115e-05 2.814e-07 0)
(6.062e-05 2.513e-07 0)
(6.014e-05 2.241e-07 0)
(5.972e-05 1.996e-07 0)
(5.934e-05 1.775e-07 0)
(5.901e-05 1.577e-07 0)
(5.871e-05 1.401e-07 0)
(5.844e-05 1.245e-07 0)
(5.821e-05 1.108e-07 0)
(5.8e-05 9.893e-08 0)
(5.781e-05 8.884e-08 0)
(5.764e-05 8.055e-08 0)
(5.749e-05 7.414e-08 0)
(5.734e-05 6.978e-08 0)
(5.72e-05 6.779e-08 0)
(5.707e-05 6.879e-08 0)
(5.692e-05 7.389e-08 0)
(5.677e-05 8.524e-08 0)
(5.657e-05 1.064e-07 0)
(5.633e-05 1.413e-07 0)
(5.6e-05 1.837e-07 0)
(0.001209 0.0003128 0)
(0.001154 0.0003282 0)
(0.00101 0.000248 0)
(0.0008612 0.0001771 0)
(0.0007344 0.0001263 0)
(0.0006326 9.15e-05 0)
(0.0005524 6.796e-05 0)
(0.0004892 5.182e-05 0)
(0.0004389 4.048e-05 0)
(0.0003985 3.228e-05 0)
(0.0003656 2.617e-05 0)
(0.0003384 2.15e-05 0)
(0.0003158 1.785e-05 0)
(0.0002969 1.493e-05 0)
(0.000281 1.256e-05 0)
(0.0002676 1.06e-05 0)
(0.0002562 8.962e-06 0)
(0.0002465 7.568e-06 0)
(0.0002384 6.369e-06 0)
(0.0002315 5.326e-06 0)
(0.0002258 4.408e-06 0)
(0.0002211 3.591e-06 0)
(0.0002173 2.853e-06 0)
(0.0002143 2.18e-06 0)
(0.0002121 1.558e-06 0)
(0.0002106 9.756e-07 0)
(0.0002098 4.228e-07 0)
(0.0002096 -1.087e-07 0)
(0.00021 -6.259e-07 0)
(0.000211 -1.136e-06 0)
(0.0002126 -1.643e-06 0)
(0.0002148 -2.153e-06 0)
(0.0002177 -2.671e-06 0)
(0.0002211 -3.199e-06 0)
(0.0002251 -3.741e-06 0)
(0.0002298 -4.3e-06 0)
(0.0002352 -4.876e-06 0)
(0.0002412 -5.471e-06 0)
(0.0002479 -6.085e-06 0)
(0.0002554 -6.717e-06 0)
(0.0002636 -7.364e-06 0)
(0.0002725 -8.022e-06 0)
(0.0002822 -8.686e-06 0)
(0.0002926 -9.35e-06 0)
(0.0003039 -1.001e-05 0)
(0.0003158 -1.064e-05 0)
(0.0003285 -1.124e-05 0)
(0.0003418 -1.18e-05 0)
(0.0003557 -1.229e-05 0)
(0.0003701 -1.27e-05 0)
(0.0003849 -1.301e-05 0)
(0.0003999 -1.32e-05 0)
(0.0004151 -1.325e-05 0)
(0.0004303 -1.313e-05 0)
(0.0004452 -1.284e-05 0)
(0.0004596 -1.236e-05 0)
(0.0004734 -1.169e-05 0)
(0.0004863 -1.08e-05 0)
(0.000498 -9.721e-06 0)
(0.0005084 -8.451e-06 0)
(0.0005172 -7.012e-06 0)
(0.0005244 -5.432e-06 0)
(0.0005296 -3.745e-06 0)
(0.0005329 -1.988e-06 0)
(0.0005342 -2.052e-07 0)
(0.0005334 1.563e-06 0)
(0.0005307 3.278e-06 0)
(0.0005261 4.903e-06 0)
(0.0005196 6.41e-06 0)
(0.0005115 7.774e-06 0)
(0.000502 8.98e-06 0)
(0.0004911 1.002e-05 0)
(0.0004792 1.088e-05 0)
(0.0004663 1.157e-05 0)
(0.0004527 1.208e-05 0)
(0.0004387 1.244e-05 0)
(0.0004243 1.264e-05 0)
(0.0004097 1.27e-05 0)
(0.0003951 1.263e-05 0)
(0.0003807 1.245e-05 0)
(0.0003664 1.218e-05 0)
(0.0003526 1.182e-05 0)
(0.0003392 1.139e-05 0)
(0.0003263 1.092e-05 0)
(0.0003139 1.04e-05 0)
(0.0003022 9.856e-06 0)
(0.000291 9.296e-06 0)
(0.0002806 8.729e-06 0)
(0.0002707 8.163e-06 0)
(0.0002615 7.605e-06 0)
(0.000253 7.06e-06 0)
(0.0002451 6.533e-06 0)
(0.0002377 6.028e-06 0)
(0.0002309 5.545e-06 0)
(0.0002247 5.088e-06 0)
(0.000219 4.657e-06 0)
(0.0002138 4.253e-06 0)
(0.000209 3.876e-06 0)
(0.0002047 3.525e-06 0)
(0.0002007 3.199e-06 0)
(0.0001971 2.898e-06 0)
(0.0001939 2.621e-06 0)
(0.0001909 2.366e-06 0)
(0.0001883 2.133e-06 0)
(0.0001859 1.919e-06 0)
(0.0001837 1.724e-06 0)
(0.0001818 1.547e-06 0)
(0.00018 1.386e-06 0)
(0.0001785 1.24e-06 0)
(0.0001771 1.107e-06 0)
(0.0001758 9.88e-07 0)
(0.0001747 8.806e-07 0)
(0.0001737 7.843e-07 0)
(0.0001728 6.982e-07 0)
(0.000172 6.219e-07 0)
(0.0001713 5.547e-07 0)
(0.0001707 4.964e-07 0)
(0.0001701 4.466e-07 0)
(0.0001696 4.055e-07 0)
(0.0001691 3.732e-07 0)
(0.0001687 3.503e-07 0)
(0.0001683 3.38e-07 0)
(0.0001679 3.381e-07 0)
(0.0001675 3.535e-07 0)
(0.0001671 3.893e-07 0)
(0.0001666 4.521e-07 0)
(0.0001661 5.453e-07 0)
(0.0001656 6.426e-07 0)
(0.001226 0.0002775 0)
(0.001243 0.0004027 0)
(0.001194 0.0003664 0)
(0.001102 0.0002983 0)
(0.0009996 0.0002346 0)
(0.0009014 0.0001832 0)
(0.000814 0.0001439 0)
(0.0007388 0.0001143 0)
(0.000675 9.204e-05 0)
(0.0006211 7.503e-05 0)
(0.0005756 6.185e-05 0)
(0.0005371 5.146e-05 0)
(0.0005044 4.313e-05 0)
(0.0004766 3.636e-05 0)
(0.0004529 3.078e-05 0)
(0.0004327 2.611e-05 0)
(0.0004154 2.215e-05 0)
(0.0004006 1.877e-05 0)
(0.0003881 1.585e-05 0)
(0.0003775 1.328e-05 0)
(0.0003686 1.102e-05 0)
(0.0003613 8.993e-06 0)
(0.0003554 7.16e-06 0)
(0.0003508 5.482e-06 0)
(0.0003473 3.928e-06 0)
(0.000345 2.469e-06 0)
(0.0003436 1.083e-06 0)
(0.0003433 -2.493e-07 0)
(0.000344 -1.547e-06 0)
(0.0003455 -2.825e-06 0)
(0.0003481 -4.097e-06 0)
(0.0003515 -5.375e-06 0)
(0.000356 -6.669e-06 0)
(0.0003613 -7.988e-06 0)
(0.0003677 -9.34e-06 0)
(0.000375 -1.073e-05 0)
(0.0003834 -1.216e-05 0)
(0.0003928 -1.364e-05 0)
(0.0004033 -1.516e-05 0)
(0.0004149 -1.672e-05 0)
(0.0004277 -1.831e-05 0)
(0.0004416 -1.993e-05 0)
(0.0004567 -2.156e-05 0)
(0.0004729 -2.318e-05 0)
(0.0004903 -2.478e-05 0)
(0.0005088 -2.632e-05 0)
(0.0005284 -2.778e-05 0)
(0.0005489 -2.913e-05 0)
(0.0005704 -3.031e-05 0)
(0.0005926 -3.129e-05 0)
(0.0006154 -3.202e-05 0)
(0.0006386 -3.245e-05 0)
(0.0006619 -3.253e-05 0)
(0.0006852 -3.223e-05 0)
(0.000708 -3.15e-05 0)
(0.0007301 -3.03e-05 0)
(0.0007512 -2.861e-05 0)
(0.0007709 -2.644e-05 0)
(0.0007889 -2.379e-05 0)
(0.0008048 -2.068e-05 0)
(0.0008183 -1.716e-05 0)
(0.0008292 -1.331e-05 0)
(0.0008373 -9.19e-06 0)
(0.0008424 -4.908e-06 0)
(0.0008444 -5.601e-07 0)
(0.0008433 3.755e-06 0)
(0.0008392 7.943e-06 0)
(0.0008321 1.192e-05 0)
(0.0008223 1.561e-05 0)
(0.00081 1.896e-05 0)
(0.0007955 2.193e-05 0)
(0.0007789 2.449e-05 0)
(0.0007606 2.663e-05 0)
(0.000741 2.834e-05 0)
(0.0007202 2.964e-05 0)
(0.0006986 3.054e-05 0)
(0.0006765 3.107e-05 0)
(0.0006541 3.125e-05 0)
(0.0006316 3.112e-05 0)
(0.0006093 3.071e-05 0)
(0.0005874 3.007e-05 0)
(0.0005659 2.922e-05 0)
(0.0005451 2.82e-05 0)
(0.0005251 2.705e-05 0)
(0.0005059 2.58e-05 0)
(0.0004876 2.448e-05 0)
(0.0004703 2.312e-05 0)
(0.000454 2.173e-05 0)
(0.0004386 2.035e-05 0)
(0.0004242 1.898e-05 0)
(0.0004108 1.764e-05 0)
(0.0003984 1.635e-05 0)
(0.0003868 1.51e-05 0)
(0.0003761 1.391e-05 0)
(0.0003663 1.278e-05 0)
(0.0003573 1.171e-05 0)
(0.000349 1.071e-05 0)
(0.0003414 9.767e-06 0)
(0.0003345 8.893e-06 0)
(0.0003282 8.081e-06 0)
(0.0003225 7.33e-06 0)
(0.0003173 6.638e-06 0)
(0.0003126 6e-06 0)
(0.0003084 5.415e-06 0)
(0.0003045 4.88e-06 0)
(0.000301 4.39e-06 0)
(0.0002979 3.944e-06 0)
(0.0002951 3.538e-06 0)
(0.0002926 3.17e-06 0)
(0.0002903 2.836e-06 0)
(0.0002883 2.535e-06 0)
(0.0002865 2.263e-06 0)
(0.0002849 2.019e-06 0)
(0.0002834 1.8e-06 0)
(0.0002821 1.606e-06 0)
(0.000281 1.435e-06 0)
(0.0002799 1.286e-06 0)
(0.000279 1.159e-06 0)
(0.0002781 1.052e-06 0)
(0.0002774 9.671e-07 0)
(0.0002767 9.046e-07 0)
(0.000276 8.661e-07 0)
(0.0002753 8.542e-07 0)
(0.0002747 8.726e-07 0)
(0.0002741 9.254e-07 0)
(0.0002734 1.016e-06 0)
(0.0002728 1.137e-06 0)
(0.0002721 1.243e-06 0)
(0.001224 0.0002275 0)
(0.00126 0.0004004 0)
(0.001258 0.0004194 0)
(0.001216 0.000379 0)
(0.001149 0.0003231 0)
(0.001073 0.0002688 0)
(0.0009969 0.0002218 0)
(0.0009255 0.0001831 0)
(0.0008607 0.0001518 0)
(0.0008033 0.0001266 0)
(0.0007529 0.0001062 0)
(0.0007089 8.957e-05 0)
(0.0006707 7.591e-05 0)
(0.0006376 6.456e-05 0)
(0.0006088 5.503e-05 0)
(0.000584 4.696e-05 0)
(0.0005625 4.005e-05 0)
(0.0005441 3.407e-05 0)
(0.0005283 2.886e-05 0)
(0.0005149 2.426e-05 0)
(0.0005036 2.017e-05 0)
(0.0004943 1.65e-05 0)
(0.0004867 1.315e-05 0)
(0.0004807 1.008e-05 0)
(0.0004763 7.231e-06 0)
(0.0004733 4.547e-06 0)
(0.0004716 1.993e-06 0)
(0.0004712 -4.679e-07 0)
(0.0004721 -2.866e-06 0)
(0.0004743 -5.228e-06 0)
(0.0004776 -7.579e-06 0)
(0.0004822 -9.94e-06 0)
(0.000488 -1.233e-05 0)
(0.0004951 -1.476e-05 0)
(0.0005034 -1.725e-05 0)
(0.0005131 -1.981e-05 0)
(0.0005241 -2.244e-05 0)
(0.0005365 -2.515e-05 0)
(0.0005502 -2.793e-05 0)
(0.0005655 -3.078e-05 0)
(0.0005822 -3.369e-05 0)
(0.0006003 -3.664e-05 0)
(0.00062 -3.961e-05 0)
(0.0006412 -4.255e-05 0)
(0.0006639 -4.545e-05 0)
(0.0006879 -4.824e-05 0)
(0.0007134 -5.088e-05 0)
(0.0007401 -5.329e-05 0)
(0.0007679 -5.541e-05 0)
(0.0007966 -5.715e-05 0)
(0.0008261 -5.844e-05 0)
(0.0008561 -5.919e-05 0)
(0.0008863 -5.931e-05 0)
(0.0009163 -5.872e-05 0)
(0.0009458 -5.735e-05 0)
(0.0009744 -5.514e-05 0)
(0.001002 -5.206e-05 0)
(0.001027 -4.81e-05 0)
(0.00105 -4.326e-05 0)
(0.001071 -3.761e-05 0)
(0.001088 -3.123e-05 0)
(0.001102 -2.423e-05 0)
(0.001113 -1.676e-05 0)
(0.001119 -8.994e-06 0)
(0.001122 -1.104e-06 0)
(0.001121 6.728e-06 0)
(0.001115 1.433e-05 0)
(0.001106 2.156e-05 0)
(0.001094 2.828e-05 0)
(0.001078 3.438e-05 0)
(0.001059 3.98e-05 0)
(0.001038 4.449e-05 0)
(0.001014 4.841e-05 0)
(0.0009891 5.157e-05 0)
(0.0009623 5.398e-05 0)
(0.0009344 5.567e-05 0)
(0.0009058 5.667e-05 0)
(0.0008768 5.706e-05 0)
(0.0008477 5.687e-05 0)
(0.0008188 5.617e-05 0)
(0.0007903 5.504e-05 0)
(0.0007625 5.353e-05 0)
(0.0007354 5.172e-05 0)
(0.0007094 4.966e-05 0)
(0.0006843 4.741e-05 0)
(0.0006605 4.503e-05 0)
(0.0006378 4.256e-05 0)
(0.0006164 4.005e-05 0)
(0.0005962 3.754e-05 0)
(0.0005774 3.505e-05 0)
(0.0005597 3.261e-05 0)
(0.0005433 3.024e-05 0)
(0.0005281 2.796e-05 0)
(0.000514 2.578e-05 0)
(0.000501 2.371e-05 0)
(0.0004891 2.175e-05 0)
(0.0004781 1.991e-05 0)
(0.0004681 1.818e-05 0)
(0.0004589 1.657e-05 0)
(0.0004505 1.508e-05 0)
(0.0004429 1.369e-05 0)
(0.0004359 1.241e-05 0)
(0.0004296 1.123e-05 0)
(0.0004239 1.015e-05 0)
(0.0004187 9.155e-06 0)
(0.0004141 8.247e-06 0)
(0.0004099 7.418e-06 0)
(0.0004061 6.663e-06 0)
(0.0004027 5.977e-06 0)
(0.0003996 5.354e-06 0)
(0.0003969 4.791e-06 0)
(0.0003944 4.284e-06 0)
(0.0003922 3.827e-06 0)
(0.0003902 3.418e-06 0)
(0.0003885 3.054e-06 0)
(0.0003869 2.732e-06 0)
(0.0003854 2.45e-06 0)
(0.0003842 2.208e-06 0)
(0.000383 2.004e-06 0)
(0.000382 1.838e-06 0)
(0.000381 1.711e-06 0)
(0.0003801 1.625e-06 0)
(0.0003793 1.582e-06 0)
(0.0003785 1.583e-06 0)
(0.0003777 1.632e-06 0)
(0.0003769 1.723e-06 0)
(0.0003761 1.841e-06 0)
(0.0003754 1.935e-06 0)
(0.001219 0.0001846 0)
(0.001255 0.0003713 0)
(0.001275 0.0004302 0)
(0.001264 0.0004212 0)
(0.001229 0.0003831 0)
(0.001178 0.0003359 0)
(0.001119 0.0002892 0)
(0.00106 0.0002471 0)
(0.001002 0.0002105 0)
(0.0009475 0.0001794 0)
(0.000898 0.0001532 0)
(0.0008535 0.0001311 0)
(0.0008137 0.0001124 0)
(0.0007784 9.65e-05 0)
(0.0007474 8.291e-05 0)
(0.0007201 7.12e-05 0)
(0.0006963 6.105e-05 0)
(0.0006756 5.218e-05 0)
(0.0006578 4.436e-05 0)
(0.0006425 3.741e-05 0)
(0.0006297 3.119e-05 0)
(0.0006189 2.555e-05 0)
(0.0006102 2.04e-05 0)
(0.0006033 1.565e-05 0)
(0.0005982 1.122e-05 0)
(0.0005948 7.032e-06 0)
(0.0005929 3.038e-06 0)
(0.0005926 -8.161e-07 0)
(0.0005938 -4.578e-06 0)
(0.0005964 -8.287e-06 0)
(0.0006005 -1.198e-05 0)
(0.0006061 -1.569e-05 0)
(0.0006131 -1.944e-05 0)
(0.0006217 -2.326e-05 0)
(0.0006317 -2.717e-05 0)
(0.0006433 -3.118e-05 0)
(0.0006566 -3.529e-05 0)
(0.0006714 -3.953e-05 0)
(0.000688 -4.387e-05 0)
(0.0007062 -4.832e-05 0)
(0.0007262 -5.284e-05 0)
(0.000748 -5.743e-05 0)
(0.0007715 -6.203e-05 0)
(0.0007968 -6.66e-05 0)
(0.0008238 -7.109e-05 0)
(0.0008525 -7.54e-05 0)
(0.0008829 -7.947e-05 0)
(0.0009146 -8.318e-05 0)
(0.0009478 -8.644e-05 0)
(0.000982 -8.911e-05 0)
(0.001017 -9.108e-05 0)
(0.001053 -9.22e-05 0)
(0.001089 -9.234e-05 0)
(0.001124 -9.139e-05 0)
(0.001159 -8.923e-05 0)
(0.001193 -8.578e-05 0)
(0.001226 -8.098e-05 0)
(0.001256 -7.48e-05 0)
(0.001283 -6.728e-05 0)
(0.001308 -5.85e-05 0)
(0.001329 -4.859e-05 0)
(0.001345 -3.772e-05 0)
(0.001358 -2.613e-05 0)
(0.001366 -1.407e-05 0)
(0.001369 -1.823e-06 0)
(0.001367 1.034e-05 0)
(0.001361 2.215e-05 0)
(0.00135 3.338e-05 0)
(0.001336 4.383e-05 0)
(0.001317 5.333e-05 0)
(0.001295 6.177e-05 0)
(0.001269 6.908e-05 0)
(0.001242 7.522e-05 0)
(0.001211 8.018e-05 0)
(0.00118 8.397e-05 0)
(0.001147 8.665e-05 0)
(0.001113 8.828e-05 0)
(0.001078 8.893e-05 0)
(0.001043 8.869e-05 0)
(0.001009 8.767e-05 0)
(0.0009751 8.596e-05 0)
(0.0009419 8.367e-05 0)
(0.0009096 8.09e-05 0)
(0.0008785 7.773e-05 0)
(0.0008485 7.427e-05 0)
(0.00082 7.06e-05 0)
(0.0007928 6.679e-05 0)
(0.0007672 6.291e-05 0)
(0.000743 5.901e-05 0)
(0.0007203 5.514e-05 0)
(0.0006991 5.135e-05 0)
(0.0006794 4.767e-05 0)
(0.000661 4.411e-05 0)
(0.000644 4.071e-05 0)
(0.0006283 3.747e-05 0)
(0.0006138 3.441e-05 0)
(0.0006005 3.152e-05 0)
(0.0005884 2.882e-05 0)
(0.0005772 2.629e-05 0)
(0.000567 2.394e-05 0)
(0.0005577 2.176e-05 0)
(0.0005492 1.975e-05 0)
(0.0005415 1.789e-05 0)
(0.0005346 1.618e-05 0)
(0.0005282 1.461e-05 0)
(0.0005225 1.317e-05 0)
(0.0005174 1.186e-05 0)
(0.0005127 1.067e-05 0)
(0.0005085 9.578e-06 0)
(0.0005047 8.591e-06 0)
(0.0005013 7.696e-06 0)
(0.0004983 6.888e-06 0)
(0.0004956 6.161e-06 0)
(0.0004931 5.509e-06 0)
(0.0004909 4.927e-06 0)
(0.0004889 4.411e-06 0)
(0.0004872 3.959e-06 0)
(0.0004856 3.567e-06 0)
(0.0004842 3.233e-06 0)
(0.0004829 2.958e-06 0)
(0.0004817 2.741e-06 0)
(0.0004806 2.582e-06 0)
(0.0004796 2.484e-06 0)
(0.0004786 2.444e-06 0)
(0.0004777 2.463e-06 0)
(0.0004768 2.531e-06 0)
(0.000476 2.627e-06 0)
(0.0004752 2.701e-06 0)
(0.001214 0.000152 0)
(0.001246 0.0003355 0)
(0.001274 0.0004184 0)
(0.001282 0.0004357 0)
(0.001268 0.0004173 0)
(0.001239 0.0003822 0)
(0.001199 0.0003413 0)
(0.001153 0.0003005 0)
(0.001106 0.0002625 0)
(0.001059 0.0002284 0)
(0.001014 0.0001984 0)
(0.0009725 0.0001721 0)
(0.0009342 0.0001493 0)
(0.0008996 0.0001295 0)
(0.0008685 0.0001121 0)
(0.0008408 9.697e-05 0)
(0.0008162 8.362e-05 0)
(0.0007947 7.181e-05 0)
(0.000776 6.13e-05 0)
(0.0007598 5.187e-05 0)
(0.0007461 4.334e-05 0)
(0.0007346 3.558e-05 0)
(0.0007253 2.844e-05 0)
(0.000718 2.182e-05 0)
(0.0007125 1.561e-05 0)
(0.0007089 9.725e-06 0)
(0.000707 4.093e-06 0)
(0.0007068 -1.356e-06 0)
(0.0007083 -6.684e-06 0)
(0.0007114 -1.195e-05 0)
(0.0007162 -1.719e-05 0)
(0.0007226 -2.246e-05 0)
(0.0007306 -2.779e-05 0)
(0.0007404 -3.321e-05 0)
(0.0007519 -3.876e-05 0)
(0.0007651 -4.444e-05 0)
(0.0007801 -5.028e-05 0)
(0.000797 -5.628e-05 0)
(0.0008158 -6.242e-05 0)
(0.0008365 -6.871e-05 0)
(0.0008592 -7.51e-05 0)
(0.0008838 -8.157e-05 0)
(0.0009104 -8.806e-05 0)
(0.0009391 -9.45e-05 0)
(0.0009697 -0.0001008 0)
(0.001002 -0.0001069 0)
(0.001036 -0.0001126 0)
(0.001072 -0.0001178 0)
(0.00111 -0.0001224 0)
(0.001148 -0.0001261 0)
(0.001188 -0.0001288 0)
(0.001228 -0.0001304 0)
(0.001269 -0.0001306 0)
(0.001309 -0.0001292 0)
(0.001349 -0.0001262 0)
(0.001387 -0.0001213 0)
(0.001424 -0.0001145 0)
(0.001458 -0.0001058 0)
(0.00149 -9.514e-05 0)
(0.001517 -8.274e-05 0)
(0.001541 -6.874e-05 0)
(0.00156 -5.339e-05 0)
(0.001574 -3.702e-05 0)
(0.001583 -1.999e-05 0)
(0.001587 -2.686e-06 0)
(0.001585 1.449e-05 0)
(0.001578 3.118e-05 0)
(0.001566 4.704e-05 0)
(0.001549 6.18e-05 0)
(0.001528 7.523e-05 0)
(0.001503 8.717e-05 0)
(0.001474 9.752e-05 0)
(0.001443 0.0001062 0)
(0.001409 0.0001133 0)
(0.001373 0.0001187 0)
(0.001335 0.0001225 0)
(0.001297 0.0001248 0)
(0.001258 0.0001258 0)
(0.001219 0.0001256 0)
(0.00118 0.0001242 0)
(0.001141 0.0001218 0)
(0.001104 0.0001186 0)
(0.001067 0.0001148 0)
(0.001032 0.0001103 0)
(0.0009981 0.0001055 0)
(0.0009657 0.0001003 0)
(0.0009349 9.499e-05 0)
(0.0009058 8.953e-05 0)
(0.0008783 8.404e-05 0)
(0.0008525 7.859e-05 0)
(0.0008284 7.324e-05 0)
(0.0008058 6.804e-05 0)
(0.0007849 6.301e-05 0)
(0.0007655 5.82e-05 0)
(0.0007476 5.361e-05 0)
(0.0007311 4.927e-05 0)
(0.0007158 4.518e-05 0)
(0.0007019 4.133e-05 0)
(0.0006891 3.774e-05 0)
(0.0006774 3.44e-05 0)
(0.0006667 3.129e-05 0)
(0.0006569 2.842e-05 0)
(0.0006481 2.577e-05 0)
(0.00064 2.332e-05 0)
(0.0006327 2.108e-05 0)
(0.0006261 1.903e-05 0)
(0.0006202 1.715e-05 0)
(0.0006148 1.544e-05 0)
(0.0006099 1.387e-05 0)
(0.0006055 1.246e-05 0)
(0.0006016 1.117e-05 0)
(0.000598 1.001e-05 0)
(0.0005948 8.96e-06 0)
(0.000592 8.019e-06 0)
(0.0005894 7.177e-06 0)
(0.0005871 6.43e-06 0)
(0.000585 5.771e-06 0)
(0.0005832 5.198e-06 0)
(0.0005815 4.706e-06 0)
(0.00058 4.294e-06 0)
(0.0005786 3.961e-06 0)
(0.0005774 3.706e-06 0)
(0.0005762 3.527e-06 0)
(0.0005751 3.423e-06 0)
(0.0005741 3.39e-06 0)
(0.0005732 3.414e-06 0)
(0.0005723 3.474e-06 0)
(0.0005715 3.525e-06 0)
(0.00121 0.0001279 0)
(0.001237 0.0003009 0)
(0.001266 0.0003959 0)
(0.001284 0.0004325 0)
(0.001286 0.0004319 0)
(0.001273 0.0004101 0)
(0.001249 0.0003777 0)
(0.001217 0.0003415 0)
(0.001181 0.0003051 0)
(0.001143 0.0002705 0)
(0.001105 0.0002387 0)
(0.001069 0.00021 0)
(0.001034 0.0001842 0)
(0.001002 0.0001613 0)
(0.0009729 0.0001408 0)
(0.0009462 0.0001226 0)
(0.0009224 0.0001064 0)
(0.0009012 9.179e-05 0)
(0.0008825 7.867e-05 0)
(0.0008664 6.679e-05 0)
(0.0008526 5.595e-05 0)
(0.000841 4.601e-05 0)
(0.0008315 3.681e-05 0)
(0.0008241 2.822e-05 0)
(0.0008186 2.012e-05 0)
(0.0008151 1.243e-05 0)
(0.0008133 5.028e-06 0)
(0.0008134 -2.15e-06 0)
(0.0008152 -9.186e-06 0)
(0.0008188 -1.615e-05 0)
(0.0008241 -2.309e-05 0)
(0.0008312 -3.007e-05 0)
(0.0008401 -3.714e-05 0)
(0.0008508 -4.434e-05 0)
(0.0008634 -5.169e-05 0)
(0.0008779 -5.923e-05 0)
(0.0008943 -6.697e-05 0)
(0.0009128 -7.491e-05 0)
(0.0009333 -8.305e-05 0)
(0.0009559 -9.136e-05 0)
(0.0009806 -9.982e-05 0)
(0.001007 -0.0001084 0)
(0.001036 -0.0001169 0)
(0.001068 -0.0001254 0)
(0.001101 -0.0001338 0)
(0.001136 -0.0001418 0)
(0.001174 -0.0001493 0)
(0.001213 -0.0001562 0)
(0.001254 -0.0001622 0)
(0.001296 -0.0001671 0)
(0.001339 -0.0001708 0)
(0.001383 -0.0001728 0)
(0.001428 -0.0001731 0)
(0.001472 -0.0001713 0)
(0.001515 -0.0001672 0)
(0.001558 -0.0001608 0)
(0.001598 -0.0001518 0)
(0.001635 -0.0001403 0)
(0.00167 -0.0001263 0)
(0.0017 -0.0001098 0)
(0.001726 -9.128e-05 0)
(0.001747 -7.093e-05 0)
(0.001763 -4.921e-05 0)
(0.001773 -2.661e-05 0)
(0.001777 -3.653e-06 0)
(0.001775 1.914e-05 0)
(0.001767 4.126e-05 0)
(0.001754 6.228e-05 0)
(0.001735 8.183e-05 0)
(0.001712 9.963e-05 0)
(0.001685 0.0001154 0)
(0.001653 0.0001292 0)
(0.001619 0.0001407 0)
(0.001581 0.00015 0)
(0.001542 0.0001572 0)
(0.001501 0.0001623 0)
(0.001459 0.0001655 0)
(0.001417 0.0001668 0)
(0.001374 0.0001665 0)
(0.001331 0.0001647 0)
(0.001289 0.0001616 0)
(0.001248 0.0001575 0)
(0.001208 0.0001524 0)
(0.00117 0.0001466 0)
(0.001133 0.0001402 0)
(0.001097 0.0001334 0)
(0.001064 0.0001264 0)
(0.001032 0.0001192 0)
(0.001002 0.0001119 0)
(0.0009735 0.0001047 0)
(0.000947 9.765e-05 0)
(0.0009224 9.077e-05 0)
(0.0008995 8.412e-05 0)
(0.0008782 7.775e-05 0)
(0.0008585 7.167e-05 0)
(0.0008404 6.591e-05 0)
(0.0008237 6.047e-05 0)
(0.0008083 5.537e-05 0)
(0.0007942 5.06e-05 0)
(0.0007813 4.615e-05 0)
(0.0007695 4.201e-05 0)
(0.0007588 3.818e-05 0)
(0.000749 3.465e-05 0)
(0.0007401 3.139e-05 0)
(0.000732 2.84e-05 0)
(0.0007247 2.565e-05 0)
(0.0007181 2.314e-05 0)
(0.0007121 2.084e-05 0)
(0.0007066 1.875e-05 0)
(0.0007018 1.685e-05 0)
(0.0006974 1.512e-05 0)
(0.0006934 1.356e-05 0)
(0.0006899 1.215e-05 0)
(0.0006867 1.088e-05 0)
(0.0006838 9.746e-06 0)
(0.0006812 8.735e-06 0)
(0.0006789 7.841e-06 0)
(0.0006768 7.058e-06 0)
(0.000675 6.382e-06 0)
(0.0006733 5.809e-06 0)
(0.0006718 5.336e-06 0)
(0.0006704 4.961e-06 0)
(0.0006691 4.681e-06 0)
(0.000668 4.492e-06 0)
(0.0006669 4.386e-06 0)
(0.0006659 4.351e-06 0)
(0.000665 4.365e-06 0)
(0.0006641 4.391e-06 0)
(0.001208 0.0001098 0)
(0.00123 0.0002699 0)
(0.001258 0.0003695 0)
(0.001281 0.0004189 0)
(0.001292 0.0004326 0)
(0.001291 0.0004232 0)
(0.001279 0.0004003 0)
(0.00126 0.0003703 0)
(0.001235 0.0003375 0)
(0.001206 0.0003044 0)
(0.001176 0.0002726 0)
(0.001146 0.0002429 0)
(0.001116 0.0002154 0)
(0.001088 0.0001903 0)
(0.001062 0.0001675 0)
(0.001037 0.0001469 0)
(0.001015 0.0001281 0)
(0.0009954 0.0001111 0)
(0.0009777 9.561e-05 0)
(0.0009623 8.143e-05 0)
(0.000949 6.839e-05 0)
(0.0009379 5.632e-05 0)
(0.0009287 4.508e-05 0)
(0.0009216 3.451e-05 0)
(0.0009164 2.451e-05 0)
(0.0009131 1.495e-05 0)
(0.0009116 5.725e-06 0)
(0.000912 -3.254e-06 0)
(0.0009141 -1.208e-05 0)
(0.0009181 -2.082e-05 0)
(0.000924 -2.957e-05 0)
(0.0009316 -3.837e-05 0)
(0.0009411 -4.728e-05 0)
(0.0009526 -5.636e-05 0)
(0.000966 -6.564e-05 0)
(0.0009814 -7.516e-05 0)
(0.0009988 -8.492e-05 0)
(0.001018 -9.494e-05 0)
(0.00104 -0.0001052 0)
(0.001064 -0.0001157 0)
(0.00109 -0.0001264 0)
(0.001119 -0.0001371 0)
(0.001149 -0.0001479 0)
(0.001182 -0.0001587 0)
(0.001218 -0.0001692 0)
(0.001255 -0.0001793 0)
(0.001295 -0.0001888 0)
(0.001336 -0.0001975 0)
(0.00138 -0.0002051 0)
(0.001425 -0.0002114 0)
(0.001471 -0.000216 0)
(0.001518 -0.0002186 0)
(0.001565 -0.000219 0)
(0.001612 -0.0002168 0)
(0.001659 -0.0002118 0)
(0.001704 -0.0002037 0)
(0.001747 -0.0001924 0)
(0.001788 -0.0001779 0)
(0.001825 -0.0001602 0)
(0.001858 -0.0001394 0)
(0.001886 -0.0001159 0)
(0.001909 -9.005e-05 0)
(0.001925 -6.249e-05 0)
(0.001936 -3.381e-05 0)
(0.00194 -4.672e-06 0)
(0.001938 2.423e-05 0)
(0.00193 5.228e-05 0)
(0.001915 7.89e-05 0)
(0.001895 0.0001036 0)
(0.00187 0.0001261 0)
(0.001841 0.0001461 0)
(0.001807 0.0001634 0)
(0.00177 0.000178 0)
(0.00173 0.0001898 0)
(0.001688 0.0001989 0)
(0.001644 0.0002053 0)
(0.001599 0.0002093 0)
(0.001554 0.000211 0)
(0.001508 0.0002106 0)
(0.001463 0.0002084 0)
(0.001418 0.0002046 0)
(0.001375 0.0001993 0)
(0.001332 0.0001929 0)
(0.001291 0.0001856 0)
(0.001252 0.0001776 0)
(0.001214 0.000169 0)
(0.001179 0.0001602 0)
(0.001145 0.0001511 0)
(0.001113 0.0001419 0)
(0.001083 0.0001329 0)
(0.001055 0.000124 0)
(0.001029 0.0001153 0)
(0.001004 0.0001069 0)
(0.0009817 9.885e-05 0)
(0.0009608 9.117e-05 0)
(0.0009415 8.389e-05 0)
(0.0009237 7.702e-05 0)
(0.0009073 7.056e-05 0)
(0.0008923 6.452e-05 0)
(0.0008786 5.888e-05 0)
(0.000866 5.364e-05 0)
(0.0008545 4.878e-05 0)
(0.000844 4.43e-05 0)
(0.0008345 4.016e-05 0)
(0.0008259 3.635e-05 0)
(0.000818 3.286e-05 0)
(0.0008109 2.967e-05 0)
(0.0008045 2.674e-05 0)
(0.0007987 2.408e-05 0)
(0.0007934 2.165e-05 0)
(0.0007887 1.945e-05 0)
(0.0007844 1.745e-05 0)
(0.0007806 1.565e-05 0)
(0.0007771 1.402e-05 0)
(0.000774 1.257e-05 0)
(0.0007713 1.127e-05 0)
(0.0007688 1.011e-05 0)
(0.0007665 9.098e-06 0)
(0.0007645 8.216e-06 0)
(0.0007627 7.462e-06 0)
(0.0007611 6.83e-06 0)
(0.0007596 6.316e-06 0)
(0.0007583 5.915e-06 0)
(0.0007571 5.623e-06 0)
(0.000756 5.43e-06 0)
(0.0007549 5.324e-06 0)
(0.000754 5.284e-06 0)
(0.0007531 5.282e-06 0)
(0.001206 9.577e-05 0)
(0.001225 0.0002429 0)
(0.001251 0.0003425 0)
(0.001275 0.0003997 0)
(0.001291 0.000424 0)
(0.001299 0.0004253 0)
(0.001297 0.0004114 0)
(0.001287 0.0003882 0)
(0.001272 0.0003601 0)
(0.001252 0.0003299 0)
(0.00123 0.0002995 0)
(0.001207 0.0002699 0)
(0.001183 0.0002418 0)
(0.001159 0.0002156 0)
(0.001137 0.0001912 0)
(0.001115 0.0001687 0)
(0.001096 0.000148 0)
(0.001078 0.000129 0)
(0.001062 0.0001114 0)
(0.001048 9.518e-05 0)
(0.001036 8.012e-05 0)
(0.001025 6.606e-05 0)
(0.001017 5.287e-05 0)
(0.00101 4.041e-05 0)
(0.001006 2.853e-05 0)
(0.001003 1.713e-05 0)
(0.001002 6.084e-06 0)
(0.001002 -4.707e-06 0)
(0.001005 -1.534e-05 0)
(0.001009 -2.591e-05 0)
(0.001016 -3.649e-05 0)
(0.001024 -4.715e-05 0)
(0.001034 -5.797e-05 0)
(0.001045 -6.9e-05 0)
(0.001059 -8.027e-05 0)
(0.001075 -9.183e-05 0)
(0.001093 -0.0001037 0)
(0.001113 -0.0001159 0)
(0.001136 -0.0001284 0)
(0.001161 -0.0001411 0)
(0.001188 -0.0001541 0)
(0.001217 -0.0001672 0)
(0.001249 -0.0001804 0)
(0.001283 -0.0001934 0)
(0.001319 -0.0002062 0)
(0.001358 -0.0002185 0)
(0.001399 -0.0002302 0)
(0.001442 -0.0002408 0)
(0.001487 -0.0002502 0)
(0.001534 -0.0002579 0)
(0.001582 -0.0002636 0)
(0.001631 -0.000267 0)
(0.001681 -0.0002676 0)
(0.00173 -0.0002651 0)
(0.001779 -0.0002591 0)
(0.001827 -0.0002494 0)
(0.001873 -0.0002357 0)
(0.001916 -0.000218 0)
(0.001955 -0.0001964 0)
(0.00199 -0.000171 0)
(0.00202 -0.0001422 0)
(0.002044 -0.0001105 0)
(0.002062 -7.669e-05 0)
(0.002073 -4.146e-05 0)
(0.002077 -5.682e-06 0)
(0.002075 2.979e-05 0)
(0.002066 6.416e-05 0)
(0.002051 9.675e-05 0)
(0.002029 0.000127 0)
(0.002003 0.0001545 0)
(0.001971 0.0001788 0)
(0.001936 0.0001999 0)
(0.001897 0.0002176 0)
(0.001855 0.000232 0)
(0.001811 0.000243 0)
(0.001765 0.0002508 0)
(0.001718 0.0002556 0)
(0.00167 0.0002577 0)
(0.001623 0.0002572 0)
(0.001576 0.0002544 0)
(0.001529 0.0002497 0)
(0.001484 0.0002433 0)
(0.001439 0.0002355 0)
(0.001397 0.0002266 0)
(0.001356 0.0002168 0)
(0.001317 0.0002064 0)
(0.00128 0.0001956 0)
(0.001245 0.0001845 0)
(0.001212 0.0001734 0)
(0.001181 0.0001624 0)
(0.001152 0.0001516 0)
(0.001125 0.000141 0)
(0.001099 0.0001308 0)
(0.001076 0.000121 0)
(0.001054 0.0001116 0)
(0.001034 0.0001028 0)
(0.001016 9.439e-05 0)
(0.0009988 8.652e-05 0)
(0.0009832 7.915e-05 0)
(0.0009689 7.227e-05 0)
(0.0009559 6.588e-05 0)
(0.000944 5.995e-05 0)
(0.0009331 5.447e-05 0)
(0.0009232 4.941e-05 0)
(0.0009142 4.476e-05 0)
(0.000906 4.048e-05 0)
(0.0008986 3.657e-05 0)
(0.0008919 3.299e-05 0)
(0.0008858 2.972e-05 0)
(0.0008803 2.674e-05 0)
(0.0008754 2.404e-05 0)
(0.0008709 2.158e-05 0)
(0.0008669 1.937e-05 0)
(0.0008633 1.736e-05 0)
(0.00086 1.557e-05 0)
(0.0008571 1.396e-05 0)
(0.0008545 1.253e-05 0)
(0.0008522 1.126e-05 0)
(0.0008501 1.016e-05 0)
(0.0008482 9.209e-06 0)
(0.0008465 8.402e-06 0)
(0.000845 7.734e-06 0)
(0.0008436 7.199e-06 0)
(0.0008424 6.79e-06 0)
(0.0008412 6.499e-06 0)
(0.0008402 6.313e-06 0)
(0.0008392 6.215e-06 0)
(0.0008383 6.182e-06 0)
(0.001205 8.462e-05 0)
(0.001221 0.0002195 0)
(0.001244 0.0003165 0)
(0.001268 0.0003777 0)
(0.001288 0.0004097 0)
(0.001301 0.0004195 0)
(0.001306 0.0004135 0)
(0.001305 0.000397 0)
(0.001298 0.000374 0)
(0.001286 0.0003474 0)
(0.001271 0.0003192 0)
(0.001254 0.0002908 0)
(0.001236 0.000263 0)
(0.001217 0.0002364 0)
(0.001199 0.0002112 0)
(0.001182 0.0001875 0)
(0.001165 0.0001654 0)
(0.00115 0.0001448 0)
(0.001136 0.0001255 0)
(0.001123 0.0001075 0)
(0.001113 9.07e-05 0)
(0.001104 7.487e-05 0)
(0.001096 5.989e-05 0)
(0.00109 4.565e-05 0)
(0.001086 3.201e-05 0)
(0.001084 1.884e-05 0)
(0.001084 6.031e-06 0)
(0.001085 -6.529e-06 0)
(0.001088 -1.894e-05 0)
(0.001092 -3.131e-05 0)
(0.001099 -4.372e-05 0)
(0.001107 -5.625e-05 0)
(0.001117 -6.898e-05 0)
(0.001129 -8.196e-05 0)
(0.001143 -9.525e-05 0)
(0.001159 -0.0001089 0)
(0.001178 -0.0001229 0)
(0.001198 -0.0001373 0)
(0.001221 -0.000152 0)
(0.001245 -0.0001671 0)
(0.001273 -0.0001824 0)
(0.001302 -0.0001979 0)
(0.001334 -0.0002135 0)
(0.001369 -0.000229 0)
(0.001406 -0.0002442 0)
(0.001445 -0.0002588 0)
(0.001487 -0.0002727 0)
(0.001531 -0.0002854 0)
(0.001577 -0.0002966 0)
(0.001625 -0.0003059 0)
(0.001674 -0.0003129 0)
(0.001724 -0.0003171 0)
(0.001775 -0.0003181 0)
(0.001827 -0.0003154 0)
(0.001877 -0.0003085 0)
(0.001927 -0.0002972 0)
(0.001974 -0.0002812 0)
(0.002019 -0.0002603 0)
(0.00206 -0.0002346 0)
(0.002097 -0.0002044 0)
(0.002128 -0.00017 0)
(0.002154 -0.0001322 0)
(0.002172 -9.164e-05 0)
(0.002184 -4.944e-05 0)
(0.002189 -6.608e-06 0)
(0.002186 3.581e-05 0)
(0.002176 7.685e-05 0)
(0.00216 0.0001157 0)
(0.002138 0.0001517 0)
(0.00211 0.0001843 0)
(0.002077 0.0002132 0)
(0.00204 0.0002381 0)
(0.001999 0.000259 0)
(0.001956 0.0002759 0)
(0.00191 0.0002889 0)
(0.001863 0.0002981 0)
(0.001815 0.0003037 0)
(0.001766 0.000306 0)
(0.001717 0.0003053 0)
(0.001668 0.000302 0)
(0.001621 0.0002963 0)