/*--------------------------------*- C++ -*----------------------------------*\
  =========                 |
  \\      /  F ield         | OpenFOAM: The Open Source CFD Toolbox
   \\    /   O peration     | Website:  https://openfoam.org
    \\  /    A nd           | Version:  7
     \\/     M anipulation  |
\*---------------------------------------------------------------------------*/
FoamFile
{
    version     2.0;
    format      ascii;
    class       volScalarField;
    location    "2459.99947344194379";
    object      Y.K;
}
// * * * * * * * * * * * * * * * * * * * * * * * * * * * * * * * * * * * * * //

dimensions      [0 0 0 0 0 0 0];

internalField   nonuniform List<scalar> 
4096
(
1.899e-73
-1.041e-74
2.445e-72
-4.056e-73
-9.227e-74
4.117e-73
-2.219e-73
-1.09e-73
7.128e-74
-1.073e-73
1.86e-72
-2.532e-71
3.884e-70
-5.352e-69
7.302e-68
-9.335e-67
1.146e-65
-1.377e-64
1.554e-63
-1.741e-62
1.892e-61
-1.995e-60
2.066e-59
-2.084e-58
2.056e-57
-1.97e-56
1.833e-55
-1.645e-54
1.395e-53
-1.176e-52
9.828e-52
-8.114e-51
6.598e-50
-5.27e-49
4.12e-48
-3.143e-47
2.331e-46
-1.675e-45
1.161e-44
-7.742e-44
4.892e-43
-2.951e-42
1.695e-41
-9.008e-41
4.371e-40
-1.865e-39
6.429e-39
-1.226e-38
-5.804e-38
9.785e-37
-8.142e-36
4.937e-35
-2.701e-34
1.317e-33
-5.449e-33
2.136e-32
-5.973e-32
1.695e-31
3.581e-32
-1.975e-31
1.298e-29
1.155e-30
7.894e-29
7.007e-28
1.607e-28
8.166e-27
2.876e-26
4.303e-26
3.948e-25
1.242e-24
2.588e-24
2.145e-23
5.458e-23
1.41e-22
1.043e-21
2.702e-21
8.758e-21
1.296e-19
2.012e-18
5.183e-18
9.882e-18
1.679e-17
2.687e-17
4.139e-17
6.204e-17
9.102e-17
1.312e-16
1.86e-16
2.602e-16
3.594e-16
4.905e-16
6.624e-16
8.854e-16
1.173e-15
1.54e-15
2.005e-15
2.591e-15
3.324e-15
4.237e-15
5.366e-15
6.756e-15
8.458e-15
1.053e-14
1.305e-14
1.61e-14
1.977e-14
2.417e-14
2.943e-14
3.571e-14
4.316e-14
5.198e-14
6.24e-14
7.468e-14
8.91e-14
1.06e-13
1.257e-13
1.487e-13
1.755e-13
2.065e-13
2.425e-13
2.84e-13
3.317e-13
3.864e-13
4.485e-13
5.18e-13
5.934e-13
6.691e-13
7.296e-13
4.465e-72
-2.54e-71
2.92e-71
-5.062e-72
-2.038e-71
1.757e-71
-1.484e-72
-6.58e-72
2.217e-72
-5.689e-72
1.05e-70
-1.423e-69
2.129e-68
-3.03e-67
4.077e-66
-5.219e-65
6.382e-64
-7.509e-63
8.543e-62
-9.443e-61
1.017e-59
-1.071e-58
1.102e-57
-1.109e-56
1.089e-55
-1.04e-54
9.638e-54
-8.609e-53
7.302e-52
-6.156e-51
5.141e-50
-4.239e-49
3.443e-48
-2.745e-47
2.142e-46
-1.63e-45
1.206e-44
-8.642e-44
5.975e-43
-3.968e-42
2.52e-41
-1.521e-40
8.656e-40
-4.597e-39
2.237e-38
-9.652e-38
3.393e-37
-7.667e-37
-1.936e-36
4.277e-35
-3.716e-34
2.298e-33
-1.276e-32
6.175e-32
-2.552e-31
1.031e-30
-2.88e-30
8.839e-30
9.876e-31
1.175e-29
6.769e-28
2.472e-28
4.855e-27
3.611e-26
2.361e-26
4.286e-25
1.492e-24
2.673e-24
1.996e-23
6.226e-23
1.366e-22
9.606e-22
2.491e-21
6.058e-21
3.902e-20
9.945e-20
2.329e-19
1.531e-18
3.942e-18
7.673e-18
1.327e-17
2.15e-17
3.34e-17
5.037e-17
7.425e-17
1.074e-16
1.529e-16
2.145e-16
2.971e-16
4.068e-16
5.509e-16
7.386e-16
9.811e-16
1.292e-15
1.687e-15
2.187e-15
2.815e-15
3.598e-15
4.57e-15
5.77e-15
7.245e-15
9.048e-15
1.124e-14
1.39e-14
1.712e-14
2.098e-14
2.562e-14
3.116e-14
3.775e-14
4.558e-14
5.484e-14
6.577e-14
7.864e-14
9.375e-14
1.114e-13
1.321e-13
1.562e-13
1.842e-13
2.166e-13
2.542e-13
2.976e-13
3.475e-13
4.048e-13
4.703e-13
5.444e-13
6.27e-13
7.159e-13
8.017e-13
-1.032e-70
7.18e-70
-1.794e-69
2.379e-69
-1.63e-69
2.742e-70
4.121e-70
-2.531e-70
-1.01e-71
-2.998e-70
5.867e-69
-7.585e-68
1.131e-66
-1.604e-65
2.147e-64
-2.73e-63
3.315e-62
-3.871e-61
4.373e-60
-4.8e-59
5.139e-58
-5.376e-57
5.502e-56
-5.505e-55
5.379e-54
-5.116e-53
4.722e-52
-4.2e-51
3.565e-50
-3.006e-49
2.509e-48
-2.068e-47
1.678e-46
-1.336e-45
1.041e-44
-7.909e-44
5.841e-43
-4.178e-42
2.884e-41
-1.913e-40
1.214e-39
-7.325e-39
4.176e-38
-2.226e-37
1.093e-36
-4.813e-36
1.751e-35
-4.809e-35
-4.87e-36
1.553e-33
-1.511e-32
9.527e-32
-5.441e-31
2.676e-30
-1.112e-29
4.757e-29
-1.326e-28
4.546e-28
-7.433e-30
1.93e-27
3.511e-26
2.554e-26
3.04e-25
1.835e-24
2.221e-24
2.308e-23
7.404e-23
1.649e-22
1.002e-21
3.018e-21
6.913e-21
3.964e-20
1.022e-19
2.31e-19
1.124e-18
2.719e-18
5.062e-18
8.663e-18
1.411e-17
2.215e-17
3.375e-17
5.018e-17
7.307e-17
1.045e-16
1.472e-16
2.044e-16
2.805e-16
3.804e-16
5.109e-16
6.796e-16
8.963e-16
1.173e-15
1.523e-15
1.964e-15
2.517e-15
3.206e-15
4.061e-15
5.115e-15
6.41e-15
7.995e-15
9.925e-15
1.227e-14
1.51e-14
1.851e-14
2.261e-14
2.751e-14
3.336e-14
4.032e-14
4.858e-14
5.833e-14
6.985e-14
8.339e-14
9.927e-14
1.179e-13
1.396e-13
1.649e-13
1.943e-13
2.284e-13
2.679e-13
3.134e-13
3.659e-13
4.263e-13
4.955e-13
5.746e-13
6.648e-13
7.669e-13
8.823e-13
1.015e-12
1.698e-69
-1.349e-68
4.726e-68
-1.007e-67
1.384e-67
-1.242e-67
6.757e-68
-1.463e-68
-4.021e-69
-1.761e-68
3.174e-67
-3.812e-66
5.641e-65
-7.934e-64
1.051e-62
-1.322e-61
1.586e-60
-1.83e-59
2.044e-58
-2.22e-57
2.354e-56
-2.441e-55
2.478e-54
-2.461e-53
2.389e-52
-2.26e-51
2.076e-50
-1.84e-49
1.563e-48
-1.319e-47
1.101e-46
-9.076e-46
7.36e-45
-5.857e-44
4.559e-43
-3.461e-42
2.554e-41
-1.826e-40
1.26e-39
-8.358e-39
5.308e-38
-3.211e-37
1.839e-36
-9.883e-36
4.925e-35
-2.228e-34
8.645e-34
-2.86e-33
3.935e-33
3.831e-32
-5.043e-31
3.329e-30
-2.015e-29
1.021e-28
-4.266e-28
2.019e-27
-5.511e-27
2.195e-26
3.122e-27
1.755e-25
1.753e-24
2.331e-24
1.846e-23
8.891e-23
1.689e-22
1.196e-21
3.729e-21
8.921e-21
4.55e-20
1.28e-19
2.96e-19
1.215e-18
2.98e-18
5.676e-18
9.859e-18
1.62e-17
2.555e-17
3.899e-17
5.795e-17
8.421e-17
1.2e-16
1.68e-16
2.317e-16
3.15e-16
4.231e-16
5.62e-16
7.391e-16
9.634e-16
1.245e-15
1.599e-15
2.038e-15
2.583e-15
3.257e-15
4.084e-15
5.099e-15
6.337e-15
7.845e-15
9.675e-15
1.189e-14
1.456e-14
1.777e-14
2.162e-14
2.622e-14
3.171e-14
3.825e-14
4.6e-14
5.517e-14
6.6e-14
7.876e-14
9.374e-14
1.113e-13
1.319e-13
1.558e-13
1.838e-13
2.162e-13
2.538e-13
2.974e-13
3.476e-13
4.055e-13
4.721e-13
5.485e-13
6.36e-13
7.36e-13
8.5e-13
9.796e-13
1.127e-12
1.296e-12
1.514e-12
-2.424e-68
2.093e-67
-9.071e-67
2.583e-66
-5.087e-66
7.169e-66
-7.275e-66
5.149e-66
-2.273e-66
-6.804e-67
1.656e-65
-1.81e-64
2.635e-63
-3.649e-62
4.749e-61
-5.859e-60
6.896e-59
-7.814e-58
8.578e-57
-9.171e-56
9.584e-55
-9.812e-54
9.848e-53
-9.686e-52
9.323e-51
-8.758e-50
8.006e-49
-7.071e-48
6.019e-47
-5.085e-46
4.25e-45
-3.504e-44
2.842e-43
-2.262e-42
1.761e-41
-1.337e-40
9.868e-40
-7.059e-39
4.876e-38
-3.241e-37
2.065e-36
-1.255e-35
7.241e-35
-3.939e-34
2.002e-33
-9.361e-33
3.894e-32
-1.483e-31
3.707e-31
8.406e-32
-1.18e-29
8.994e-29
-6.177e-28
3.295e-27
-1.362e-26
7.738e-26
-1.924e-25
1.019e-24
6.305e-25
1.21e-23
8.184e-23
1.655e-22
1.05e-21
3.962e-21
1.058e-20
5.559e-20
1.63e-19
4.044e-19
1.555e-18
3.949e-18
7.845e-18
1.414e-17
2.402e-17
3.895e-17
6.084e-17
9.205e-17
1.354e-16
1.944e-16
2.729e-16
3.758e-16
5.083e-16
6.77e-16
8.893e-16
1.154e-15
1.481e-15
1.884e-15
2.377e-15
2.976e-15
3.704e-15
4.585e-15
5.649e-15
6.931e-15
8.472e-15
1.032e-14
1.254e-14
1.519e-14
1.836e-14
2.214e-14
2.663e-14
3.198e-14
3.832e-14
4.582e-14
5.469e-14
6.516e-14
7.748e-14
9.197e-14
1.09e-13
1.289e-13
1.521e-13
1.792e-13
2.108e-13
2.474e-13
2.9e-13
3.392e-13
3.96e-13
4.616e-13
5.37e-13
6.236e-13
7.23e-13
8.366e-13
9.664e-13
1.114e-12
1.282e-12
1.473e-12
1.689e-12
1.934e-12
2.213e-12
2.602e-12
3.194e-67
-2.912e-66
1.463e-65
-5.119e-65
1.297e-64
-2.454e-64
3.52e-64
-3.797e-64
2.972e-64
-1.704e-64
8.202e-64
-8.114e-63
1.146e-61
-1.545e-60
1.952e-59
-2.338e-58
2.672e-57
-2.947e-56
3.154e-55
-3.297e-54
3.377e-53
-3.397e-52
3.358e-51
-3.26e-50
3.105e-49
-2.893e-48
2.629e-47
-2.316e-46
1.977e-45
-1.674e-44
1.402e-43
-1.158e-42
9.404e-42
-7.494e-41
5.842e-40
-4.442e-39
3.285e-38
-2.355e-37
1.632e-36
-1.089e-35
6.975e-35
-4.272e-34
2.491e-33
-1.376e-32
7.151e-32
-3.461e-31
1.541e-30
-6.095e-30
2.158e-29
-4.582e-29
-3.796e-29
1.357e-27
-1.405e-26
8.457e-26
-3.191e-25
2.643e-24
-4.801e-24
4.236e-23
5.644e-23
7.415e-22
3.413e-21
9.835e-21
5.247e-20
1.78e-19
5.006e-19
1.959e-18
5.331e-18
1.142e-17
2.21e-17
4e-17
6.868e-17
1.127e-16
1.778e-16
2.706e-16
3.987e-16
5.706e-16
7.953e-16
1.083e-15
1.442e-15
1.886e-15
2.426e-15
3.075e-15
3.848e-15
4.765e-15
5.845e-15
7.115e-15
8.605e-15
1.035e-14
1.24e-14
1.48e-14
1.761e-14
2.091e-14
2.478e-14
2.932e-14
3.465e-14
4.091e-14
4.826e-14
5.688e-14
6.699e-14
7.884e-14
9.272e-14
1.09e-13
1.279e-13
1.501e-13
1.759e-13
2.06e-13
2.41e-13
2.817e-13
3.288e-13
3.834e-13
4.465e-13
5.192e-13
6.031e-13
6.996e-13
8.104e-13
9.374e-13
1.083e-12
1.249e-12
1.438e-12
1.654e-12
1.899e-12
2.177e-12
2.491e-12
2.846e-12
3.246e-12
3.697e-12
4.206e-12
4.951e-12
-4.005e-66
3.787e-65
-2.119e-64
8.66e-64
-2.66e-63
6.302e-63
-1.168e-62
1.686e-62
-1.827e-62
1.278e-62
3.256e-62
-3.396e-61
4.57e-60
-5.901e-59
7.129e-58
-8.171e-57
8.942e-56
-9.483e-55
9.801e-54
-9.933e-53
9.905e-52
-9.737e-51
9.44e-50
-9.02e-49
8.482e-48
-7.831e-47
7.077e-46
-6.224e-45
5.34e-44
-4.54e-43
3.816e-42
-3.162e-41
2.577e-40
-2.06e-39
1.611e-38
-1.229e-37
9.128e-37
-6.575e-36
4.581e-35
-3.078e-34
1.988e-33
-1.23e-32
7.27e-32
-4.087e-31
2.175e-30
-1.088e-29
5.094e-29
-2.202e-28
8.644e-28
-2.934e-27
8.725e-27
-7.228e-27
-9.485e-26
1.487e-24
-2.213e-24
7.862e-23
-1.969e-23
1.572e-21
4.54e-21
3.747e-20
1.501e-19
4.707e-19
2.002e-18
6.096e-18
1.471e-17
3.185e-17
6.407e-17
1.211e-16
2.168e-16
3.689e-16
5.995e-16
9.336e-16
1.398e-15
2.02e-15
2.825e-15
3.835e-15
5.07e-15
6.547e-15
8.277e-15
1.028e-14
1.256e-14
1.514e-14
1.804e-14
2.13e-14
2.496e-14
2.907e-14
3.37e-14
3.893e-14
4.486e-14
5.161e-14
5.932e-14
6.814e-14
7.828e-14
8.995e-14
1.034e-13
1.19e-13
1.37e-13
1.578e-13
1.819e-13
2.098e-13
2.421e-13
2.796e-13
3.229e-13
3.73e-13
4.309e-13
4.978e-13
5.75e-13
6.639e-13
7.663e-13
8.84e-13
1.019e-12
1.174e-12
1.352e-12
1.555e-12
1.786e-12
2.05e-12
2.351e-12
2.693e-12
3.08e-12
3.519e-12
4.015e-12
4.576e-12
5.206e-12
5.916e-12
6.712e-12
7.603e-12
8.6e-12
1.011e-11
4.846e-65
-4.698e-64
2.85e-63
-1.316e-62
4.721e-62
-1.342e-61
3.063e-61
-5.593e-61
7.983e-61
-8.51e-61
1.835e-60
-1.253e-59
1.62e-58
-1.964e-57
2.217e-56
-2.383e-55
2.449e-54
-2.461e-53
2.426e-52
-2.36e-51
2.275e-50
-2.174e-49
2.06e-48
-1.933e-47
1.794e-46
-1.642e-45
1.477e-44
-1.302e-43
1.126e-42
-9.642e-42
8.158e-41
-6.802e-40
5.578e-39
-4.487e-38
3.532e-37
-2.714e-36
2.031e-35
-1.475e-34
1.037e-33
-7.046e-33
4.607e-32
-2.893e-31
1.739e-30
-9.982e-30
5.442e-29
-2.798e-28
1.364e-27
-6.224e-27
2.666e-26
-1.057e-25
3.858e-25
-1.23e-24
2.404e-24
1.813e-23
8.624e-23
1.71e-21
4.982e-21
5.277e-20
2.611e-19
1.352e-18
4.837e-18
1.38e-17
3.516e-17
8.258e-17
1.804e-16
3.686e-16
7.072e-16
1.279e-15
2.189e-15
3.558e-15
5.513e-15
8.172e-15
1.163e-14
1.595e-14
2.116e-14
2.724e-14
3.413e-14
4.176e-14
5.006e-14
5.896e-14
6.841e-14
7.839e-14
8.895e-14
1.001e-13
1.121e-13
1.249e-13
1.388e-13
1.54e-13
1.708e-13
1.895e-13
2.104e-13
2.34e-13
2.606e-13
2.909e-13
3.254e-13
3.648e-13
4.1e-13
4.617e-13
5.21e-13
5.891e-13
6.673e-13
7.571e-13
8.601e-13
9.784e-13
1.114e-12
1.27e-12
1.448e-12
1.652e-12
1.885e-12
2.151e-12
2.455e-12
2.802e-12
3.196e-12
3.644e-12
4.153e-12
4.731e-12
5.384e-12
6.123e-12
6.957e-12
7.897e-12
8.954e-12
1.014e-11
1.147e-11
1.296e-11
1.463e-11
1.649e-11
1.854e-11
2.172e-11
-5.689e-64
5.611e-63
-3.624e-62
1.848e-61
-7.536e-61
2.5e-60
-6.814e-60
1.521e-59
-2.702e-59
3.428e-59
3.193e-59
-4.328e-58
4.92e-57
-5.329e-56
5.413e-55
-5.304e-54
4.948e-53
-4.621e-52
4.276e-51
-3.952e-50
3.656e-49
-3.385e-48
3.132e-47
-2.89e-46
2.653e-45
-2.417e-44
2.177e-43
-1.936e-42
1.7e-41
-1.476e-40
1.264e-39
-1.067e-38
8.857e-38
-7.21e-37
5.748e-36
-4.477e-35
3.399e-34
-2.507e-33
1.794e-32
-1.241e-31
8.283e-31
-5.321e-30
3.28e-29
-1.939e-28
1.087e-27
-5.705e-27
2.873e-26
-1.348e-25
6.047e-25
-2.531e-24
1.017e-23
-3.619e-23
8.945e-23
6.717e-22
6.426e-21
4.726e-20
3.106e-19
1.872e-18
7.523e-18
2.44e-17
7.074e-17
1.88e-16
4.612e-16
1.049e-15
2.219e-15
4.378e-15
8.087e-15
1.404e-14
2.298e-14
3.565e-14
5.26e-14
7.41e-14
1.001e-13
1.302e-13
1.635e-13
1.993e-13
2.365e-13
2.74e-13
3.112e-13
3.475e-13
3.828e-13
4.17e-13
4.506e-13
4.84e-13
5.177e-13
5.525e-13
5.891e-13
6.284e-13
6.711e-13
7.184e-13
7.712e-13
8.306e-13
8.977e-13
9.74e-13
1.061e-12
1.16e-12
1.273e-12
1.402e-12
1.55e-12
1.718e-12
1.911e-12
2.131e-12
2.382e-12
2.669e-12
2.996e-12
3.369e-12
3.794e-12
4.277e-12
4.826e-12
5.45e-12
6.157e-12
6.96e-12
7.868e-12
8.895e-12
1.005e-11
1.136e-11
1.284e-11
1.45e-11
1.636e-11
1.845e-11
2.079e-11
2.34e-11
2.632e-11
2.958e-11
3.319e-11
3.721e-11
4.161e-11
4.854e-11
6.478e-63
-6.465e-62
4.388e-61
-2.427e-60
1.105e-59
-4.191e-59
1.337e-58
-3.579e-58
7.92e-58
-1.402e-57
2.763e-57
-1.045e-56
1.068e-55
-9.999e-55
8.492e-54
-7.281e-53
5.556e-52
-4.682e-51
3.951e-50
-3.417e-49
3.029e-48
-2.739e-47
2.509e-46
-2.315e-45
2.144e-44
-1.982e-43
1.821e-42
-1.659e-41
1.496e-40
-1.332e-39
1.171e-38
-1.013e-37
8.641e-37
-7.213e-36
5.925e-35
-4.763e-34
3.742e-33
-2.856e-32
2.117e-31
-1.521e-30
1.056e-29
-7.077e-29
4.561e-28
-2.836e-27
1.648e-26
-8.951e-26
4.738e-25
-2.219e-24
1.036e-23
-4.366e-23
1.855e-22
-4.466e-22
3.456e-21
3.168e-20
2.684e-19
1.906e-18
8.851e-18
3.347e-17
1.133e-16
3.498e-16
9.907e-16
2.579e-15
6.185e-15
1.369e-14
2.805e-14
5.339e-14
9.474e-14
1.575e-13
2.461e-13
3.636e-13
5.096e-13
6.811e-13
8.717e-13
1.073e-12
1.275e-12
1.47e-12
1.65e-12
1.808e-12
1.946e-12
2.06e-12
2.155e-12
2.233e-12
2.3e-12
2.359e-12
2.415e-12
2.47e-12
2.53e-12
2.597e-12
2.674e-12
2.766e-12
2.875e-12
3.002e-12
3.152e-12
3.328e-12
3.532e-12
3.77e-12
4.045e-12
4.361e-12
4.725e-12
5.142e-12
5.618e-12
6.162e-12
6.782e-12
7.488e-12
8.29e-12
9.201e-12
1.023e-11
1.14e-11
1.273e-11
1.422e-11
1.591e-11
1.782e-11
1.997e-11
2.238e-11
2.51e-11
2.815e-11
3.157e-11
3.54e-11
3.968e-11
4.446e-11
4.979e-11
5.572e-11
6.231e-11
6.962e-11
7.771e-11
8.668e-11
9.637e-11
1.119e-10
-7.116e-62
7.157e-61
-5.056e-60
2.996e-59
-1.5e-58
6.406e-58
-2.353e-57
7.423e-57
-1.97e-56
4.087e-56
-2.118e-56
-1.5e-55
1.375e-54
-6.313e-54
1.562e-53
8.291e-53
-2.116e-51
1.712e-50
-1.586e-49
1.344e-48
-1.046e-47
7.476e-47
-4.842e-46
2.754e-45
-8.134e-45
-5.827e-44
1.629e-42
-2.29e-41
2.658e-40
-2.8e-39
2.799e-38
-2.677e-37
2.528e-36
-2.253e-35
2.025e-34
-1.764e-33
1.522e-32
-1.24e-31
9.7e-31
-7.309e-30
5.304e-29
-3.704e-28
2.482e-27
-1.605e-26
9.608e-26
-5.772e-25
3.293e-24
-1.777e-23
9.528e-23
-4.361e-22
2.865e-21
2.172e-21
1.363e-19
1.308e-18
7.282e-18
3.296e-17
1.332e-16
4.898e-16
1.643e-15
5.028e-15
1.406e-14
3.594e-14
8.418e-14
1.81e-13
3.584e-13
6.561e-13
1.116e-12
1.771e-12
2.636e-12
3.698e-12
4.914e-12
6.22e-12
7.528e-12
8.762e-12
9.833e-12
1.072e-11
1.136e-11
1.177e-11
1.202e-11
1.205e-11
1.199e-11
1.184e-11
1.165e-11
1.142e-11
1.12e-11
1.1e-11
1.083e-11
1.072e-11
1.066e-11
1.068e-11
1.076e-11
1.091e-11
1.114e-11
1.146e-11
1.188e-11
1.239e-11
1.301e-11
1.375e-11
1.462e-11
1.563e-11
1.679e-11
1.813e-11
1.966e-11
2.14e-11
2.338e-11
2.563e-11
2.817e-11
3.105e-11
3.429e-11
3.794e-11
4.204e-11
4.666e-11
5.183e-11
5.763e-11
6.412e-11
7.137e-11
7.947e-11
8.85e-11
9.854e-11
1.097e-10
1.221e-10
1.359e-10
1.511e-10
1.679e-10
1.864e-10
2.069e-10
2.288e-10
2.641e-10
7.467e-61
-7.541e-60
5.503e-59
-3.459e-58
1.882e-57
-8.944e-57
3.744e-56
-1.384e-55
4.492e-55
-1.241e-54
2.637e-54
7.689e-55
-3.036e-53
2.663e-52
-1.978e-51
1.454e-50
-1.078e-49
8.118e-49
-6.435e-48
5.025e-47
-3.872e-46
2.945e-45
-2.22e-44
1.665e-43
-1.265e-42
9.68e-42
-7.533e-41
5.967e-40
-4.788e-39
3.937e-38
-3.252e-37
2.678e-36
-2.019e-35
1.634e-34
-1.221e-33
9.063e-33
-6.464e-32
4.529e-31
-3.053e-30
1.971e-29
-1.212e-28
7.01e-28
-3.87e-27
1.873e-26
-7.763e-26
2.335e-25
-2.376e-26
-5.907e-24
1.312e-22
1.437e-22
4.326e-20
3.964e-19
3.589e-18
2.152e-17
1.07e-16
4.777e-16
1.937e-15
7.137e-15
2.388e-14
7.251e-14
2e-13
5.012e-13
1.144e-12
2.383e-12
4.546e-12
7.981e-12
1.297e-11
1.959e-11
2.769e-11
3.682e-11
4.627e-11
5.539e-11
6.327e-11
6.953e-11
7.349e-11
7.579e-11
7.551e-11
7.423e-11
7.188e-11
6.872e-11
6.51e-11
6.132e-11
5.76e-11
5.41e-11
5.092e-11
4.81e-11
4.568e-11
4.366e-11
4.203e-11
4.079e-11
3.993e-11
3.936e-11
3.926e-11
3.945e-11
3.994e-11
4.079e-11
4.198e-11
4.354e-11
4.548e-11
4.782e-11
5.058e-11
5.381e-11
5.755e-11
6.184e-11
6.673e-11
7.229e-11
7.859e-11
8.57e-11
9.37e-11
1.027e-10
1.128e-10
1.241e-10
1.367e-10
1.508e-10
1.665e-10
1.84e-10
2.035e-10
2.251e-10
2.491e-10
2.756e-10
3.05e-10
3.373e-10
3.73e-10
4.123e-10
4.555e-10
5.03e-10
5.534e-10
6.354e-10
-7.369e-60
7.448e-59
-5.578e-58
3.687e-57
-2.158e-56
1.128e-55
-5.302e-55
2.256e-54
-8.704e-54
3.03e-53
-9.344e-53
2.437e-52
-4.702e-52
4.879e-52
-3.219e-52
3.761e-50
-5.947e-49
6.14e-48
-5.457e-47
4.376e-46
-3.247e-45
2.245e-44
-1.437e-43
8.398e-43
-4.193e-42
1.443e-41
2.107e-41
-1.067e-39
1.287e-38
-1.172e-37
9.621e-37
-6.404e-36
8.523e-35
-3.343e-34
1.539e-33
-4.553e-33
-2.357e-32
5.979e-31
-7.386e-30
7.341e-29
-6.472e-28
5.254e-27
-3.985e-26
2.87e-25
-1.955e-24
1.278e-23
-7.703e-23
5.315e-22
-1.418e-21
1.005e-19
1.262e-18
9.176e-18
5.561e-17
3.038e-16
1.51e-15
6.812e-15
2.785e-14
1.029e-13
3.433e-13
1.033e-12
2.805e-12
6.876e-12
1.525e-11
3.07e-11
5.624e-11
9.437e-11
1.46e-10
2.093e-10
2.801e-10
3.521e-10
4.174e-10
4.725e-10
5.075e-10
5.256e-10
5.215e-10
5.071e-10
4.82e-10
4.494e-10
4.129e-10
3.755e-10
3.391e-10
3.052e-10
2.746e-10
2.476e-10
2.243e-10
2.043e-10
1.875e-10
1.735e-10
1.621e-10
1.529e-10
1.457e-10
1.403e-10
1.365e-10
1.341e-10
1.33e-10
1.335e-10
1.349e-10
1.375e-10
1.413e-10
1.463e-10
1.526e-10
1.601e-10
1.691e-10
1.795e-10
1.915e-10
2.052e-10
2.208e-10
2.384e-10
2.582e-10
2.805e-10
3.054e-10
3.333e-10
3.643e-10
3.989e-10
4.374e-10
4.801e-10
5.273e-10
5.796e-10
6.374e-10
7.012e-10
7.714e-10
8.487e-10
9.335e-10
1.027e-09
1.128e-09
1.24e-09
1.358e-09
1.55e-09
6.7e-59
-6.755e-58
5.164e-57
-3.562e-56
2.222e-55
-1.262e-54
6.58e-54
-3.167e-53
1.413e-52
-5.844e-52
2.221e-51
-7.513e-51
2.045e-50
-3.047e-51
-3.564e-49
3.824e-48
-3.273e-47
2.548e-46
-1.899e-45
1.371e-44
-9.719e-44
6.742e-43
-4.567e-42
3.06e-41
-2.003e-40
1.283e-39
-7.917e-39
4.701e-38
-2.695e-37
1.315e-36
-3.544e-36
-1.672e-35
4.385e-34
-5.484e-33
5.575e-32
-5.087e-31
4.321e-30
-3.474e-29
2.667e-28
-1.966e-27
1.395e-26
-9.534e-26
6.307e-25
-3.997e-24
2.474e-23
-1.435e-22
9.09e-22
-3.044e-21
1.577e-19
2.183e-18
1.755e-17
1.191e-16
7.313e-16
4.083e-15
2.068e-14
9.463e-14
3.901e-13
1.445e-12
4.802e-12
1.43e-11
3.814e-11
9.126e-11
1.962e-10
3.801e-10
6.661e-10
1.064e-09
1.561e-09
2.118e-09
2.677e-09
3.172e-09
3.542e-09
3.794e-09
3.784e-09
3.689e-09
3.491e-09
3.213e-09
2.892e-09
2.559e-09
2.237e-09
1.939e-09
1.674e-09
1.444e-09
1.248e-09
1.083e-09
9.469e-10
8.343e-10
7.422e-10
6.672e-10
6.065e-10
5.578e-10
5.191e-10
4.887e-10
4.656e-10
4.485e-10
4.37e-10
4.298e-10
4.281e-10
4.301e-10
4.356e-10
4.449e-10
4.579e-10
4.748e-10
4.955e-10
5.203e-10
5.493e-10
5.829e-10
6.212e-10
6.647e-10
7.139e-10
7.691e-10
8.308e-10
8.998e-10
9.766e-10
1.062e-09
1.156e-09
1.261e-09
1.377e-09
1.504e-09
1.644e-09
1.799e-09
1.968e-09
2.154e-09
2.357e-09
2.579e-09
2.821e-09
3.086e-09
3.363e-09
3.818e-09
-5.45e-58
5.463e-57
-4.239e-56
3.031e-55
-1.997e-54
1.221e-53
-6.976e-53
3.75e-52
-1.91e-51
9.272e-51
-4.318e-50
1.941e-49
-8.524e-49
3.736e-48
-1.702e-47
8.515e-47
-4.842e-46
3.111e-45
-2.136e-44
1.436e-43
-9.896e-43
6.611e-42
-4.185e-41
2.831e-40
-1.864e-39
1.297e-38
-9.85e-38
7.849e-37
-6.408e-36
5.242e-35
-4.242e-34
3.375e-33
-2.631e-32
2.007e-31
-1.496e-30
1.091e-29
-7.766e-29
5.402e-28
-3.668e-27
2.431e-26
-1.57e-25
9.893e-25
-6.041e-24
3.649e-23
-2.074e-22
1.265e-21
-4.711e-21
2.03e-19
3.108e-18
2.771e-17
2.111e-16
1.46e-15
9.203e-15
5.261e-14
2.715e-13
1.26e-12
5.234e-12
1.942e-11
6.419e-11
1.888e-10
4.939e-10
1.15e-09
2.387e-09
4.435e-09
7.402e-09
1.121e-08
1.554e-08
1.988e-08
2.367e-08
2.637e-08
2.775e-08
2.739e-08
2.618e-08
2.414e-08
2.159e-08
1.881e-08
1.607e-08
1.353e-08
1.128e-08
9.356e-09
7.745e-09
6.423e-09
5.351e-09
4.489e-09
3.799e-09
3.25e-09
2.812e-09
2.463e-09
2.186e-09
1.966e-09
1.792e-09
1.654e-09
1.547e-09
1.466e-09
1.405e-09
1.363e-09
1.336e-09
1.322e-09
1.325e-09
1.338e-09
1.362e-09
1.396e-09
1.443e-09
1.5e-09
1.569e-09
1.65e-09
1.744e-09
1.851e-09
1.972e-09
2.108e-09
2.261e-09
2.432e-09
2.622e-09
2.833e-09
3.066e-09
3.323e-09
3.606e-09
3.918e-09
4.261e-09
4.636e-09
5.047e-09
5.495e-09
5.985e-09
6.518e-09
7.098e-09
7.73e-09
8.386e-09
9.468e-09
3.796e-57
-3.774e-56
2.959e-55
-2.175e-54
1.499e-53
-9.727e-53
5.985e-52
-3.515e-51
1.983e-50
-1.08e-49
5.7e-49
-2.909e-48
1.426e-47
-6.604e-47
2.782e-46
-9.797e-46
1.993e-45
1.026e-44
-1.771e-43
1.579e-42
-1.126e-41
6.799e-41
-3.512e-40
1.057e-39
3.418e-39
-1.046e-37
1.309e-36
-1.227e-35
1.036e-34
-8.221e-34
6.258e-33
-4.617e-32
3.32e-31
-2.336e-30
1.611e-29
-1.09e-28
7.241e-28
-4.722e-27
3.022e-26
-1.897e-25
1.167e-24
-7.026e-24
4.176e-23
-2.321e-22
1.394e-21
-5.477e-21
2.108e-19
3.571e-18
3.533e-17
3.022e-16
2.36e-15
1.683e-14
1.09e-13
6.379e-13
3.354e-12
1.576e-11
6.596e-11
2.448e-10
8.041e-10
2.332e-09
5.965e-09
1.347e-08
2.689e-08
4.768e-08
7.542e-08
1.078e-07
1.406e-07
1.693e-07
1.895e-07
1.972e-07
1.931e-07
1.816e-07
1.641e-07
1.43e-07
1.211e-07
1.003e-07
8.159e-08
6.561e-08
5.239e-08
4.172e-08
3.325e-08
2.663e-08
2.147e-08
1.748e-08
1.438e-08
1.199e-08
1.013e-08
8.679e-09
7.546e-09
6.658e-09
5.961e-09
5.415e-09
4.988e-09
4.657e-09
4.404e-09
4.217e-09
4.085e-09
4.002e-09
3.954e-09
3.961e-09
3.993e-09
4.058e-09
4.154e-09
4.283e-09
4.443e-09
4.636e-09
4.863e-09
5.124e-09
5.422e-09
5.759e-09
6.137e-09
6.559e-09
7.028e-09
7.548e-09
8.122e-09
8.755e-09
9.451e-09
1.021e-08
1.105e-08
1.196e-08
1.296e-08
1.405e-08
1.523e-08
1.652e-08
1.791e-08
1.942e-08
2.098e-08
2.356e-08
-2.17e-56
2.137e-55
-1.685e-54
1.264e-53
-8.994e-53
6.1e-52
-3.967e-51
2.495e-50
-1.533e-49
9.307e-49
-5.654e-48
3.474e-47
-2.173e-46
1.388e-45
-9.016e-45
5.819e-44
-3.774e-43
2.489e-42
-1.633e-41
1.064e-40
-6.87e-40
4.398e-39
-2.794e-38
1.765e-37
-1.109e-36
7.019e-36
-4.406e-35
2.777e-34
-1.758e-33
1.115e-32
-7.079e-32
4.494e-31
-2.848e-30
1.799e-29
-1.131e-28
7.064e-28
-4.376e-27
2.685e-26
-1.629e-25
9.76e-25
-5.761e-24
3.359e-23
-1.876e-22
1.193e-21
-4.877e-21
1.74e-19
3.259e-18
3.575e-17
3.429e-16
3.019e-15
2.436e-14
1.791e-13
1.192e-12
7.133e-12
3.816e-11
1.815e-10
7.638e-10
2.832e-09
9.218e-09
2.628e-08
6.553e-08
1.429e-07
2.732e-07
4.598e-07
6.856e-07
9.206e-07
1.128e-06
1.277e-06
1.326e-06
1.291e-06
1.201e-06
1.068e-06
9.125e-07
7.546e-07
6.079e-07
4.801e-07
3.738e-07
2.885e-07
2.217e-07
1.704e-07
1.315e-07
1.021e-07
8.008e-08
6.354e-08
5.109e-08
4.167e-08
3.452e-08
2.905e-08
2.484e-08
2.158e-08
1.904e-08
1.707e-08
1.553e-08
1.433e-08
1.341e-08
1.271e-08
1.219e-08
1.183e-08
1.161e-08
1.149e-08
1.151e-08
1.161e-08
1.18e-08
1.208e-08
1.244e-08
1.29e-08
1.344e-08
1.407e-08
1.48e-08
1.563e-08
1.656e-08
1.759e-08
1.875e-08
2.003e-08
2.145e-08
2.3e-08
2.471e-08
2.657e-08
2.862e-08
3.084e-08
3.327e-08
3.59e-08
3.876e-08
4.185e-08
4.519e-08
4.881e-08
5.253e-08
5.868e-08
9.661e-56
-9.641e-55
7.686e-54
-5.842e-53
4.224e-52
-2.905e-51
1.897e-50
-1.172e-49
6.801e-49
-3.664e-48
1.786e-47
-7.377e-47
2.051e-46
6.182e-46
-1.32e-44
1.335e-43
-1.129e-42
8.506e-42
-5.973e-41
3.975e-40
-2.531e-39
1.546e-38
-9.031e-38
5.01e-37
-2.54e-36
1.333e-35
-4.784e-35
7.634e-35
7.4e-34
-1.186e-32
1.17e-31
-9.796e-31
7.52e-30
-5.463e-29
3.814e-28
-2.581e-27
1.702e-26
-1.097e-25
6.931e-25
-4.292e-24
2.61e-23
-1.547e-22
9.503e-22
-3.462e-21
1.112e-19
2.327e-18
2.83e-17
3.035e-16
3.003e-15
2.737e-14
2.281e-13
1.726e-12
1.178e-11
7.196e-11
3.909e-10
1.877e-09
7.922e-09
2.925e-08
9.406e-08
2.626e-07
6.353e-07
1.331e-06
2.423e-06
3.849e-06
5.382e-06
6.766e-06
7.795e-06
8.169e-06
7.941e-06
7.346e-06
6.465e-06
5.447e-06
4.425e-06
3.492e-06
2.692e-06
2.042e-06
1.531e-06
1.141e-06
8.487e-07
6.332e-07
4.754e-07
3.603e-07
2.763e-07
2.148e-07
1.695e-07
1.36e-07
1.109e-07
9.202e-08
7.768e-08
6.67e-08
5.824e-08
5.168e-08
4.658e-08
4.261e-08
3.954e-08
3.718e-08
3.541e-08
3.412e-08
3.324e-08
3.271e-08
3.249e-08
3.261e-08
3.295e-08
3.353e-08
3.435e-08
3.541e-08
3.67e-08
3.823e-08
4e-08
4.201e-08
4.429e-08
4.684e-08
4.968e-08
5.283e-08
5.63e-08
6.011e-08
6.428e-08
6.884e-08
7.382e-08
7.923e-08
8.51e-08
9.147e-08
9.836e-08
1.058e-07
1.138e-07
1.225e-07
1.313e-07
1.459e-07
-5.242e-55
4.728e-54
-3.6e-53
2.771e-52
-2.135e-51
1.635e-50
-1.238e-49
9.215e-49
-6.726e-48
4.807e-47
-3.364e-46
2.307e-45
-1.553e-44
1.029e-43
-6.715e-43
4.33e-42
-2.764e-41
1.744e-40
-1.094e-39
6.812e-39
-4.23e-38
2.617e-37
-1.615e-36
9.939e-36
-6.093e-35
3.727e-34
-2.269e-33
1.374e-32
-8.275e-32
4.957e-31
-2.953e-30
1.749e-29
-1.031e-28
6.037e-28
-3.515e-27
2.034e-26
-1.17e-25
6.682e-25
-3.79e-24
2.135e-23
-1.189e-22
6.763e-22
-2.964e-21
4.041e-20
1.247e-18
1.731e-17
2.073e-16
2.295e-15
2.349e-14
2.211e-13
1.899e-12
1.475e-11
1.029e-10
6.399e-10
3.517e-09
1.697e-08
7.151e-08
2.615e-07
8.258e-07
2.244e-06
5.232e-06
1.047e-05
1.802e-05
2.685e-05
3.508e-05
4.144e-05
4.438e-05
4.326e-05
4.005e-05
3.514e-05
2.942e-05
2.367e-05
1.844e-05
1.399e-05
1.041e-05
7.639e-06
5.557e-06
4.027e-06
2.922e-06
2.13e-06
1.566e-06
1.165e-06
8.785e-07
6.728e-07
5.239e-07
4.152e-07
3.351e-07
2.754e-07
2.304e-07
1.963e-07
1.701e-07
1.5e-07
1.343e-07
1.222e-07
1.127e-07
1.054e-07
9.989e-08
9.579e-08
9.285e-08
9.101e-08
8.977e-08
8.984e-08
9.039e-08
9.156e-08
9.338e-08
9.582e-08
9.887e-08
1.025e-07
1.068e-07
1.117e-07
1.173e-07
1.235e-07
1.305e-07
1.382e-07
1.467e-07
1.56e-07
1.661e-07
1.772e-07
1.893e-07
2.024e-07
2.166e-07
2.319e-07
2.485e-07
2.663e-07
2.854e-07
3.06e-07
3.269e-07
3.615e-07
-1.793e-54
1.787e-53
-1.443e-52
1.125e-51
-8.44e-51
6.098e-50
-4.249e-49
2.858e-48
-1.86e-47
1.173e-46
-7.187e-46
4.292e-45
-2.506e-44
1.437e-43
-8.138e-43
4.581e-42
-2.583e-41
1.478e-40
-8.625e-40
5.184e-39
-3.207e-38
2.045e-37
-1.34e-36
8.973e-36
-6.099e-35
4.185e-34
-2.849e-33
1.91e-32
-1.262e-31
8.228e-31
-5.307e-30
3.39e-29
-2.146e-28
1.348e-27
-8.403e-27
5.203e-26
-3.2e-25
1.956e-24
-1.189e-23
7.183e-23
-4.288e-22
2.679e-21
-1.001e-20
3.323e-19
7.849e-18
1.085e-16
1.337e-15
1.529e-14
1.615e-13
1.566e-12
1.38e-11
1.097e-10
7.793e-10
4.904e-09
2.711e-08
1.306e-07
5.449e-07
1.955e-06
6.004e-06
1.571e-05
3.498e-05
6.625e-05
0.0001071
0.0001488
0.0001827
0.0002031
0.0001995
0.0001863
0.0001645
0.0001381
0.0001112
8.637e-05
6.522e-05
4.812e-05
3.49e-05
2.501e-05
1.78e-05
1.265e-05
9.016e-06
6.47e-06
4.691e-06
3.446e-06
2.571e-06
1.95e-06
1.507e-06
1.186e-06
9.51e-07
7.774e-07
6.475e-07
5.494e-07
4.744e-07
4.167e-07
3.72e-07
3.373e-07
3.103e-07
2.895e-07
2.735e-07
2.614e-07
2.527e-07
2.469e-07
2.432e-07
2.421e-07
2.429e-07
2.454e-07
2.494e-07
2.551e-07
2.624e-07
2.712e-07
2.815e-07
2.935e-07
3.071e-07
3.223e-07
3.392e-07
3.58e-07
3.786e-07
4.012e-07
4.259e-07
4.528e-07
4.819e-07
5.134e-07
5.475e-07
5.842e-07
6.237e-07
6.66e-07
7.112e-07
7.598e-07
8.089e-07
8.897e-07
7.425e-54
-6.848e-53
5.279e-52
-4.067e-51
3.103e-50
-2.338e-49
1.736e-48
-1.267e-47
9.082e-47
-6.389e-46
4.411e-45
-2.991e-44
1.993e-43
-1.307e-42
8.444e-42
-5.383e-41
3.391e-40
-2.113e-39
1.305e-38
-7.991e-38
4.859e-37
-2.936e-36
1.765e-35
-1.056e-34
6.293e-34
-3.736e-33
2.207e-32
-1.298e-31
7.609e-31
-4.444e-30
2.588e-29
-1.503e-28
8.716e-28
-5.045e-27
2.916e-26
-1.684e-25
9.719e-25
-5.608e-24
3.238e-23
-1.864e-22
1.107e-21
-4.972e-21
8.703e-20
2.834e-18
4.372e-17
5.944e-16
7.528e-15
8.865e-14
9.632e-13
9.576e-12
8.631e-11
6.984e-10
5.022e-09
3.178e-08
1.751e-07
8.339e-07
3.404e-06
1.183e-05
3.478e-05
8.633e-05
0.0001812
0.000321
0.0004845
0.0006268
0.0007418
0.00074
0.0007048
0.0006328
0.000539
0.0004391
0.0003448
0.0002624
0.0001946
0.0001413
0.000101
7.144e-05
5.024e-05
3.531e-05
2.492e-05
1.773e-05
1.277e-05
9.323e-06
6.922e-06
5.232e-06
4.03e-06
3.166e-06
2.536e-06
2.071e-06
1.724e-06
1.462e-06
1.262e-06
1.108e-06
9.895e-07
8.969e-07
8.249e-07
7.69e-07
7.26e-07
6.935e-07
6.697e-07
6.533e-07
6.432e-07
6.382e-07
6.398e-07
6.45e-07
6.544e-07
6.678e-07
6.852e-07
7.065e-07
7.316e-07
7.607e-07
7.936e-07
8.306e-07
8.718e-07
9.173e-07
9.672e-07
1.022e-06
1.081e-06
1.146e-06
1.216e-06
1.291e-06
1.372e-06
1.459e-06
1.552e-06
1.651e-06
1.756e-06
1.869e-06
1.983e-06
2.169e-06
1.409e-53
-1.389e-52
1.124e-51
-8.881e-51
6.815e-50
-5.078e-49
3.678e-48
-2.59e-47
1.778e-46
-1.191e-45
7.809e-45
-5.022e-44
3.178e-43
-1.984e-42
1.226e-41
-7.512e-41
4.58e-40
-2.785e-39
1.692e-38
-1.029e-37
6.272e-37
-3.834e-36
2.353e-35
-1.45e-34
8.968e-34
-5.576e-33
3.457e-32
-2.133e-31
1.311e-30
-8.023e-30
4.897e-29
-2.983e-28
1.814e-27
-1.103e-26
6.703e-26
-4.077e-25
2.483e-24
-1.515e-23
9.276e-23
-5.665e-22
3.656e-21
-1.403e-20
4.991e-19
1.31e-17
2.022e-16
2.819e-15
3.668e-14
4.432e-13
4.933e-12
5.01e-11
4.594e-10
3.763e-09
2.722e-08
1.717e-07
9.343e-07
4.341e-06
1.707e-05
5.633e-05
0.0001556
0.0003596
0.0007009
0.001147
0.001618
0.00198
0.002141
0.002078
0.001911
0.001668
0.001394
0.001122
0.0008743
0.0006624
0.0004896
0.0003546
0.0002528
0.0001782
0.000125
8.766e-05
6.175e-05
4.39e-05
3.159e-05
2.309e-05
1.717e-05
1.3e-05
1.004e-05
7.91e-06
6.357e-06
5.209e-06
4.351e-06
3.702e-06
3.207e-06
2.825e-06
2.528e-06
2.297e-06
2.117e-06
1.977e-06
1.869e-06
1.788e-06
1.728e-06
1.686e-06
1.66e-06
1.647e-06
1.65e-06
1.663e-06
1.685e-06
1.718e-06
1.76e-06
1.812e-06
1.873e-06
1.944e-06
2.024e-06
2.113e-06
2.213e-06
2.322e-06
2.442e-06
2.573e-06
2.714e-06
2.867e-06
3.032e-06
3.209e-06
3.398e-06
3.6e-06
3.815e-06
4.043e-06
4.284e-06
4.541e-06
4.796e-06
5.213e-06
-3.808e-53
3.551e-52
-2.761e-51
2.137e-50
-1.633e-49
1.23e-48
-9.103e-48
6.619e-47
-4.723e-46
3.307e-45
-2.272e-44
1.532e-43
-1.015e-42
6.619e-42
-4.248e-41
2.687e-40
-1.678e-39
1.036e-38
-6.328e-38
3.829e-37
-2.299e-36
1.37e-35
-8.12e-35
4.788e-34
-2.811e-33
1.645e-32
-9.583e-32
5.564e-31
-3.224e-30
1.865e-29
-1.079e-28
6.246e-28
-3.621e-27
2.104e-26
-1.227e-25
7.182e-25
-4.228e-24
2.506e-23
-1.492e-22
9.243e-22
-4.22e-21
9.264e-20
3.152e-18
5.338e-17
8.104e-16
1.155e-14
1.538e-13
1.901e-12
2.158e-11
2.229e-10
2.07e-09
1.707e-08
1.233e-07
7.694e-07
4.087e-06
1.828e-05
6.794e-05
0.0002085
0.0005292
0.00112
0.001997
0.002993
0.004061
0.004671
0.004629
0.004394
0.003959
0.003419
0.002858
0.002317
0.001826
0.001399
0.001045
0.0007643
0.0005494
0.0003902
0.0002754
0.0001943
0.0001377
9.846e-05
7.133e-05
5.249e-05
3.931e-05
3e-05
2.335e-05
1.854e-05
1.501e-05
1.24e-05
1.043e-05
8.936e-06
7.79e-06