/*--------------------------------*- C++ -*----------------------------------*\
  =========                 |
  \\      /  F ield         | OpenFOAM: The Open Source CFD Toolbox
   \\    /   O peration     | Website:  https://openfoam.org
    \\  /    A nd           | Version:  7
     \\/     M anipulation  |
\*---------------------------------------------------------------------------*/
FoamFile
{
    version     2.0;
    format      ascii;
    class       volScalarField;
    location    "2099.99947343408576";
    object      p;
}
// * * * * * * * * * * * * * * * * * * * * * * * * * * * * * * * * * * * * * //

dimensions      [0 2 -2 0 0 0 0];

internalField   nonuniform List<scalar> 
4096
(
0.0005682
0.0003973
0.000313
0.0002709
0.0002475
0.0002336
0.0002247
0.0002186
0.0002142
0.0002109
0.0002084
0.0002063
0.0002047
0.0002033
0.0002021
0.0002011
0.0002002
0.0001994
0.0001987
0.0001981
0.0001975
0.0001969
0.0001964
0.0001958
0.0001953
0.0001948
0.0001944
0.0001939
0.0001934
0.000193
0.0001925
0.000192
0.0001915
0.000191
0.0001905
0.0001899
0.0001893
0.0001887
0.000188
0.0001872
0.0001864
0.0001855
0.0001845
0.0001834
0.0001821
0.0001807
0.0001791
0.0001773
0.0001753
0.000173
0.0001705
0.0001676
0.0001645
0.000161
0.0001572
0.0001531
0.0001486
0.0001438
0.0001387
0.0001333
0.0001276
0.0001218
0.0001158
0.0001097
0.0001036
9.744e-05
9.141e-05
8.55e-05
7.977e-05
7.425e-05
6.898e-05
6.398e-05
5.927e-05
5.486e-05
5.076e-05
4.696e-05
4.348e-05
4.028e-05
3.738e-05
3.474e-05
3.236e-05
3.022e-05
2.829e-05
2.657e-05
2.502e-05
2.363e-05
2.239e-05
2.128e-05
2.027e-05
1.936e-05
1.853e-05
1.778e-05
1.708e-05
1.643e-05
1.582e-05
1.525e-05
1.471e-05
1.419e-05
1.368e-05
1.319e-05
1.271e-05
1.224e-05
1.178e-05
1.132e-05
1.086e-05
1.04e-05
9.943e-06
9.486e-06
9.027e-06
8.568e-06
8.106e-06
7.642e-06
7.176e-06
6.707e-06
6.235e-06
5.761e-06
5.284e-06
4.804e-06
4.321e-06
3.835e-06
3.347e-06
2.856e-06
2.365e-06
1.875e-06
1.388e-06
9.104e-07
4.55e-07
9.288e-08
0.0004237
0.00036
0.0003102
0.0002781
0.0002572
0.0002429
0.0002329
0.0002255
0.00022
0.0002158
0.0002125
0.0002098
0.0002076
0.0002058
0.0002043
0.0002029
0.0002018
0.0002008
0.0001998
0.000199
0.0001982
0.0001975
0.0001968
0.0001962
0.0001956
0.000195
0.0001944
0.0001938
0.0001932
0.0001927
0.0001921
0.0001915
0.0001909
0.0001903
0.0001897
0.000189
0.0001883
0.0001875
0.0001867
0.0001859
0.0001849
0.0001839
0.0001828
0.0001815
0.0001802
0.0001786
0.0001769
0.0001751
0.000173
0.0001706
0.000168
0.0001652
0.0001621
0.0001586
0.0001549
0.0001509
0.0001465
0.0001419
0.000137
0.0001318
0.0001264
0.0001209
0.0001152
0.0001094
0.0001036
9.775e-05
9.201e-05
8.639e-05
8.092e-05
7.564e-05
7.059e-05
6.577e-05
6.122e-05
5.694e-05
5.294e-05
4.923e-05
4.578e-05
4.262e-05
3.971e-05
3.705e-05
3.463e-05
3.243e-05
3.044e-05
2.863e-05
2.7e-05
2.552e-05
2.418e-05
2.297e-05
2.186e-05
2.085e-05
1.992e-05
1.907e-05
1.828e-05
1.754e-05
1.685e-05
1.619e-05
1.557e-05
1.498e-05
1.44e-05
1.385e-05
1.331e-05
1.278e-05
1.227e-05
1.176e-05
1.126e-05
1.076e-05
1.027e-05
9.777e-06
9.288e-06
8.801e-06
8.315e-06
7.829e-06
7.342e-06
6.856e-06
6.368e-06
5.88e-06
5.391e-06
4.9e-06
4.408e-06
3.915e-06
3.421e-06
2.927e-06
2.433e-06
1.941e-06
1.453e-06
9.722e-07
5.063e-07
1.142e-07
0.0003403
0.0003186
0.0002931
0.0002724
0.0002568
0.0002451
0.0002361
0.0002291
0.0002235
0.0002191
0.0002154
0.0002125
0.00021
0.0002079
0.0002061
0.0002045
0.0002031
0.0002019
0.0002008
0.0001998
0.0001989
0.0001981
0.0001973
0.0001965
0.0001958
0.0001951
0.0001944
0.0001937
0.000193
0.0001924
0.0001917
0.000191
0.0001903
0.0001896
0.0001889
0.0001881
0.0001873
0.0001865
0.0001855
0.0001846
0.0001835
0.0001824
0.0001812
0.0001798
0.0001783
0.0001767
0.0001749
0.000173
0.0001708
0.0001685
0.0001659
0.000163
0.0001599
0.0001566
0.0001529
0.000149
0.0001447
0.0001403
0.0001355
0.0001306
0.0001254
0.0001201
0.0001146
0.0001091
0.0001035
9.799e-05
9.251e-05
8.714e-05
8.19e-05
7.684e-05
7.198e-05
6.734e-05
6.294e-05
5.879e-05
5.489e-05
5.125e-05
4.786e-05
4.472e-05
4.182e-05
3.916e-05
3.671e-05
3.447e-05
3.243e-05
3.056e-05
2.885e-05
2.73e-05
2.587e-05
2.457e-05
2.338e-05
2.228e-05
2.126e-05
2.032e-05
1.944e-05
1.862e-05
1.784e-05
1.711e-05
1.642e-05
1.575e-05
1.511e-05
1.45e-05
1.39e-05
1.332e-05
1.276e-05
1.22e-05
1.166e-05
1.112e-05
1.059e-05
1.007e-05
9.553e-06
9.039e-06
8.528e-06
8.02e-06
7.514e-06
7.009e-06
6.506e-06
6.004e-06
5.502e-06
5e-06
4.499e-06
3.998e-06
3.497e-06
2.997e-06
2.497e-06
2e-06
1.505e-06
1.016e-06
5.333e-07
1.175e-07
0.0002955
0.0002885
0.0002751
0.0002619
0.0002511
0.0002423
0.0002352
0.0002293
0.0002244
0.0002203
0.0002168
0.0002138
0.0002113
0.0002091
0.0002072
0.0002056
0.0002041
0.0002028
0.0002016
0.0002005
0.0001994
0.0001985
0.0001976
0.0001967
0.0001959
0.0001951
0.0001944
0.0001936
0.0001929
0.0001921
0.0001914
0.0001906
0.0001898
0.000189
0.0001882
0.0001873
0.0001864
0.0001855
0.0001845
0.0001834
0.0001823
0.0001811
0.0001798
0.0001783
0.0001768
0.0001751
0.0001733
0.0001713
0.0001691
0.0001667
0.0001641
0.0001613
0.0001582
0.0001549
0.0001513
0.0001474
0.0001433
0.000139
0.0001344
0.0001296
0.0001246
0.0001195
0.0001142
0.0001089
0.0001035
9.815e-05
9.287e-05
8.769e-05
8.264e-05
7.775e-05
7.305e-05
6.856e-05
6.429e-05
6.024e-05
5.643e-05
5.286e-05
4.953e-05
4.643e-05
4.355e-05
4.089e-05
3.843e-05
3.617e-05
3.409e-05
3.218e-05
3.043e-05
2.881e-05
2.733e-05
2.596e-05
2.469e-05
2.352e-05
2.243e-05
2.142e-05
2.047e-05
1.958e-05
1.874e-05
1.794e-05
1.718e-05
1.646e-05
1.576e-05
1.509e-05
1.445e-05
1.382e-05
1.321e-05
1.261e-05
1.203e-05
1.146e-05
1.09e-05
1.035e-05
9.801e-06
9.262e-06
8.729e-06
8.2e-06
7.676e-06
7.155e-06
6.636e-06
6.121e-06
5.607e-06
5.095e-06
4.584e-06
4.075e-06
3.567e-06
3.059e-06
2.553e-06
2.048e-06
1.545e-06
1.044e-06
5.456e-07
1.148e-07
0.0002686
0.0002676
0.0002607
0.0002521
0.0002443
0.0002377
0.0002322
0.0002275
0.0002235
0.0002199
0.0002169
0.0002142
0.0002118
0.0002097
0.0002078
0.0002062
0.0002046
0.0002033
0.000202
0.0002009
0.0001998
0.0001988
0.0001978
0.0001969
0.000196
0.0001952
0.0001943
0.0001935
0.0001927
0.0001919
0.000191
0.0001902
0.0001894
0.0001885
0.0001876
0.0001867
0.0001857
0.0001847
0.0001836
0.0001825
0.0001813
0.00018
0.0001786
0.0001771
0.0001755
0.0001738
0.0001719
0.0001699
0.0001677
0.0001653
0.0001627
0.0001599
0.0001568
0.0001536
0.00015
0.0001463
0.0001423
0.000138
0.0001335
0.0001288
0.000124
0.000119
0.0001138
0.0001087
0.0001034
9.825e-05
9.312e-05
8.808e-05
8.318e-05
7.843e-05
7.386e-05
6.948e-05
6.532e-05
6.137e-05
5.764e-05
5.413e-05
5.085e-05
4.778e-05
4.493e-05
4.228e-05
3.983e-05
3.756e-05
3.546e-05
3.352e-05
3.173e-05
3.008e-05
2.855e-05
2.713e-05
2.581e-05
2.459e-05
2.344e-05
2.237e-05
2.136e-05
2.041e-05
1.951e-05
1.866e-05
1.785e-05
1.708e-05
1.633e-05
1.562e-05
1.493e-05
1.426e-05
1.361e-05
1.298e-05
1.236e-05
1.176e-05
1.117e-05
1.059e-05
1.003e-05
9.464e-06
8.911e-06
8.364e-06
7.823e-06
7.287e-06
6.755e-06
6.228e-06
5.703e-06
5.181e-06
4.662e-06
4.144e-06
3.628e-06
3.114e-06
2.6e-06
2.088e-06
1.576e-06
1.064e-06
5.531e-07
1.116e-07
0.0002513
0.0002528
0.0002494
0.0002438
0.0002381
0.000233
0.0002287
0.0002249
0.0002216
0.0002187
0.0002161
0.0002137
0.0002116
0.0002097
0.0002079
0.0002063
0.0002048
0.0002035
0.0002022
0.0002011
0.0002
0.0001989
0.0001979
0.000197
0.000196
0.0001951
0.0001942
0.0001934
0.0001925
0.0001916
0.0001907
0.0001899
0.000189
0.000188
0.0001871
0.0001861
0.0001851
0.000184
0.0001829
0.0001817
0.0001804
0.0001791
0.0001776
0.0001761
0.0001745
0.0001727
0.0001708
0.0001688
0.0001666
0.0001642
0.0001616
0.0001588
0.0001558
0.0001526
0.0001491
0.0001454
0.0001415
0.0001373
0.0001329
0.0001283
0.0001235
0.0001186
0.0001136
0.0001085
0.0001034
9.828e-05
9.326e-05
8.833e-05
8.354e-05
7.89e-05
7.443e-05
7.015e-05
6.607e-05
6.22e-05
5.854e-05
5.509e-05
5.186e-05
4.883e-05
4.6e-05
4.337e-05
4.093e-05
3.866e-05
3.655e-05
3.46e-05
3.279e-05
3.111e-05
2.955e-05
2.809e-05
2.674e-05
2.547e-05
2.428e-05
2.316e-05
2.211e-05
2.112e-05
2.017e-05
1.928e-05
1.842e-05
1.761e-05
1.682e-05
1.607e-05
1.534e-05
1.464e-05
1.396e-05
1.33e-05
1.265e-05
1.203e-05
1.141e-05
1.081e-05
1.022e-05
9.641e-06
9.07e-06
8.507e-06
7.952e-06
7.403e-06
6.86e-06
6.321e-06
5.787e-06
5.257e-06
4.729e-06
4.204e-06
3.682e-06
3.16e-06
2.64e-06
2.121e-06
1.601e-06
1.081e-06
5.591e-07
1.092e-07
0.0002394
0.0002418
0.0002405
0.0002369
0.0002327
0.0002287
0.0002252
0.0002222
0.0002195
0.000217
0.0002148
0.0002128
0.0002109
0.0002092
0.0002076
0.0002061
0.0002047
0.0002034
0.0002022
0.0002011
0.0002
0.0001989
0.0001979
0.0001969
0.000196
0.0001951
0.0001941
0.0001932
0.0001923
0.0001914
0.0001905
0.0001896
0.0001886
0.0001876
0.0001866
0.0001856
0.0001845
0.0001834
0.0001822
0.000181
0.0001797
0.0001783
0.0001769
0.0001753
0.0001737
0.0001719
0.00017
0.0001679
0.0001657
0.0001633
0.0001608
0.000158
0.000155
0.0001519
0.0001484
0.0001448
0.0001409
0.0001368
0.0001324
0.0001279
0.0001232
0.0001183
0.0001134
0.0001083
0.0001033
9.826e-05
9.331e-05
8.846e-05
8.375e-05
7.919e-05
7.48e-05
7.06e-05
6.659e-05
6.278e-05
5.918e-05
5.578e-05
5.258e-05
4.959e-05
4.679e-05
4.418e-05
4.175e-05
3.949e-05
3.739e-05
3.543e-05
3.361e-05
3.191e-05
3.033e-05
2.886e-05
2.747e-05
2.618e-05
2.496e-05
2.381e-05
2.272e-05
2.169e-05
2.071e-05
1.978e-05
1.889e-05
1.804e-05
1.723e-05
1.644e-05
1.568e-05
1.495e-05
1.425e-05
1.356e-05
1.289e-05
1.224e-05
1.161e-05
1.099e-05
1.038e-05
9.787e-06
9.202e-06
8.626e-06
8.059e-06
7.499e-06
6.946e-06
6.399e-06
5.857e-06
5.319e-06
4.785e-06
4.254e-06
3.726e-06
3.199e-06
2.673e-06
2.148e-06
1.622e-06
1.095e-06
5.648e-07
1.082e-07
0.0002308
0.0002335
0.0002334
0.0002311
0.0002281
0.000225
0.0002221
0.0002195
0.0002172
0.0002152
0.0002133
0.0002116
0.00021
0.0002085
0.000207
0.0002057
0.0002044
0.0002032
0.000202
0.0002009
0.0001999
0.0001988
0.0001978
0.0001968
0.0001959
0.000195
0.000194
0.0001931
0.0001922
0.0001912
0.0001903
0.0001893
0.0001883
0.0001873
0.0001863
0.0001852
0.0001841
0.000183
0.0001818
0.0001805
0.0001792
0.0001778
0.0001763
0.0001748
0.0001731
0.0001713
0.0001694
0.0001673
0.0001651
0.0001628
0.0001602
0.0001575
0.0001545
0.0001514
0.000148
0.0001444
0.0001406
0.0001365
0.0001322
0.0001277
0.000123
0.0001181
0.0001132
0.0001082
0.0001032
9.819e-05
9.328e-05
8.848e-05
8.382e-05
7.932e-05
7.499e-05
7.084e-05
6.689e-05
6.313e-05
5.957e-05
5.621e-05
5.305e-05
5.009e-05
4.732e-05
4.473e-05
4.231e-05
4.007e-05
3.797e-05
3.602e-05
3.42e-05
3.25e-05
3.091e-05
2.942e-05
2.802e-05
2.671e-05
2.546e-05
2.429e-05
2.318e-05
2.213e-05
2.112e-05
2.017e-05
1.925e-05
1.838e-05
1.754e-05
1.673e-05
1.595e-05
1.52e-05
1.447e-05
1.377e-05
1.308e-05
1.241e-05
1.176e-05
1.113e-05
1.051e-05
9.9e-06
9.304e-06
8.718e-06
8.142e-06
7.573e-06
7.013e-06
6.459e-06
5.911e-06
5.367e-06
4.828e-06
4.293e-06
3.76e-06
3.229e-06
2.699e-06
2.17e-06
1.64e-06
1.107e-06
5.709e-07
1.088e-07
0.0002243
0.000227
0.0002275
0.0002263
0.0002241
0.0002217
0.0002193
0.0002171
0.0002152
0.0002134
0.0002118
0.0002103
0.0002089
0.0002076
0.0002063
0.0002051
0.0002039
0.0002028
0.0002017
0.0002007
0.0001996
0.0001986
0.0001977
0.0001967
0.0001958
0.0001948
0.0001939
0.000193
0.000192
0.0001911
0.0001901
0.0001891
0.0001881
0.0001871
0.0001861
0.000185
0.0001839
0.0001827
0.0001815
0.0001802
0.0001789
0.0001775
0.000176
0.0001744
0.0001727
0.0001709
0.000169
0.000167
0.0001648
0.0001624
0.0001599
0.0001572
0.0001543
0.0001512
0.0001478
0.0001442
0.0001404
0.0001364
0.0001321
0.0001276
0.0001229
0.000118
0.0001131
0.0001081
0.000103
9.806e-05
9.317e-05
8.839e-05
8.376e-05
7.93e-05
7.5e-05
7.089e-05
6.698e-05
6.325e-05
5.972e-05
5.64e-05
5.327e-05
5.033e-05
4.759e-05
4.502e-05
4.263e-05
4.04e-05
3.832e-05
3.638e-05
3.457e-05
3.287e-05
3.128e-05
2.979e-05
2.839e-05
2.706e-05
2.581e-05
2.463e-05
2.35e-05
2.243e-05
2.141e-05
2.044e-05
1.951e-05
1.861e-05
1.776e-05
1.693e-05
1.614e-05
1.537e-05
1.463e-05
1.391e-05
1.321e-05
1.253e-05
1.187e-05
1.122e-05
1.059e-05
9.978e-06
9.374e-06
8.781e-06
8.198e-06
7.624e-06
7.058e-06
6.499e-06
5.947e-06
5.4e-06
4.858e-06
4.319e-06
3.784e-06
3.251e-06
2.718e-06
2.186e-06
1.653e-06
1.118e-06
5.777e-07
1.111e-07
0.0002192
0.0002217
0.0002227
0.0002221
0.0002206
0.0002188
0.0002168
0.000215
0.0002133
0.0002118
0.0002103
0.000209
0.0002078
0.0002066
0.0002055
0.0002044
0.0002033
0.0002023
0.0002013
0.0002003
0.0001993
0.0001984
0.0001974
0.0001965
0.0001956
0.0001947
0.0001938
0.0001928
0.0001919
0.0001909
0.00019
0.000189
0.000188
0.000187
0.0001859
0.0001848
0.0001837
0.0001825
0.0001813
0.00018
0.0001787
0.0001773
0.0001758
0.0001742
0.0001725
0.0001708
0.0001689
0.0001668
0.0001647
0.0001624
0.0001599
0.0001572
0.0001543
0.0001512
0.0001478
0.0001443
0.0001405
0.0001364
0.0001321
0.0001276
0.0001229
0.000118
0.000113
0.0001079
0.0001029
9.788e-05
9.297e-05
8.82e-05
8.358e-05
7.913e-05
7.485e-05
7.076e-05
6.687e-05
6.316e-05
5.966e-05
5.635e-05
5.324e-05
5.033e-05
4.761e-05
4.507e-05
4.27e-05
4.049e-05
3.844e-05
3.652e-05
3.472e-05
3.304e-05
3.146e-05
2.997e-05
2.857e-05
2.725e-05
2.6e-05
2.481e-05
2.368e-05
2.26e-05
2.158e-05
2.059e-05
1.965e-05
1.875e-05
1.788e-05
1.705e-05
1.624e-05
1.547e-05
1.472e-05
1.399e-05
1.328e-05
1.26e-05
1.193e-05
1.128e-05
1.064e-05
1.002e-05
9.411e-06
8.813e-06
8.227e-06
7.65e-06
7.081e-06
6.52e-06
5.966e-06
5.417e-06
4.874e-06
4.334e-06
3.798e-06
3.263e-06
2.73e-06
2.198e-06
1.664e-06
1.127e-06
5.853e-07
1.152e-07
0.0002152
0.0002175
0.0002187
0.0002185
0.0002176
0.0002162
0.0002146
0.0002131
0.0002116
0.0002103
0.000209
0.0002078
0.0002067
0.0002057
0.0002047
0.0002037
0.0002027
0.0002018
0.0002008
0.0001999
0.000199
0.0001981
0.0001972
0.0001963
0.0001954
0.0001945
0.0001936
0.0001927
0.0001918
0.0001909
0.0001899
0.0001889
0.0001879
0.0001869
0.0001859
0.0001848
0.0001837
0.0001825
0.0001813
0.00018
0.0001787
0.0001773
0.0001758
0.0001742
0.0001726
0.0001708
0.0001689
0.0001669
0.0001648
0.0001625
0.00016
0.0001574
0.0001545
0.0001514
0.0001481
0.0001445
0.0001407
0.0001366
0.0001323
0.0001278
0.000123
0.000118
0.000113
0.0001078
0.0001027
9.764e-05
9.269e-05
8.79e-05
8.327e-05
7.881e-05
7.454e-05
7.045e-05
6.656e-05
6.286e-05
5.936e-05
5.606e-05
5.297e-05
5.008e-05
4.738e-05
4.487e-05
4.253e-05
4.035e-05
3.832e-05
3.643e-05
3.466e-05
3.3e-05
3.144e-05
2.997e-05
2.858e-05
2.727e-05
2.603e-05
2.484e-05
2.372e-05
2.264e-05
2.161e-05
2.063e-05
1.969e-05
1.878e-05
1.791e-05
1.708e-05
1.627e-05
1.549e-05
1.474e-05
1.4e-05
1.33e-05
1.261e-05
1.194e-05
1.128e-05
1.065e-05
1.002e-05
9.413e-06
8.815e-06
8.227e-06
7.65e-06
7.081e-06
6.52e-06
5.966e-06
5.418e-06
4.875e-06
4.336e-06
3.801e-06
3.267e-06
2.736e-06
2.204e-06
1.671e-06
1.135e-06
5.94e-07
1.213e-07
0.0002118
0.000214
0.0002152
0.0002155
0.0002149
0.0002139
0.0002127
0.0002114
0.0002101
0.0002089
0.0002078
0.0002067
0.0002057
0.0002048
0.0002039
0.000203
0.0002021
0.0002012
0.0002004
0.0001995
0.0001987
0.0001978
0.000197
0.0001961
0.0001953
0.0001944
0.0001935
0.0001926
0.0001917
0.0001908
0.0001899
0.0001889
0.000188
0.000187
0.0001859
0.0001848
0.0001837
0.0001826
0.0001814
0.0001801
0.0001788
0.0001774
0.000176
0.0001744
0.0001728
0.0001711
0.0001692
0.0001673
0.0001652
0.0001629
0.0001605
0.0001578
0.000155
0.0001519
0.0001486
0.000145
0.0001412
0.0001371
0.0001327
0.0001281
0.0001232
0.0001181
0.000113
0.0001077
0.0001025
9.734e-05
9.233e-05
8.749e-05
8.283e-05
7.835e-05
7.405e-05
6.995e-05
6.604e-05
6.233e-05
5.883e-05
5.553e-05
5.245e-05
4.958e-05
4.69e-05
4.442e-05
4.212e-05
3.997e-05
3.798e-05
3.613e-05
3.439e-05
3.276e-05
3.123e-05
2.979e-05
2.842e-05
2.713e-05
2.59e-05
2.473e-05
2.362e-05
2.255e-05
2.153e-05
2.056e-05
1.962e-05
1.872e-05
1.785e-05
1.702e-05
1.622e-05
1.544e-05
1.469e-05
1.396e-05
1.325e-05
1.256e-05
1.19e-05
1.125e-05
1.061e-05
9.989e-06
9.381e-06
8.785e-06
8.2e-06
7.625e-06
7.058e-06
6.5e-06
5.948e-06
5.402e-06
4.862e-06
4.326e-06
3.793e-06
3.263e-06
2.734e-06
2.205e-06
1.675e-06
1.142e-06
6.038e-07
1.293e-07
0.0002091
0.0002111
0.0002123
0.0002128
0.0002125
0.0002118
0.0002109
0.0002098
0.0002087
0.0002077
0.0002067
0.0002057
0.0002048
0.0002039
0.0002031
0.0002023
0.0002015
0.0002007
0.0001999
0.0001991
0.0001983
0.0001975
0.0001967
0.0001959
0.0001951
0.0001943
0.0001934
0.0001926
0.0001917
0.0001908
0.0001899
0.000189
0.0001881
0.0001871
0.0001861
0.000185
0.0001839
0.0001828
0.0001816
0.0001804
0.0001791
0.0001778
0.0001763
0.0001748
0.0001733
0.0001716
0.0001698
0.0001679
0.0001658
0.0001636
0.0001612
0.0001585
0.0001557
0.0001527
0.0001493
0.0001457
0.0001419
0.0001377
0.0001333
0.0001285
0.0001235
0.0001183
0.000113
0.0001076
0.0001022
9.697e-05
9.187e-05
8.696e-05
8.224e-05
7.772e-05
7.338e-05
6.924e-05
6.529e-05
6.156e-05
5.803e-05
5.474e-05
5.166e-05
4.88e-05
4.616e-05
4.371e-05
4.145e-05
3.936e-05
3.741e-05
3.56e-05
3.391e-05
3.232e-05
3.083e-05
2.942e-05
2.809e-05
2.683e-05
2.562e-05
2.448e-05
2.338e-05
2.234e-05
2.133e-05
2.037e-05
1.945e-05
1.856e-05
1.77e-05
1.688e-05
1.608e-05
1.532e-05
1.457e-05
1.385e-05
1.315e-05
1.247e-05
1.181e-05
1.116e-05
1.053e-05
9.919e-06
9.316e-06
8.725e-06
8.145e-06
7.575e-06
7.013e-06
6.459e-06
5.912e-06
5.371e-06
4.835e-06
4.304e-06
3.775e-06
3.25e-06
2.725e-06
2.201e-06
1.676e-06
1.148e-06
6.146e-07
1.392e-07
0.0002067
0.0002086
0.0002099
0.0002105
0.0002104
0.00021
0.0002093
0.0002084
0.0002075
0.0002066
0.0002057
0.0002048
0.000204
0.0002032
0.0002024
0.0002017
0.0002009
0.0002002
0.0001995
0.0001987
0.000198
0.0001973
0.0001965
0.0001957
0.000195
0.0001942
0.0001934
0.0001926
0.0001918
0.0001909
0.00019
0.0001891
0.0001882
0.0001873
0.0001863
0.0001853
0.0001842
0.0001831
0.000182
0.0001808
0.0001796
0.0001783
0.0001769
0.0001754
0.0001739
0.0001723
0.0001705
0.0001687
0.0001667
0.0001645
0.0001621
0.0001596
0.0001568
0.0001537
0.0001504
0.0001468
0.0001428
0.0001386
0.000134
0.0001292
0.000124
0.0001187
0.0001131
0.0001075
0.0001019
9.652e-05
9.13e-05
8.63e-05
8.15e-05
7.69e-05
7.249e-05
6.829e-05
6.429e-05
6.051e-05
5.696e-05
5.364e-05
5.057e-05
4.774e-05
4.513e-05
4.273e-05
4.053e-05
3.849e-05
3.661e-05
3.485e-05
3.322e-05
3.169e-05
3.025e-05
2.889e-05
2.76e-05
2.637e-05
2.52e-05
2.409e-05
2.302e-05
2.2e-05
2.102e-05
2.008e-05
1.917e-05
1.831e-05
1.747e-05
1.666e-05
1.588e-05
1.512e-05
1.439e-05
1.368e-05
1.3e-05
1.233e-05
1.168e-05
1.104e-05
1.042e-05
9.813e-06
9.219e-06
8.636e-06
8.064e-06
7.5e-06
6.946e-06
6.399e-06
5.859e-06
5.324e-06
4.795e-06
4.27e-06
3.748e-06
3.228e-06
2.711e-06
2.193e-06
1.674e-06
1.153e-06
6.265e-07
1.509e-07
0.0002048
0.0002065
0.0002078
0.0002084
0.0002086
0.0002083
0.0002078
0.0002072
0.0002064
0.0002056
0.0002048
0.000204
0.0002033
0.0002025
0.0002018
0.0002011
0.0002005
0.0001998
0.0001991
0.0001984
0.0001977
0.000197
0.0001963
0.0001956
0.0001949
0.0001941
0.0001934
0.0001926
0.0001918
0.000191
0.0001902
0.0001893
0.0001885
0.0001876
0.0001866
0.0001856
0.0001846
0.0001836
0.0001825
0.0001814
0.0001802
0.0001789
0.0001776
0.0001762
0.0001748
0.0001732
0.0001715
0.0001697
0.0001678
0.0001657
0.0001634
0.0001609
0.0001581
0.0001551
0.0001518
0.0001481
0.0001441
0.0001398
0.0001351
0.0001301
0.0001247
0.0001191
0.0001133
0.0001074
0.0001016
9.598e-05
9.06e-05
8.547e-05
8.056e-05
7.585e-05
7.135e-05
6.705e-05
6.297e-05
5.913e-05
5.555e-05
5.222e-05
4.916e-05
4.636e-05
4.38e-05
4.147e-05
3.933e-05
3.737e-05
3.556e-05
3.389e-05
3.232e-05
3.086e-05
2.948e-05
2.818e-05
2.694e-05
2.576e-05
2.464e-05
2.356e-05
2.253e-05
2.154e-05
2.06e-05
1.968e-05
1.881e-05
1.796e-05
1.715e-05
1.636e-05
1.56e-05
1.487e-05
1.415e-05
1.346e-05
1.279e-05
1.214e-05
1.15e-05
1.088e-05
1.027e-05
9.674e-06
9.092e-06
8.52e-06
7.957e-06
7.404e-06
6.859e-06
6.321e-06
5.789e-06
5.263e-06
4.742e-06
4.225e-06
3.711e-06
3.2e-06
2.69e-06
2.18e-06
1.67e-06
1.157e-06
6.394e-07
1.644e-07
0.0002031
0.0002047
0.0002059
0.0002067
0.000207
0.0002069
0.0002065
0.000206
0.0002054
0.0002047
0.000204
0.0002033
0.0002026
0.000202
0.0002013
0.0002007
0.0002
0.0001994
0.0001988
0.0001981
0.0001975
0.0001968
0.0001962
0.0001955
0.0001948
0.0001941
0.0001934
0.0001927
0.000192
0.0001912
0.0001904
0.0001896
0.0001888
0.0001879
0.000187
0.0001861
0.0001852
0.0001842
0.0001831
0.0001821
0.0001809
0.0001798
0.0001785
0.0001772
0.0001758
0.0001744
0.0001728
0.0001711
0.0001692
0.0001672
0.000165
0.0001626
0.0001599
0.0001569
0.0001536
0.0001499
0.0001458
0.0001414
0.0001365
0.0001313
0.0001257
0.0001197
0.0001136
0.0001074
0.0001012
9.532e-05
8.973e-05
8.443e-05
7.936e-05
7.451e-05
6.987e-05
6.545e-05
6.128e-05
5.738e-05
5.376e-05
5.043e-05
4.739e-05
4.464e-05
4.215e-05
3.99e-05
3.786e-05
3.599e-05
3.428e-05
3.27e-05
3.123e-05
2.984e-05
2.854e-05
2.73e-05
2.613e-05
2.501e-05
2.394e-05
2.291e-05
2.193e-05
2.098e-05
2.007e-05
1.92e-05
1.835e-05
1.754e-05
1.675e-05
1.6e-05
1.526e-05
1.455e-05
1.386e-05
1.319e-05
1.254e-05
1.19e-05
1.128e-05
1.068e-05
1.009e-05
9.506e-06
8.937e-06
8.378e-06
7.828e-06
7.287e-06
6.753e-06
6.226e-06
5.705e-06
5.189e-06
4.678e-06
4.17e-06
3.666e-06
3.164e-06
2.663e-06
2.163e-06
1.662e-06
1.16e-06
6.533e-07
1.795e-07
0.0002016
0.0002031
0.0002044
0.0002051
0.0002055
0.0002056
0.0002054
0.000205
0.0002045
0.0002039
0.0002033
0.0002027
0.0002021
0.0002015
0.0002009
0.0002003
0.0001997
0.0001991
0.0001985
0.0001979
0.0001973
0.0001967
0.0001961
0.0001955
0.0001948
0.0001942
0.0001935
0.0001928
0.0001921
0.0001914
0.0001907
0.0001899
0.0001891
0.0001883
0.0001875
0.0001867
0.0001858
0.0001848
0.0001839
0.0001829
0.0001818
0.0001807
0.0001796
0.0001784
0.0001771
0.0001757
0.0001743
0.0001727
0.000171
0.0001691
0.000167
0.0001647
0.0001621
0.0001592
0.0001559
0.0001522
0.0001481
0.0001435
0.0001384
0.0001329
0.000127
0.0001207
0.0001141
0.0001073
0.0001007
9.449e-05
8.863e-05
8.309e-05
7.781e-05
7.276e-05
6.795e-05
6.34e-05
5.913e-05
5.516e-05
5.152e-05
4.82e-05
4.521e-05
4.254e-05
4.015e-05
3.802e-05
3.61e-05
3.436e-05
3.276e-05
3.13e-05
2.993e-05
2.864e-05
2.743e-05
2.627e-05
2.517e-05
2.412e-05
2.311e-05
2.214e-05
2.121e-05
2.032e-05
1.945e-05
1.862e-05
1.782e-05
1.704e-05
1.629e-05
1.557e-05
1.486e-05
1.418e-05
1.352e-05
1.287e-05
1.224e-05
1.163e-05
1.103e-05
1.045e-05
9.872e-06
9.31e-06
8.758e-06
8.214e-06
7.679e-06
7.152e-06
6.631e-06
6.117e-06
5.608e-06
5.104e-06
4.603e-06
4.107e-06
3.613e-06
3.122e-06
2.632e-06
2.143e-06
1.653e-06
1.162e-06
6.679e-07
1.96e-07
0.0002004
0.0002018
0.000203
0.0002038
0.0002042
0.0002044
0.0002043
0.0002041
0.0002037
0.0002032
0.0002027
0.0002021
0.0002016
0.000201
0.0002005
0.0001999
0.0001994
0.0001988
0.0001983
0.0001977
0.0001972
0.0001966
0.000196
0.0001954
0.0001948
0.0001942
0.0001936
0.000193
0.0001924
0.0001917
0.000191
0.0001903
0.0001896
0.0001888
0.0001881
0.0001873
0.0001865
0.0001856
0.0001847
0.0001838
0.0001829
0.0001819
0.0001808
0.0001797
0.0001785
0.0001773
0.000176
0.0001746
0.000173
0.0001713
0.0001694
0.0001673
0.0001648
0.000162
0.0001588
0.0001552
0.000151
0.0001463
0.000141
0.0001352
0.0001288
0.000122
0.0001148
0.0001074
0.0001002
9.34e-05
8.715e-05
8.129e-05
7.573e-05
7.044e-05
6.544e-05
6.076e-05
5.64e-05
5.239e-05
4.876e-05
4.549e-05
4.259e-05
4.004e-05
3.779e-05
3.581e-05
3.405e-05
3.246e-05
3.102e-05
2.968e-05
2.844e-05
2.727e-05
2.616e-05
2.51e-05
2.409e-05
2.311e-05
2.217e-05
2.127e-05
2.04e-05
1.956e-05
1.875e-05
1.797e-05
1.721e-05
1.648e-05
1.577e-05
1.508e-05
1.441e-05
1.376e-05
1.313e-05
1.251e-05
1.191e-05
1.132e-05
1.075e-05
1.019e-05
9.634e-06
9.091e-06
8.558e-06
8.032e-06
7.513e-06
7.001e-06
6.496e-06
5.995e-06
5.499e-06
5.008e-06
4.52e-06
4.036e-06
3.554e-06
3.075e-06
2.596e-06
2.119e-06
1.642e-06
1.164e-06
6.831e-07
2.135e-07
0.0001993
0.0002007
0.0002018
0.0002026
0.0002031
0.0002034
0.0002034
0.0002032
0.0002029
0.0002026
0.0002021
0.0002016
0.0002012
0.0002006
0.0002001
0.0001996
0.0001991
0.0001986
0.0001981
0.0001976
0.000197
0.0001965
0.000196
0.0001955
0.0001949
0.0001944
0.0001938
0.0001932
0.0001926
0.000192
0.0001914
0.0001907
0.0001901
0.0001894
0.0001887
0.000188
0.0001872
0.0001865
0.0001857
0.0001848
0.000184
0.0001831
0.0001822
0.0001812
0.0001802
0.0001791
0.0001779
0.0001767
0.0001753
0.0001738
0.0001722
0.0001703
0.0001681
0.0001655
0.0001625
0.0001589
0.0001548
0.00015
0.0001446
0.0001384
0.0001315
0.000124
0.0001159
0.0001076
9.936e-05
9.184e-05
8.503e-05
7.873e-05
7.283e-05
6.729e-05
6.213e-05
5.736e-05
5.297e-05
4.898e-05
4.541e-05
4.225e-05
3.95e-05
3.712e-05
3.507e-05
3.328e-05
3.172e-05
3.032e-05
2.905e-05
2.788e-05
2.678e-05
2.574e-05
2.475e-05
2.38e-05
2.288e-05
2.199e-05
2.114e-05
2.031e-05
1.95e-05
1.873e-05
1.798e-05
1.725e-05
1.654e-05
1.586e-05
1.519e-05
1.454e-05
1.392e-05
1.33e-05
1.271e-05
1.212e-05
1.155e-05
1.099e-05
1.044e-05
9.904e-06
9.375e-06
8.854e-06
8.341e-06
7.834e-06
7.333e-06
6.838e-06
6.349e-06
5.863e-06
5.382e-06
4.905e-06
4.431e-06
3.959e-06
3.49e-06
3.023e-06
2.558e-06
2.093e-06
1.629e-06
1.164e-06
6.988e-07
2.32e-07
0.0001984
0.0001997
0.0002008
0.0002016
0.0002022
0.0002025
0.0002026
0.0002025
0.0002023
0.000202
0.0002016
0.0002012
0.0002008
0.0002003
0.0001999
0.0001994
0.0001989
0.0001984
0.000198
0.0001975
0.000197
0.0001965
0.000196
0.0001955
0.000195
0.0001945
0.000194
0.0001935
0.0001929
0.0001924
0.0001918
0.0001912
0.0001906
0.00019
0.0001894
0.0001887
0.0001881
0.0001874
0.0001867
0.000186
0.0001852
0.0001844
0.0001836
0.0001828
0.0001819
0.000181
0.00018
0.000179
0.0001779
0.0001767
0.0001753
0.0001737
0.0001719
0.0001696
0.0001669
0.0001636
0.0001597
0.0001551
0.0001496
0.0001432
0.0001358
0.0001274
0.000118
0.000108
9.809e-05
8.932e-05
8.17e-05
7.488e-05
6.867e-05
6.296e-05
5.776e-05
5.302e-05
4.872e-05
4.484e-05
4.142e-05
3.845e-05
3.592e-05
3.378e-05
3.198e-05
3.045e-05
2.913e-05
2.795e-05
2.689e-05
2.59e-05
2.497e-05
2.408e-05
2.321e-05
2.238e-05
2.157e-05
2.078e-05
2.001e-05
1.926e-05
1.854e-05
1.783e-05
1.714e-05
1.647e-05
1.582e-05
1.519e-05
1.458e-05
1.397e-05
1.339e-05
1.281e-05
1.225e-05
1.17e-05
1.117e-05
1.064e-05
1.012e-05
9.605e-06
9.101e-06
8.603e-06
8.111e-06
7.624e-06
7.143e-06
6.666e-06
6.193e-06
5.724e-06
5.258e-06
4.796e-06
4.335e-06
3.878e-06
3.422e-06
2.968e-06
2.516e-06
2.065e-06
1.615e-06
1.165e-06
7.147e-07
2.51e-07
0.0001976
0.0001988
0.0001999
0.0002007
0.0002013
0.0002017
0.0002018
0.0002018
0.0002017
0.0002015
0.0002012
0.0002008
0.0002005
0.0002
0.0001996
0.0001992
0.0001987
0.0001983
0.0001979
0.0001974
0.000197
0.0001965
0.0001961
0.0001956
0.0001952
0.0001947
0.0001942
0.0001937
0.0001932
0.0001928
0.0001922
0.0001917
0.0001912
0.0001907
0.0001901
0.0001895
0.000189
0.0001884
0.0001878
0.0001871
0.0001865
0.0001858
0.0001852
0.0001845
0.0001838
0.0001831
0.0001823
0.0001815
0.0001807
0.0001798
0.0001788
0.0001776
0.0001761
0.0001744
0.0001721
0.0001693
0.0001659
0.0001617
0.0001566
0.0001504
0.0001428
0.0001335
0.0001222
0.0001089
9.557e-05
8.466e-05
7.605e-05
6.877e-05
6.255e-05
5.701e-05
5.207e-05
4.761e-05
4.357e-05
3.995e-05
3.679e-05
3.41e-05
3.187e-05
3.005e-05
2.857e-05
2.735e-05
2.631e-05
2.54e-05
2.457e-05
2.378e-05
2.303e-05
2.23e-05
2.158e-05
2.087e-05
2.018e-05
1.949e-05
1.882e-05
1.816e-05
1.751e-05
1.688e-05
1.626e-05
1.566e-05
1.507e-05
1.449e-05
1.393e-05
1.338e-05
1.284e-05
1.23e-05
1.178e-05
1.127e-05
1.077e-05
1.027e-05
9.779e-06
9.295e-06
8.816e-06
8.342e-06
7.873e-06
7.408e-06
6.946e-06
6.488e-06
6.033e-06
5.58e-06
5.13e-06
4.683e-06
4.237e-06
3.794e-06
3.352e-06
2.912e-06
2.473e-06
2.036e-06
1.6e-06
1.165e-06
7.306e-07
2.703e-07
0.0001969
0.0001981
0.0001991
0.0002
0.0002006
0.000201
0.0002012
0.0002013
0.0002012
0.0002011
0.0002008
0.0002005
0.0002002
0.0001998
0.0001994
0.000199
0.0001986
0.0001982
0.0001978
0.0001974
0.000197
0.0001966
0.0001962
0.0001957
0.0001953
0.0001949
0.0001945
0.000194
0.0001936
0.0001932
0.0001927
0.0001923
0.0001918
0.0001913
0.0001909
0.0001904
0.0001899
0.0001894
0.0001889
0.0001884
0.0001878
0.0001873
0.0001868
0.0001863
0.0001857
0.0001852
0.0001847
0.0001841
0.0001836
0.0001831
0.0001824
0.0001817
0.0001808
0.0001796
0.000178
0.000176
0.0001733
0.00017
0.0001661
0.0001612
0.0001548
0.0001454
0.0001309
0.0001105
8.958e-05
7.556e-05
6.614e-05
5.9e-05
5.379e-05
4.906e-05
4.489e-05
4.113e-05
3.76e-05
3.438e-05
3.158e-05
2.926e-05
2.742e-05
2.599e-05
2.489e-05
2.403e-05
2.332e-05
2.27e-05
2.212e-05
2.156e-05
2.101e-05
2.044e-05
1.988e-05
1.93e-05
1.873e-05
1.815e-05
1.758e-05
1.701e-05
1.645e-05
1.59e-05
1.536e-05
1.482e-05
1.429e-05
1.378e-05
1.327e-05
1.277e-05
1.227e-05
1.178e-05
1.13e-05
1.083e-05
1.036e-05
9.896e-06
9.436e-06
8.98e-06
8.527e-06
8.078e-06
7.632e-06
7.188e-06
6.747e-06
6.308e-06
5.87e-06
5.435e-06
5.001e-06
4.569e-06
4.138e-06
3.708e-06
3.281e-06
2.854e-06
2.429e-06
2.006e-06
1.584e-06
1.164e-06
7.462e-07
2.895e-07
0.0001963
0.0001975
0.0001985
0.0001993
0.0001999
0.0002004
0.0002006
0.0002008
0.0002008
0.0002007
0.0002005
0.0002002
0.0001999
0.0001996
0.0001993
0.0001989
0.0001985
0.0001982
0.0001978
0.0001974
0.000197
0.0001966
0.0001963
0.0001959
0.0001955
0.0001951
0.0001947
0.0001943
0.000194
0.0001936
0.0001932
0.0001928
0.0001924
0.000192
0.0001916
0.0001912
0.0001908
0.0001904
0.00019
0.0001896
0.0001892
0.0001888
0.0001884
0.000188
0.0001877
0.0001873
0.0001871
0.0001868
0.0001866
0.0001864
0.0001862
0.000186
0.0001856
0.0001851
0.0001843
0.000183
0.0001814
0.0001795
0.0001775
0.0001752
0.0001707
0.0001684
0.0001577
0.0001171
7.039e-05
5.434e-05
5.038e-05
4.739e-05
4.391e-05
3.93e-05
3.645e-05
3.378e-05
3.099e-05
2.832e-05
2.596e-05
2.408e-05
2.267e-05
2.169e-05
2.103e-05
2.057e-05
2.023e-05
1.992e-05
1.962e-05
1.929e-05
1.893e-05
1.854e-05
1.813e-05
1.77e-05
1.725e-05
1.679e-05
1.632e-05
1.585e-05
1.538e-05
1.491e-05
1.444e-05
1.397e-05
1.351e-05
1.305e-05
1.26e-05
1.215e-05
1.171e-05
1.126e-05
1.082e-05
1.039e-05
9.954e-06
9.523e-06
9.093e-06
8.666e-06
8.24e-06
7.816e-06
7.393e-06
6.971e-06
6.549e-06
6.129e-06
5.709e-06
5.291e-06
4.873e-06
4.455e-06
4.039e-06
3.624e-06
3.21e-06
2.797e-06
2.386e-06
1.976e-06
1.569e-06
1.164e-06
7.614e-07
3.083e-07
0.0001958
0.0001969
0.0001979
0.0001987
0.0001994
0.0001999
0.0002002
0.0002003
0.0002004
0.0002003
0.0002002
0.0002
0.0001998
0.0001995
0.0001992
0.0001988
0.0001985
0.0001981
0.0001978
0.0001974
0.0001971