/*--------------------------------*- C++ -*----------------------------------*\
  =========                 |
  \\      /  F ield         | OpenFOAM: The Open Source CFD Toolbox
   \\    /   O peration     | Website:  https://openfoam.org
    \\  /    A nd           | Version:  7
     \\/     M anipulation  |
\*---------------------------------------------------------------------------*/
FoamFile
{
    version     2.0;
    format      ascii;
    class       surfaceScalarField;
    location    "2099.99947343408576";
    object      phi;
}
// * * * * * * * * * * * * * * * * * * * * * * * * * * * * * * * * * * * * * //

dimensions      [0 3 -1 0 0 0 0];

internalField   nonuniform List<scalar> 
8032
(
6.857e-10
2.518e-10
4.804e-10
2.053e-10
3.48e-10
1.324e-10
2.643e-10
8.373e-11
2.101e-10
5.417e-11
1.737e-10
3.638e-11
1.482e-10
2.552e-11
1.295e-10
1.867e-11
1.154e-10
1.416e-11
1.043e-10
1.106e-11
9.549e-11
8.832e-12
8.832e-11
7.174e-12
8.241e-11
5.902e-12
7.751e-11
4.901e-12
7.342e-11
4.096e-12
6.998e-11
3.437e-12
6.709e-11
2.888e-12
6.467e-11
2.423e-12
6.264e-11
2.026e-12
6.096e-11
1.68e-12
5.959e-11
1.376e-12
5.848e-11
1.105e-12
5.762e-11
8.598e-13
5.699e-11
6.355e-13
5.656e-11
4.274e-13
5.633e-11
2.315e-13
5.628e-11
4.448e-14
5.642e-11
-1.364e-13
5.673e-11
-3.138e-13
5.722e-11
-4.897e-13
5.789e-11
-6.662e-13
5.873e-11
-8.449e-13
5.976e-11
-1.027e-12
6.098e-11
-1.215e-12
6.238e-11
-1.408e-12
6.399e-11
-1.608e-12
6.581e-11
-1.816e-12
6.784e-11
-2.031e-12
7.009e-11
-2.254e-12
7.258e-11
-2.484e-12
7.53e-11
-2.72e-12
7.826e-11
-2.961e-12
8.147e-11
-3.205e-12
8.491e-11
-3.449e-12
8.86e-11
-3.69e-12
9.253e-11
-3.923e-12
9.667e-11
-4.145e-12
1.01e-10
-4.349e-12
1.056e-10
-4.529e-12
1.102e-10
-4.679e-12
1.15e-10
-4.791e-12
1.199e-10
-4.858e-12
1.248e-10
-4.872e-12
1.296e-10
-4.826e-12
1.343e-10
-4.713e-12
1.388e-10
-4.528e-12
1.431e-10
-4.268e-12
1.47e-10
-3.932e-12
1.505e-10
-3.521e-12
1.536e-10
-3.039e-12
1.561e-10
-2.495e-12
1.58e-10
-1.899e-12
1.592e-10
-1.265e-12
1.598e-10
-6.069e-13
1.598e-10
5.769e-14
1.591e-10
7.131e-13
1.577e-10
1.344e-12
1.558e-10
1.938e-12
1.533e-10
2.484e-12
1.503e-10
2.974e-12
1.469e-10
3.403e-12
1.432e-10
3.768e-12
1.391e-10
4.067e-12
1.348e-10
4.301e-12
1.303e-10
4.473e-12
1.257e-10
4.585e-12
1.211e-10
4.642e-12
1.164e-10
4.649e-12
1.118e-10
4.61e-12
1.073e-10
4.532e-12
1.029e-10
4.42e-12
9.86e-11
4.279e-12
9.449e-11
4.116e-12
9.055e-11
3.934e-12
8.681e-11
3.74e-12
8.328e-11
3.537e-12
7.995e-11
3.329e-12
7.683e-11
3.12e-12
7.391e-11
2.912e-12
7.121e-11
2.708e-12
6.87e-11
2.509e-12
6.638e-11
2.318e-12
6.424e-11
2.135e-12
6.228e-11
1.96e-12
6.049e-11
1.796e-12
5.885e-11
1.641e-12
5.735e-11
1.496e-12
5.599e-11
1.361e-12
5.475e-11
1.235e-12
5.364e-11
1.119e-12
5.262e-11
1.012e-12
5.171e-11
9.139e-13
5.089e-11
8.236e-13
5.014e-11
7.411e-13
4.948e-11
6.657e-13
4.888e-11
5.971e-13
4.835e-11
5.347e-13
4.787e-11
4.781e-13
4.744e-11
4.268e-13
4.706e-11
3.806e-13
4.672e-11
3.388e-13
4.642e-11
3.013e-13
4.615e-11
2.678e-13
4.592e-11
2.378e-13
4.57e-11
2.113e-13
4.552e-11
1.88e-13
4.535e-11
1.679e-13
4.52e-11
1.507e-13
4.506e-11
1.366e-13
4.494e-11
1.257e-13
4.482e-11
1.183e-13
4.47e-11
1.149e-13
4.459e-11
1.166e-13
4.446e-11
1.252e-13
4.432e-11
1.444e-13
4.414e-11
1.802e-13
4.39e-11
2.394e-13
3.111e-13
9.523e-10
2.37e-10
8.501e-10
3.075e-10
7.275e-10
2.551e-10
6.182e-10
1.93e-10
5.293e-10
1.431e-10
4.592e-10
1.065e-10
4.041e-10
8.062e-11
3.605e-10
6.225e-11
3.256e-10
4.903e-11
2.974e-10
3.931e-11
2.742e-10
3.198e-11
2.551e-10
2.634e-11
2.391e-10
2.189e-11
2.256e-10
1.833e-11
2.143e-10
1.541e-11
2.048e-10
1.3e-11
1.967e-10
1.097e-11
1.899e-10
9.236e-12
1.842e-10
7.744e-12
1.794e-10
6.44e-12
1.755e-10
5.287e-12
1.723e-10
4.256e-12
1.699e-10
3.321e-12
1.68e-10
2.464e-12
1.668e-10
1.666e-12
1.661e-10
9.142e-13
1.66e-10
1.964e-13
1.663e-10
-4.981e-13
1.672e-10
-1.178e-12
1.686e-10
-1.852e-12
1.704e-10
-2.527e-12
1.728e-10
-3.209e-12
1.757e-10
-3.904e-12
1.791e-10
-4.616e-12
1.83e-10
-5.349e-12
1.875e-10
-6.105e-12
1.926e-10
-6.887e-12
1.982e-10
-7.695e-12
2.045e-10
-8.528e-12
2.114e-10
-9.386e-12
2.19e-10
-1.026e-11
2.271e-10
-1.115e-11
2.36e-10
-1.205e-11
2.455e-10
-1.295e-11
2.556e-10
-1.383e-11
2.664e-10
-1.468e-11
2.777e-10
-1.548e-11
2.896e-10
-1.621e-11
3.019e-10
-1.685e-11
3.146e-10
-1.738e-11
3.276e-10
-1.776e-11
3.407e-10
-1.798e-11
3.538e-10
-1.8e-11
3.668e-10
-1.78e-11
3.794e-10
-1.735e-11
3.915e-10
-1.665e-11
4.029e-10
-1.567e-11
4.134e-10
-1.443e-11
4.228e-10
-1.291e-11
4.309e-10
-1.114e-11
4.376e-10
-9.149e-12
4.427e-10
-6.973e-12
4.46e-10
-4.66e-12
4.477e-10
-2.264e-12
4.476e-10
1.583e-13
4.458e-10
2.55e-12
4.423e-10
4.859e-12
4.372e-10
7.038e-12
4.306e-10
9.047e-12
4.227e-10
1.086e-11
4.137e-10
1.245e-11
4.036e-10
1.381e-11
3.927e-10
1.494e-11
3.812e-10
1.583e-11
3.692e-10
1.649e-11
3.568e-10
1.694e-11
3.443e-10
1.718e-11
3.317e-10
1.724e-11
3.192e-10
1.713e-11
3.068e-10
1.687e-11
2.948e-10
1.648e-11
2.831e-10
1.599e-11
2.718e-10
1.541e-11
2.61e-10
1.476e-11
2.506e-10
1.405e-11
2.409e-10
1.332e-11
2.316e-10
1.256e-11
2.23e-10
1.179e-11
2.149e-10
1.103e-11
2.073e-10
1.027e-11
2.003e-10
9.537e-12
1.938e-10
8.825e-12
1.877e-10
8.142e-12
1.822e-10
7.491e-12
1.771e-10
6.874e-12
1.725e-10
6.292e-12
1.682e-10
5.747e-12
1.644e-10
5.237e-12
1.608e-10
4.763e-12
1.576e-10
4.324e-12
1.547e-10
3.918e-12
1.521e-10
3.543e-12
1.497e-10
3.2e-12
1.476e-10
2.884e-12
1.456e-10
2.596e-12
1.439e-10
2.333e-12
1.423e-10
2.094e-12
1.41e-10
1.876e-12
1.397e-10
1.679e-12
1.386e-10
1.5e-12
1.376e-10
1.339e-12
1.367e-10
1.194e-12
1.359e-10
1.064e-12
1.352e-10
9.473e-13
1.345e-10
8.441e-13
1.34e-10
7.533e-13
1.335e-10
6.743e-13
1.33e-10
6.069e-13
1.326e-10
5.511e-13
1.322e-10
5.071e-13
1.319e-10
4.757e-13
1.315e-10
4.581e-13
1.312e-10
4.564e-13
1.308e-10
4.738e-13
1.305e-10
5.151e-13
1.301e-10
5.855e-13
1.296e-10
6.842e-13
7.773e-13
9.779e-10
1.966e-10
9.637e-10
3.217e-10
9.013e-10
3.175e-10
8.211e-10
2.731e-10
7.408e-10
2.234e-10
6.678e-10
1.796e-10
6.043e-10
1.441e-10
5.503e-10
1.162e-10
5.047e-10
9.463e-11
4.663e-10
7.776e-11
4.338e-10
6.446e-11
4.063e-10
5.384e-11
3.83e-10
4.525e-11
3.631e-10
3.821e-11
3.461e-10
3.237e-11
3.317e-10
2.745e-11
3.194e-10
2.327e-11
3.089e-10
1.967e-11
3.001e-10
1.655e-11
2.928e-10
1.38e-11
2.867e-10
1.136e-11
2.818e-10
9.16e-12
2.779e-10
7.162e-12
2.751e-10
5.321e-12
2.731e-10
3.605e-12
2.721e-10
1.985e-12
2.718e-10
4.356e-13
2.724e-10
-1.065e-12
2.738e-10
-2.534e-12
2.759e-10
-3.991e-12
2.788e-10
-5.448e-12
2.825e-10
-6.92e-12
2.87e-10
-8.416e-12
2.924e-10
-9.948e-12
2.985e-10
-1.152e-11
3.056e-10
-1.314e-11
3.135e-10
-1.482e-11
3.224e-10
-1.654e-11
3.321e-10
-1.832e-11
3.429e-10
-2.014e-11
3.546e-10
-2.2e-11
3.674e-10
-2.389e-11
3.811e-10
-2.579e-11
3.958e-10
-2.767e-11
4.115e-10
-2.952e-11
4.282e-10
-3.13e-11
4.457e-10
-3.298e-11
4.64e-10
-3.45e-11
4.829e-10
-3.583e-11
5.025e-10
-3.691e-11
5.224e-10
-3.769e-11
5.425e-10
-3.811e-11
5.626e-10
-3.812e-11
5.825e-10
-3.766e-11
6.019e-10
-3.67e-11
6.204e-10
-3.518e-11
6.378e-10
-3.311e-11
6.539e-10
-3.046e-11
6.682e-10
-2.725e-11
6.806e-10
-2.352e-11
6.907e-10
-1.932e-11
6.985e-10
-1.474e-11
7.037e-10
-9.876e-12
7.063e-10
-4.836e-12
7.062e-10
2.605e-13
7.035e-10
5.296e-12
6.982e-10
1.016e-11
6.904e-10
1.476e-11
6.805e-10
1.901e-11
6.685e-10
2.284e-11
6.547e-10
2.623e-11
6.394e-10
2.913e-11
6.228e-10
3.154e-11
6.052e-10
3.346e-11
5.868e-10
3.49e-11
5.678e-10
3.588e-11
5.486e-10
3.644e-11
5.292e-10
3.66e-11
5.099e-10
3.64e-11
4.909e-10
3.589e-11
4.723e-10
3.511e-11
4.542e-10
3.41e-11
4.367e-10
3.289e-11
4.199e-10
3.154e-11
4.039e-10
3.008e-11
3.887e-10
2.853e-11
3.743e-10
2.694e-11
3.607e-10
2.533e-11
3.481e-10
2.371e-11
3.362e-10
2.212e-11
3.252e-10
2.056e-11
3.15e-10
1.905e-11
3.055e-10
1.759e-11
2.968e-10
1.621e-11
2.888e-10
1.489e-11
2.814e-10
1.365e-11
2.747e-10
1.248e-11
2.685e-10
1.139e-11
2.629e-10
1.037e-11
2.578e-10
9.425e-12
2.532e-10
8.551e-12
2.49e-10
7.744e-12
2.452e-10
7.002e-12
2.418e-10
6.321e-12
2.387e-10
5.697e-12
2.359e-10
5.127e-12
2.333e-10
4.607e-12
2.311e-10
4.134e-12
2.291e-10
3.705e-12
2.272e-10
3.316e-12
2.256e-10
2.965e-12
2.242e-10
2.648e-12
2.229e-10
2.363e-12
2.217e-10
2.109e-12
2.207e-10
1.882e-12
2.197e-10
1.682e-12
2.189e-10
1.508e-12
2.182e-10
1.359e-12
2.175e-10
1.233e-12
2.168e-10
1.133e-12
2.163e-10
1.058e-12
2.157e-10
1.01e-12
2.152e-10
9.913e-13
2.146e-10
1.005e-12
2.141e-10
1.053e-12
2.136e-10
1.135e-12
2.13e-10
1.242e-12
1.328e-12
9.752e-10
1.589e-10
9.93e-10
3.039e-10
9.727e-10
3.377e-10
9.268e-10
3.191e-10
8.688e-10
2.813e-10
8.082e-10
2.402e-10
7.499e-10
2.023e-10
6.966e-10
1.696e-10
6.49e-10
1.423e-10
6.07e-10
1.197e-10
5.704e-10
1.011e-10
5.386e-10
8.569e-11
5.109e-10
7.288e-11
4.87e-10
6.213e-11
4.663e-10
5.304e-11
4.485e-10
4.527e-11
4.332e-10
3.858e-11
4.201e-10
3.277e-11
4.09e-10
2.766e-11
3.997e-10
2.314e-11
3.919e-10
1.909e-11
3.857e-10
1.542e-11
3.808e-10
1.207e-11
3.771e-10
8.974e-12
3.746e-10
6.075e-12
3.733e-10
3.33e-12
3.73e-10
6.996e-13
3.738e-10
-1.851e-12
3.756e-10
-4.353e-12
3.785e-10
-6.833e-12
3.823e-10
-9.315e-12
3.872e-10
-1.182e-11
3.932e-10
-1.437e-11
4.002e-10
-1.697e-11
4.083e-10
-1.964e-11
4.176e-10
-2.239e-11
4.28e-10
-2.522e-11
4.396e-10
-2.814e-11
4.524e-10
-3.114e-11
4.665e-10
-3.421e-11
4.818e-10
-3.734e-11
4.984e-10
-4.051e-11
5.163e-10
-4.369e-11
5.355e-10
-4.684e-11
5.559e-10
-4.993e-11
5.775e-10
-5.289e-11
6.002e-10
-5.568e-11
6.239e-10
-5.82e-11
6.485e-10
-6.039e-11
6.737e-10
-6.217e-11
6.995e-10
-6.344e-11
7.255e-10
-6.41e-11
7.514e-10
-6.408e-11
7.77e-10
-6.328e-11
8.02e-10
-6.163e-11
8.259e-10
-5.907e-11
8.483e-10
-5.556e-11
8.69e-10
-5.111e-11
8.874e-10
-4.572e-11
9.034e-10
-3.946e-11
9.165e-10
-3.244e-11
9.265e-10
-2.477e-11
9.333e-10
-1.663e-11
9.366e-10
-8.191e-12
9.365e-10
3.404e-13
9.331e-10
8.773e-12
9.263e-10
1.692e-11
9.164e-10
2.463e-11
9.037e-10
3.176e-11
8.883e-10
3.822e-11
8.706e-10
4.391e-11
8.509e-10
4.881e-11
8.296e-10
5.289e-11
8.069e-10
5.615e-11
7.832e-10
5.862e-11
7.587e-10
6.032e-11
7.339e-10
6.13e-11
7.088e-10
6.162e-11
6.839e-10
6.135e-11
6.593e-10
6.054e-11
6.351e-10
5.928e-11
6.116e-10
5.762e-11
5.888e-10
5.564e-11
5.67e-10
5.34e-11
5.461e-10
5.097e-11
5.262e-10
4.84e-11
5.074e-10
4.575e-11
4.897e-10
4.305e-11
4.73e-10
4.034e-11
4.575e-10
3.767e-11
4.43e-10
3.505e-11
4.295e-10
3.251e-11
4.171e-10
3.006e-11
4.056e-10
2.772e-11
3.95e-10
2.549e-11
3.852e-10
2.339e-11
3.763e-10
2.141e-11
3.681e-10
1.956e-11
3.607e-10
1.783e-11
3.539e-10
1.622e-11
3.477e-10
1.473e-11
3.421e-10
1.336e-11
3.37e-10
1.209e-11
3.324e-10
1.093e-11
3.282e-10
9.861e-12
3.244e-10
8.885e-12
3.211e-10
7.994e-12
3.18e-10
7.182e-12
3.153e-10
6.445e-12
3.128e-10
5.776e-12
3.106e-10
5.17e-12
3.086e-10
4.624e-12
3.069e-10
4.132e-12
3.053e-10
3.692e-12
3.039e-10
3.3e-12
3.026e-10
2.953e-12
3.014e-10
2.649e-12
3.004e-10
2.386e-12
2.995e-10
2.165e-12
2.986e-10
1.983e-12
2.978e-10
1.843e-12
2.971e-10
1.744e-12
2.964e-10
1.689e-12
2.957e-10
1.678e-12
2.951e-10
1.711e-12
2.944e-10
1.783e-12
2.938e-10
1.877e-12
1.949e-12
9.668e-10
1.296e-10
9.944e-10
2.762e-10
9.978e-10
3.344e-10
9.779e-10
3.39e-10
9.423e-10
3.17e-10
8.982e-10
2.843e-10
8.513e-10
2.492e-10
8.049e-10
2.16e-10
7.61e-10
1.862e-10
7.205e-10
1.601e-10
6.839e-10
1.377e-10
6.512e-10
1.184e-10
6.221e-10
1.02e-10
5.965e-10
8.779e-11
5.739e-10
7.556e-11
5.543e-10
6.494e-11
5.372e-10
5.566e-11
5.225e-10
4.749e-11
5.099e-10
4.025e-11
4.992e-10
3.377e-11
4.904e-10
2.792e-11
4.832e-10
2.26e-11
4.776e-10
1.77e-11
4.734e-10
1.315e-11
4.706e-10
8.879e-12
4.691e-10
4.816e-12
4.689e-10
9.109e-13
4.7e-10
-2.884e-12
4.722e-10
-6.612e-12
4.757e-10
-1.031e-11
4.804e-10
-1.401e-11
4.863e-10
-1.775e-11
4.935e-10
-2.155e-11
5.02e-10
-2.543e-11
5.117e-10
-2.941e-11
5.228e-10
-3.35e-11
5.353e-10
-3.771e-11
5.492e-10
-4.205e-11
5.646e-10
-4.649e-11
5.814e-10
-5.104e-11
5.998e-10
-5.568e-11
6.196e-10
-6.036e-11
6.41e-10
-6.505e-11
6.638e-10
-6.97e-11
6.882e-10
-7.425e-11
7.139e-10
-7.86e-11
7.409e-10
-8.268e-11
7.69e-10
-8.638e-11
7.982e-10
-8.958e-11
8.282e-10
-9.217e-11
8.588e-10
-9.4e-11
8.897e-10
-9.495e-11
9.205e-10
-9.488e-11
9.509e-10
-9.367e-11
9.804e-10
-9.12e-11
1.009e-09
-8.74e-11
1.035e-09
-8.221e-11
1.06e-09
-7.562e-11
1.082e-09
-6.765e-11
1.101e-09
-5.841e-11
1.116e-09
-4.803e-11
1.128e-09
-3.67e-11
1.136e-09
-2.467e-11
1.14e-09
-1.221e-11
1.14e-09
3.958e-13
1.136e-09
1.286e-11
1.128e-09
2.49e-11
1.117e-09
3.63e-11
1.102e-09
4.685e-11
1.083e-09
5.639e-11
1.062e-09
6.484e-11
1.039e-09
7.211e-11
1.014e-09
7.818e-11
9.87e-10
8.304e-11
9.589e-10
8.673e-11
9.299e-10
8.93e-11
9.004e-10
9.081e-11
8.706e-10
9.135e-11
8.41e-10
9.1e-11
8.117e-10
8.986e-11
7.829e-10
8.804e-11
7.549e-10
8.564e-11
7.278e-10
8.276e-11
7.017e-10
7.949e-11
6.767e-10
7.593e-11
6.529e-10
7.217e-11
6.304e-10
6.826e-11
6.092e-10
6.429e-11
5.892e-10
6.03e-11
5.706e-10
5.635e-11
5.531e-10
5.248e-11
5.369e-10
4.871e-11
5.219e-10
4.509e-11
5.08e-10
4.161e-11
4.952e-10
3.831e-11
4.834e-10
3.518e-11
4.726e-10
3.223e-11
4.627e-10
2.947e-11
4.536e-10
2.689e-11
4.453e-10
2.449e-11
4.378e-10
2.227e-11
4.31e-10
2.021e-11
4.247e-10
1.831e-11
4.191e-10
1.656e-11
4.14e-10
1.496e-11
4.094e-10
1.349e-11
4.052e-10
1.215e-11
4.015e-10
1.093e-11
3.981e-10
9.819e-12
3.951e-10
8.809e-12
3.924e-10
7.895e-12
3.899e-10
7.068e-12
3.877e-10
6.324e-12
3.858e-10
5.656e-12
3.84e-10
5.06e-12
3.824e-10
4.531e-12
3.81e-10
4.066e-12
3.797e-10
3.663e-12
3.786e-10
3.318e-12
3.775e-10
3.032e-12
3.766e-10
2.804e-12
3.757e-10
2.633e-12
3.748e-10
2.52e-12
3.741e-10
2.464e-12
3.733e-10
2.461e-12
3.726e-10
2.504e-12
3.719e-10
2.572e-12
2.626e-12
9.592e-10
1.08e-10
9.875e-10
2.479e-10
1.003e-09
3.192e-10
1e-09
3.416e-10
9.822e-10
3.347e-10
9.54e-10
3.125e-10
9.197e-10
2.835e-10
8.829e-10
2.529e-10
8.458e-10
2.233e-10
8.099e-10
1.96e-10
7.762e-10
1.714e-10
7.451e-10
1.495e-10
7.169e-10
1.302e-10
6.914e-10
1.133e-10
6.687e-10
9.829e-11
6.486e-10
8.507e-11
6.309e-10
7.334e-11
6.155e-10
6.288e-11
6.022e-10
5.35e-11
5.91e-10
4.503e-11
5.816e-10
3.732e-11
5.739e-10
3.025e-11
5.679e-10
2.371e-11
5.635e-10
1.759e-11
5.606e-10
1.181e-11
5.591e-10
6.301e-12
5.59e-10
9.878e-13
5.603e-10
-4.19e-12
5.63e-10
-9.286e-12
5.67e-10
-1.435e-11
5.724e-10
-1.942e-11
5.792e-10
-2.455e-11
5.874e-10
-2.976e-11
5.971e-10
-3.508e-11
6.082e-10
-4.053e-11
6.208e-10
-4.613e-11
6.35e-10
-5.19e-11
6.508e-10
-5.782e-11
6.682e-10
-6.39e-11
6.873e-10
-7.011e-11
7.08e-10
-7.643e-11
7.305e-10
-8.281e-11
7.546e-10
-8.92e-11
7.804e-10
-9.553e-11
8.079e-10
-1.017e-10
8.369e-10
-1.076e-10
8.674e-10
-1.132e-10
8.992e-10
-1.182e-10
9.321e-10
-1.225e-10
9.66e-10
-1.26e-10
1e-09
-1.285e-10
1.035e-09
-1.298e-10
1.07e-09
-1.297e-10
1.104e-09
-1.28e-10
1.138e-09
-1.246e-10
1.17e-09
-1.194e-10
1.2e-09
-1.124e-10
1.228e-09
-1.034e-10
1.253e-09
-9.251e-11
1.274e-09
-7.989e-11
1.292e-09
-6.572e-11
1.305e-09
-5.024e-11
1.314e-09
-3.381e-11
1.319e-09
-1.678e-11
1.319e-09
4.409e-13
1.314e-09
1.746e-11
1.305e-09
3.391e-11
1.292e-09
4.948e-11
1.275e-09
6.388e-11
1.255e-09
7.692e-11
1.231e-09
8.846e-11
1.205e-09
9.84e-11
1.176e-09
1.067e-10
1.146e-09
1.134e-10
1.114e-09
1.185e-10
1.081e-09
1.22e-10
1.048e-09
1.241e-10
1.015e-09
1.249e-10
9.811e-10
1.245e-10
9.48e-10
1.23e-10
9.155e-10
1.205e-10
8.838e-10
1.173e-10
8.532e-10
1.134e-10
8.236e-10
1.09e-10
7.954e-10
1.042e-10
7.684e-10
9.909e-11
7.429e-10
9.379e-11
7.188e-10
8.838e-11
6.962e-10
8.296e-11
6.749e-10
7.758e-11
6.551e-10
7.23e-11
6.367e-10
6.716e-11
6.195e-10
6.221e-11
6.037e-10
5.746e-11
5.891e-10
5.294e-11
5.756e-10
4.865e-11
5.632e-10
4.461e-11
5.518e-10
4.083e-11
5.415e-10
3.728e-11
5.32e-10
3.398e-11
5.233e-10
3.092e-11
5.154e-10
2.809e-11
5.083e-10
2.547e-11
5.018e-10
2.306e-11
4.959e-10
2.085e-11
4.905e-10
1.882e-11
4.857e-10
1.697e-11
4.814e-10
1.528e-11
4.775e-10
1.373e-11
4.739e-10
1.233e-11
4.708e-10
1.106e-11
4.679e-10
9.916e-12
4.654e-10
8.88e-12
4.631e-10
7.949e-12
4.61e-10
7.116e-12
4.592e-10
6.376e-12
4.575e-10
5.723e-12
4.56e-10
5.152e-12
4.547e-10
4.662e-12
4.535e-10
4.249e-12
4.524e-10
3.911e-12
4.514e-10
3.648e-12
4.504e-10
3.457e-12
4.495e-10
3.336e-12
4.487e-10
3.281e-12
4.479e-10
3.279e-12
4.472e-10
3.311e-12
3.344e-12
9.536e-10
9.187e-11
9.794e-10
2.221e-10
9.994e-10
2.992e-10
1.007e-09
3.338e-10
1.002e-09
3.396e-10
9.872e-10
3.276e-10
9.647e-10
3.06e-10
9.378e-10
2.798e-10
9.087e-10
2.524e-10
8.79e-10
2.256e-10
8.499e-10
2.004e-10
8.222e-10
1.772e-10
7.964e-10
1.561e-10
7.726e-10
1.37e-10
7.51e-10
1.199e-10
7.315e-10
1.045e-10
7.142e-10
9.062e-11
6.991e-10
7.807e-11
6.859e-10
6.669e-11
6.746e-10
5.63e-11
6.651e-10
4.677e-11
6.574e-10
3.796e-11
6.514e-10
2.974e-11
6.47e-10
2.201e-11
6.441e-10
1.468e-11
6.428e-10
7.653e-12
6.429e-10
8.534e-13
6.445e-10
-5.792e-12
6.476e-10
-1.235e-11
6.521e-10
-1.887e-11
6.581e-10
-2.542e-11
6.656e-10
-3.204e-11
6.746e-10
-3.877e-11
6.852e-10
-4.564e-11
6.973e-10
-5.269e-11
7.111e-10
-5.993e-11
7.266e-10
-6.738e-11
7.438e-10
-7.502e-11
7.628e-10
-8.286e-11
7.835e-10
-9.088e-11
8.061e-10
-9.902e-11
8.306e-10
-1.072e-10
8.568e-10
-1.155e-10
8.849e-10
-1.236e-10
9.148e-10
-1.316e-10
9.464e-10
-1.392e-10
9.795e-10
-1.463e-10
1.014e-09
-1.528e-10
1.05e-09
-1.584e-10
1.087e-09
-1.629e-10
1.125e-09
-1.661e-10
1.163e-09
-1.678e-10
1.2e-09
-1.676e-10
1.238e-09
-1.655e-10
1.275e-09
-1.612e-10
1.31e-09
-1.546e-10
1.343e-09
-1.454e-10
1.373e-09
-1.338e-10
1.401e-09
-1.198e-10
1.424e-09
-1.035e-10
1.444e-09
-8.518e-11
1.459e-09
-6.515e-11
1.469e-09
-4.386e-11
1.474e-09
-2.18e-11
1.474e-09
5.028e-13
1.468e-09
2.254e-11
1.459e-09
4.383e-11
1.444e-09
6.395e-11
1.425e-09
8.256e-11
1.403e-09
9.94e-11
1.377e-09
1.143e-10
1.348e-09
1.271e-10
1.317e-09
1.379e-10
1.284e-09
1.465e-10
1.249e-09
1.531e-10
1.214e-09
1.577e-10
1.177e-09
1.604e-10
1.141e-09
1.615e-10
1.104e-09
1.61e-10
1.068e-09
1.591e-10
1.033e-09
1.56e-10
9.982e-10
1.519e-10
9.648e-10
1.469e-10
9.326e-10
1.412e-10
9.018e-10
1.35e-10
8.724e-10
1.285e-10
8.445e-10
1.216e-10
8.182e-10
1.147e-10
7.935e-10
1.077e-10
7.703e-10
1.008e-10
7.486e-10
9.398e-11
7.284e-10
8.735e-11
7.096e-10
8.096e-11
6.923e-10
7.482e-11
6.762e-10
6.898e-11
6.614e-10
6.344e-11
6.478e-10
5.821e-11
6.354e-10
5.331e-11
6.239e-10
4.872e-11
6.135e-10
4.444e-11
6.039e-10
4.046e-11
5.952e-10
3.678e-11
5.873e-10
3.338e-11
5.801e-10
3.025e-11
5.736e-10
2.737e-11
5.677e-10
2.473e-11
5.624e-10
2.231e-11
5.575e-10
2.01e-11
5.532e-10
1.809e-11
5.493e-10
1.626e-11
5.457e-10
1.46e-11
5.426e-10
1.309e-11
5.397e-10
1.173e-11
5.371e-10
1.051e-11
5.348e-10
9.415e-12
5.328e-10
8.438e-12
5.309e-10
7.574e-12
5.293e-10
6.816e-12
5.278e-10
6.159e-12
5.264e-10
5.599e-12
5.252e-10
5.134e-12
5.241e-10
4.76e-12
5.231e-10
4.475e-12
5.221e-10
4.273e-12
5.213e-10
4.149e-12
5.205e-10
4.091e-12
5.197e-10
4.081e-12
4.091e-12
9.498e-10
7.961e-11
9.724e-10
1.995e-10
9.937e-10
2.779e-10
1.007e-09
3.202e-10
1.011e-09
3.357e-10
1.006e-09
3.328e-10
9.935e-10
3.185e-10
9.757e-10
2.976e-10
9.545e-10
2.736e-10
9.316e-10
2.486e-10
9.08e-10
2.24e-10
8.847e-10
2.005e-10
8.622e-10
1.785e-10
8.411e-10
1.582e-10
8.216e-10
1.395e-10
8.037e-10
1.224e-10
7.876e-10
1.067e-10
7.733e-10
9.237e-11
7.608e-10
7.92e-11
7.5e-10
6.707e-11
7.41e-10
5.582e-11
7.336e-10
4.534e-11
7.278e-10
3.55e-11
7.237e-10
2.619e-11
7.21e-10
1.731e-11
7.199e-10
8.754e-12
7.203e-10
4.433e-13
7.222e-10
-7.705e-12
7.257e-10
-1.576e-11
7.306e-10
-2.38e-11
7.371e-10
-3.188e-11
7.451e-10
-4.006e-11
7.547e-10
-4.837e-11
7.659e-10
-5.688e-11
7.788e-10
-6.559e-11
7.934e-10
-7.455e-11
8.098e-10
-8.376e-11
8.28e-10
-9.322e-11
8.48e-10
-1.029e-10
8.7e-10
-1.128e-10
8.939e-10
-1.229e-10
9.197e-10
-1.331e-10
9.474e-10
-1.432e-10
9.771e-10
-1.533e-10
1.009e-09
-1.632e-10
1.042e-09
-1.726e-10
1.077e-09
-1.814e-10
1.114e-09
-1.895e-10
1.152e-09
-1.964e-10
1.191e-09
-2.021e-10
1.231e-09
-2.061e-10
1.271e-09
-2.082e-10
1.312e-09
-2.081e-10
1.352e-09
-2.056e-10
1.391e-09
-2.003e-10
1.429e-09
-1.921e-10
1.464e-09
-1.809e-10
1.497e-09
-1.666e-10
1.526e-09
-1.492e-10
1.552e-09
-1.289e-10
1.573e-09
-1.061e-10
1.589e-09
-8.12e-11
1.599e-09
-5.467e-11
1.605e-09
-2.717e-11
1.605e-09
6.207e-13
1.599e-09
2.806e-11
1.589e-09
5.454e-11
1.573e-09
7.954e-11
1.553e-09
1.026e-10
1.529e-09
1.235e-10
1.501e-09
1.42e-10
1.47e-09
1.579e-10
1.437e-09
1.711e-10
1.402e-09
1.818e-10
1.365e-09
1.9e-10
1.327e-09
1.957e-10
1.288e-09
1.991e-10
1.249e-09
2.004e-10
1.211e-09
1.998e-10
1.172e-09
1.974e-10
1.135e-09
1.936e-10
1.098e-09
1.885e-10
1.062e-09
1.824e-10
1.028e-09
1.754e-10
9.957e-10
1.677e-10
9.645e-10
1.596e-10
9.35e-10
1.512e-10
9.071e-10
1.426e-10
8.809e-10
1.34e-10
8.563e-10
1.254e-10
8.333e-10
1.17e-10
8.118e-10
1.088e-10
7.919e-10
1.009e-10
7.735e-10
9.326e-11
7.565e-10
8.603e-11
7.407e-10
7.916e-11
7.263e-10
7.268e-11
7.13e-10
6.659e-11
7.008e-10
6.09e-11
6.897e-10
5.558e-11
6.795e-10
5.064e-11
6.702e-10
4.607e-11
6.617e-10
4.184e-11
6.541e-10
3.793e-11
6.471e-10
3.435e-11
6.408e-10
3.105e-11
6.35e-10
2.804e-11
6.298e-10
2.528e-11
6.252e-10
2.277e-11
6.21e-10
2.048e-11
6.172e-10
1.84e-11
6.137e-10
1.651e-11
6.107e-10
1.481e-11
6.079e-10
1.327e-11
6.054e-10
1.19e-11
6.032e-10
1.066e-11
6.012e-10
9.571e-12
5.994e-10
8.609e-12
5.978e-10
7.769e-12
5.963e-10
7.048e-12
5.95e-10
6.441e-12
5.938e-10
5.942e-12
5.928e-10
5.547e-12
5.918e-10
5.252e-12
5.909e-10
5.048e-12
5.901e-10
4.925e-12
5.893e-10
4.868e-12
4.853e-12
9.471e-10
6.997e-11
9.667e-10
1.799e-10
9.877e-10
2.569e-10
1.004e-09
3.036e-10
1.014e-09
3.261e-10
1.016e-09
3.307e-10
1.011e-09
3.231e-10
1.001e-09
3.076e-10
9.875e-10
2.875e-10
9.711e-10
2.651e-10
9.531e-10
2.419e-10
9.346e-10
2.19e-10
9.162e-10
1.969e-10
8.984e-10
1.76e-10
8.815e-10
1.563e-10
8.659e-10
1.38e-10
8.515e-10
1.21e-10
8.387e-10
1.052e-10
8.273e-10
9.056e-11
8.175e-10
7.69e-11
8.092e-10
6.412e-11
8.024e-10
5.211e-11
7.972e-10
4.075e-11
7.935e-10
2.993e-11
7.912e-10
1.955e-11
7.905e-10
9.508e-12
7.912e-10
-2.882e-13
7.934e-10
-9.926e-12
7.971e-10
-1.949e-11
8.024e-10
-2.904e-11
8.092e-10
-3.867e-11
8.175e-10
-4.842e-11
8.275e-10
-5.835e-11
8.391e-10
-6.851e-11
8.525e-10
-7.893e-11
8.675e-10
-8.964e-11
8.844e-10
-1.007e-10
9.032e-10
-1.12e-10
9.238e-10
-1.236e-10
9.465e-10
-1.354e-10
9.711e-10
-1.475e-10
9.977e-10
-1.597e-10
1.026e-09
-1.719e-10
1.057e-09
-1.84e-10
1.09e-09
-1.958e-10
1.124e-09
-2.071e-10
1.16e-09
-2.178e-10
1.198e-09
-2.274e-10
1.238e-09
-2.359e-10
1.278e-09
-2.427e-10
1.32e-09
-2.477e-10
1.362e-09
-2.504e-10
1.405e-09
-2.504e-10
1.447e-09
-2.475e-10
1.488e-09
-2.414e-10
1.527e-09
-2.317e-10
1.564e-09
-2.183e-10
1.599e-09
-2.011e-10
1.63e-09
-1.803e-10
1.657e-09
-1.559e-10
1.679e-09
-1.283e-10
1.696e-09
-9.819e-11
1.708e-09
-6.608e-11
1.713e-09
-3.279e-11
1.713e-09
8.455e-13
1.707e-09
3.402e-11
1.696e-09
6.598e-11
1.679e-09
9.61e-11
1.658e-09
1.239e-10
1.632e-09
1.49e-10
1.603e-09
1.711e-10
1.571e-09
1.901e-10
1.536e-09
2.06e-10
1.499e-09
2.188e-10
1.461e-09
2.285e-10
1.421e-09
2.353e-10
1.381e-09
2.393e-10
1.34e-09
2.409e-10
1.3e-09
2.401e-10
1.26e-09
2.373e-10
1.221e-09
2.327e-10
1.183e-09
2.265e-10
1.146e-09
2.191e-10
1.111e-09
2.107e-10
1.077e-09
2.016e-10
1.045e-09
1.918e-10
1.014e-09
1.817e-10
9.853e-10
1.714e-10
9.582e-10
1.611e-10
9.328e-10
1.508e-10
9.09e-10
1.407e-10
8.869e-10
1.309e-10
8.663e-10
1.214e-10
8.472e-10
1.123e-10
8.296e-10
1.037e-10
8.133e-10
9.543e-11
7.983e-10
8.766e-11
7.846e-10
8.035e-11
7.72e-10
7.352e-11
7.604e-10
6.714e-11
7.498e-10
6.121e-11
7.402e-10
5.57e-11
7.314e-10
5.062e-11
7.234e-10
4.593e-11
7.162e-10
4.161e-11
7.096e-10
3.764e-11
7.036e-10
3.401e-11
6.982e-10
3.068e-11
6.933e-10
2.765e-11
6.889e-10
2.488e-11
6.849e-10
2.237e-11
6.814e-10
2.009e-11
6.781e-10
1.803e-11
6.752e-10
1.617e-11
6.726e-10
1.45e-11
6.703e-10
1.3e-11
6.682e-10
1.166e-11
6.663e-10
1.048e-11
6.647e-10
9.452e-12
6.631e-10
8.558e-12
6.618e-10
7.797e-12
6.606e-10
7.163e-12
6.595e-10
6.649e-12
6.585e-10
6.251e-12
6.576e-10
5.959e-12
6.567e-10
5.765e-12
6.559e-10
5.656e-12
5.615e-12
9.453e-10
6.216e-11
9.624e-10
1.628e-10
9.822e-10
2.371e-10
1e-09
2.858e-10
1.013e-09
3.13e-10
1.02e-09
3.235e-10
1.022e-09
3.215e-10
1.018e-09
3.111e-10
1.011e-09
2.95e-10
1e-09
2.756e-10
9.879e-10
2.544e-10
9.742e-10
2.327e-10
9.6e-10
2.111e-10
9.458e-10
1.902e-10
9.32e-10
1.701e-10
9.189e-10
1.511e-10
9.067e-10
1.332e-10
8.957e-10
1.163e-10
8.858e-10
1.004e-10
8.772e-10
8.547e-11
8.7e-10
7.137e-11
8.641e-10
5.801e-11
8.596e-10
4.528e-11
8.564e-10
3.307e-11
8.547e-10
2.13e-11
8.543e-10
9.851e-12
8.554e-10
-1.364e-12
8.579e-10
-1.244e-11
8.619e-10
-2.345e-11
8.673e-10
-3.45e-11
8.743e-10
-4.563e-11
8.828e-10
-5.694e-11
8.929e-10
-6.847e-11
9.047e-10
-8.027e-11
9.182e-10
-9.239e-11
9.334e-10
-1.048e-10
9.504e-10
-1.177e-10
9.693e-10
-1.309e-10
9.901e-10
-1.444e-10
1.013e-09
-1.582e-10
1.038e-09
-1.723e-10
1.064e-09
-1.865e-10
1.093e-09
-2.008e-10
1.124e-09
-2.149e-10
1.157e-09
-2.287e-10
1.192e-09
-2.421e-10
1.229e-09
-2.546e-10
1.268e-09
-2.66e-10
1.308e-09
-2.76e-10
1.349e-09
-2.842e-10
1.392e-09
-2.902e-10
1.435e-09
-2.936e-10
1.478e-09
-2.939e-10
1.522e-09
-2.907e-10
1.564e-09
-2.838e-10
1.605e-09
-2.726e-10
1.644e-09
-2.571e-10
1.68e-09
-2.371e-10
1.712e-09
-2.127e-10
1.74e-09
-1.84e-10
1.764e-09
-1.516e-10
1.781e-09
-1.159e-10
1.793e-09
-7.794e-11
1.799e-09
-3.855e-11
1.799e-09
1.241e-12
1.792e-09
4.042e-11
1.78e-09
7.809e-11
1.763e-09
1.135e-10
1.741e-09
1.461e-10
1.714e-09
1.755e-10
1.684e-09
2.013e-10
1.65e-09
2.235e-10
1.614e-09
2.42e-10
1.576e-09
2.568e-10
1.537e-09
2.681e-10
1.496e-09
2.759e-10
1.455e-09
2.806e-10
1.414e-09
2.823e-10
1.372e-09
2.813e-10
1.332e-09
2.779e-10
1.292e-09
2.724e-10
1.253e-09
2.652e-10
1.216e-09
2.565e-10
1.18e-09
2.467e-10
1.146e-09
2.359e-10
1.113e-09
2.245e-10
1.082e-09
2.127e-10
1.053e-09
2.006e-10
1.025e-09
1.885e-10
9.997e-10
1.765e-10
9.757e-10
1.648e-10
9.533e-10
1.533e-10
9.325e-10
1.422e-10
9.133e-10
1.316e-10
8.955e-10
1.215e-10
8.79e-10
1.119e-10
8.639e-10
1.028e-10
8.5e-10
9.426e-11
8.373e-10
8.627e-11
8.256e-10
7.882e-11
8.149e-10
7.189e-11
8.051e-10
6.546e-11
7.962e-10
5.951e-11
7.881e-10
5.402e-11
7.808e-10
4.897e-11
7.741e-10
4.433e-11
7.68e-10
4.007e-11
7.625e-10
3.617e-11
7.576e-10
3.261e-11
7.531e-10
2.937e-11
7.491e-10
2.642e-11
7.454e-10
2.374e-11
7.421e-10
2.131e-11
7.392e-10
1.912e-11
7.365e-10
1.715e-11
7.341e-10
1.538e-11
7.32e-10
1.38e-11
7.301e-10
1.24e-11
7.284e-10
1.116e-11
7.268e-10
1.009e-11
7.255e-10
9.17e-12
7.242e-10
8.393e-12
7.231e-10
7.754e-12
7.221e-10
7.247e-12
7.212e-10
6.863e-12
7.204e-10
6.594e-12
7.196e-10
6.431e-12
6.363e-12
9.44e-10
5.565e-11
9.589e-10
1.479e-10
9.775e-10
2.185e-10
9.956e-10
2.677e-10
1.011e-09
2.979e-10
1.021e-09
3.127e-10
1.028e-09
3.154e-10
1.029e-09
3.094e-10
1.027e-09
2.971e-10
1.022e-09
2.808e-10
1.014e-09
2.62e-10
1.005e-09
2.418e-10
9.952e-10
2.212e-10
9.846e-10
2.008e-10
9.74e-10
1.807e-10
9.637e-10
1.614e-10
9.54e-10
1.429e-10
9.449e-10
1.253e-10
9.368e-10
1.085e-10
9.297e-10
9.258e-11
9.237e-10
7.739e-11
9.188e-10
6.288e-11
9.152e-10
4.895e-11
9.127e-10
3.552e-11
9.115e-10
2.249e-11
9.116e-10
9.749e-12
9.13e-10
-2.783e-12
9.158e-10
-1.52e-11
9.199e-10
-2.759e-11
9.255e-10
-4.005e-11
9.325e-10
-5.264e-11
9.41e-10
-6.543e-11
9.51e-10
-7.85e-11
9.627e-10
-9.19e-11
9.76e-10
-1.057e-10
9.909e-10
-1.198e-10
1.008e-09
-1.344e-10
1.026e-09
-1.495e-10
1.047e-09
-1.649e-10
1.069e-09
-1.806e-10
1.094e-09
-1.967e-10
1.12e-09
-2.13e-10
1.149e-09
-2.293e-10
1.179e-09
-2.455e-10
1.212e-09
-2.614e-10
1.247e-09
-2.767e-10
1.283e-09
-2.912e-10
1.322e-09
-3.045e-10
1.362e-09
-3.162e-10
1.403e-09
-3.258e-10
1.446e-09
-3.33e-10
1.49e-09
-3.371e-10
1.534e-09
-3.379e-10
1.578e-09
-3.346e-10
1.621e-09
-3.269e-10
1.663e-09
-3.145e-10
1.702e-09
-2.969e-10
1.739e-09
-2.741e-10
1.773e-09
-2.461e-10
1.802e-09
-2.131e-10
1.826e-09
-1.755e-10
1.844e-09
-1.342e-10
1.856e-09
-9.01e-11
1.862e-09
-4.432e-11
1.862e-09
1.882e-12
1.855e-09
4.728e-11
1.842e-09
9.082e-11
1.824e-09
1.316e-10
1.801e-09
1.691e-10
1.774e-09
2.027e-10
1.743e-09
2.322e-10
1.709e-09
2.575e-10
1.672e-09
2.786e-10
1.634e-09
2.954e-10
1.594e-09
3.081e-10
1.553e-09
3.17e-10
1.511e-09
3.221e-10
1.469e-09
3.239e-10
1.428e-09
3.226e-10
1.387e-09
3.186e-10
1.347e-09
3.122e-10
1.309e-09
3.038e-10
1.272e-09
2.938e-10
1.236e-09
2.824e-10
1.202e-09
2.7e-10
1.169e-09
2.569e-10
1.139e-09
2.433e-10
1.11e-09
2.295e-10
1.083e-09
2.157e-10
1.057e-09
2.02e-10
1.033e-09
1.885e-10
1.011e-09
1.754e-10
9.907e-10
1.627e-10
9.717e-10
1.506e-10
9.541e-10
1.39e-10
9.379e-10
1.281e-10
9.23e-10
1.177e-10
9.093e-10
1.08e-10
8.967e-10
9.886e-11
8.852e-10
9.036e-11
8.746e-10
8.244e-11
8.65e-10
7.51e-11
8.562e-10
6.83e-11
8.482e-10
6.203e-11
8.409e-10
5.625e-11
8.343e-10
5.094e-11
8.283e-10
4.607e-11
8.228e-10
4.161e-11
8.179e-10
3.754e-11
8.135e-10
3.382e-11
8.095e-10
3.044e-11
8.058e-10
2.736e-11
8.026e-10
2.457e-11
7.996e-10
2.206e-11
7.97e-10
1.978e-11
7.946e-10
1.774e-11
7.925e-10
1.592e-11
7.906e-10
1.43e-11
7.889e-10
1.286e-11
7.874e-10
1.161e-11
7.86e-10
1.053e-11
7.848e-10
9.604e-12
7.838e-10
8.838e-12
7.828e-10
8.218e-12
7.819e-10
7.74e-12
7.811e-10
7.395e-12
7.804e-10
7.178e-12
7.082e-12
9.43e-10
5.012e-11
9.563e-10
1.347e-10
9.734e-10
2.014e-10
9.913e-10
2.498e-10
1.008e-09
2.817e-10
1.021e-09
2.995e-10
1.03e-09
3.06e-10
1.036e-09
3.037e-10
1.038e-09
2.949e-10
1.037e-09
2.815e-10
1.034e-09
2.651e-10
1.029e-09
2.468e-10
1.023e-09
2.275e-10
1.016e-09
2.078e-10
1.009e-09
1.882e-10
1.001e-09
1.689e-10
9.94e-10
1.502e-10
9.872e-10
1.321e-10
9.809e-10
1.148e-10
9.754e-10
9.81e-11
9.707e-10
8.206e-11
9.67e-10
6.662e-11
9.642e-10
5.17e-11
9.626e-10
3.721e-11
9.62e-10
2.308e-11
9.625e-10
9.197e-12
9.642e-10
-4.518e-12
9.672e-10
-1.816e-11
9.714e-10
-3.182e-11
9.77e-10
-4.558e-11
9.838e-10
-5.952e-11
9.921e-10
-7.371e-11
1.002e-09
-8.824e-11
1.013e-09
-1.031e-10
1.026e-09
-1.185e-10
1.04e-09
-1.343e-10
1.056e-09
-1.506e-10
1.074e-09
-1.674e-10
1.094e-09
-1.846e-10
1.116e-09
-2.023e-10
1.139e-09
-2.203e-10
1.165e-09
-2.385e-10
1.192e-09
-2.569e-10
1.222e-09
-2.752e-10
1.254e-09
-2.931e-10
1.288e-09
-3.105e-10
1.323e-09
-3.27e-10
1.361e-09
-3.421e-10
1.4e-09
-3.555e-10
1.441e-09
-3.667e-10
1.483e-09
-3.752e-10
1.527e-09
-3.803e-10
1.57e-09
-3.816e-10
1.614e-09
-3.784e-10
1.658e-09
-3.703e-10
1.7e-09
-3.566e-10