/*--------------------------------*- C++ -*----------------------------------*\
  =========                 |
  \\      /  F ield         | OpenFOAM: The Open Source CFD Toolbox
   \\    /   O peration     | Website:  https://openfoam.org
    \\  /    A nd           | Version:  7
     \\/     M anipulation  |
\*---------------------------------------------------------------------------*/
FoamFile
{
    version     2.0;
    format      ascii;
    class       volVectorField;
    location    "2099.99947343408576";
    object      U;
}
// * * * * * * * * * * * * * * * * * * * * * * * * * * * * * * * * * * * * * //

dimensions      [0 1 -1 0 0 0 0];

internalField   nonuniform List<vector> 
4096
(
(0.001039 0.0001611 0)
(0.0007463 0.0001314 0)
(0.0005302 8.474e-05 0)
(0.0003919 5.358e-05 0)
(0.0003036 3.467e-05 0)
(0.0002457 2.329e-05 0)
(0.0002061 1.633e-05 0)
(0.0001778 1.195e-05 0)
(0.0001568 9.065e-06 0)
(0.0001406 7.079e-06 0)
(0.0001279 5.653e-06 0)
(0.0001176 4.592e-06 0)
(0.0001093 3.777e-06 0)
(0.0001024 3.137e-06 0)
(9.659e-05 2.622e-06 0)
(9.177e-05 2.2e-06 0)
(8.773e-05 1.848e-06 0)
(8.433e-05 1.551e-06 0)
(8.148e-05 1.296e-06 0)
(7.911e-05 1.075e-06 0)
(7.715e-05 8.805e-07 0)
(7.556e-05 7.07e-07 0)
(7.431e-05 5.502e-07 0)
(7.335e-05 4.067e-07 0)
(7.267e-05 2.735e-07 0)
(7.225e-05 1.481e-07 0)
(7.207e-05 2.847e-08 0)
(7.213e-05 -8.732e-08 0)
(7.242e-05 -2.008e-07 0)
(7.293e-05 -3.134e-07 0)
(7.367e-05 -4.264e-07 0)
(7.464e-05 -5.407e-07 0)
(7.584e-05 -6.575e-07 0)
(7.727e-05 -7.774e-07 0)
(7.895e-05 -9.012e-07 0)
(8.088e-05 -1.029e-06 0)
(8.307e-05 -1.162e-06 0)
(8.554e-05 -1.3e-06 0)
(8.828e-05 -1.443e-06 0)
(9.131e-05 -1.59e-06 0)
(9.464e-05 -1.741e-06 0)
(9.828e-05 -1.895e-06 0)
(0.0001022 -2.051e-06 0)
(0.0001065 -2.207e-06 0)
(0.0001111 -2.361e-06 0)
(0.0001159 -2.511e-06 0)
(0.0001211 -2.653e-06 0)
(0.0001265 -2.783e-06 0)
(0.0001322 -2.899e-06 0)
(0.0001381 -2.995e-06 0)
(0.0001442 -3.067e-06 0)
(0.0001503 -3.109e-06 0)
(0.0001566 -3.118e-06 0)
(0.0001628 -3.088e-06 0)
(0.0001689 -3.016e-06 0)
(0.0001748 -2.898e-06 0)
(0.0001804 -2.732e-06 0)
(0.0001857 -2.516e-06 0)
(0.0001904 -2.253e-06 0)
(0.0001946 -1.945e-06 0)
(0.0001982 -1.597e-06 0)
(0.000201 -1.215e-06 0)
(0.000203 -8.093e-07 0)
(0.0002042 -3.884e-07 0)
(0.0002046 3.692e-08 0)
(0.0002041 4.564e-07 0)
(0.0002028 8.603e-07 0)
(0.0002007 1.24e-06 0)
(0.0001978 1.59e-06 0)
(0.0001943 1.904e-06 0)
(0.0001902 2.178e-06 0)
(0.0001857 2.411e-06 0)
(0.0001806 2.603e-06 0)
(0.0001753 2.753e-06 0)
(0.0001697 2.863e-06 0)
(0.0001639 2.934e-06 0)
(0.000158 2.971e-06 0)
(0.000152 2.975e-06 0)
(0.0001461 2.951e-06 0)
(0.0001402 2.9e-06 0)
(0.0001345 2.829e-06 0)
(0.000129 2.739e-06 0)
(0.0001236 2.634e-06 0)
(0.0001184 2.518e-06 0)
(0.0001135 2.394e-06 0)
(0.0001089 2.264e-06 0)
(0.0001045 2.131e-06 0)
(0.0001003 1.997e-06 0)
(9.647e-05 1.864e-06 0)
(9.288e-05 1.733e-06 0)
(8.954e-05 1.606e-06 0)
(8.645e-05 1.483e-06 0)
(8.36e-05 1.366e-06 0)
(8.098e-05 1.255e-06 0)
(7.857e-05 1.149e-06 0)
(7.637e-05 1.05e-06 0)
(7.437e-05 9.573e-07 0)
(7.254e-05 8.709e-07 0)
(7.088e-05 7.906e-07 0)
(6.937e-05 7.163e-07 0)
(6.801e-05 6.479e-07 0)
(6.677e-05 5.849e-07 0)
(6.566e-05 5.271e-07 0)
(6.466e-05 4.743e-07 0)
(6.376e-05 4.261e-07 0)
(6.295e-05 3.821e-07 0)
(6.223e-05 3.422e-07 0)
(6.158e-05 3.06e-07 0)
(6.1e-05 2.732e-07 0)
(6.048e-05 2.436e-07 0)
(6.002e-05 2.169e-07 0)
(5.961e-05 1.929e-07 0)
(5.925e-05 1.714e-07 0)
(5.892e-05 1.522e-07 0)
(5.864e-05 1.352e-07 0)
(5.838e-05 1.203e-07 0)
(5.815e-05 1.074e-07 0)
(5.795e-05 9.646e-08 0)
(5.777e-05 8.745e-08 0)
(5.76e-05 8.047e-08 0)
(5.744e-05 7.572e-08 0)
(5.729e-05 7.355e-08 0)
(5.714e-05 7.46e-08 0)
(5.699e-05 8.011e-08 0)
(5.682e-05 9.241e-08 0)
(5.661e-05 1.153e-07 0)
(5.634e-05 1.532e-07 0)
(5.599e-05 1.991e-07 0)
(0.001209 0.0003128 0)
(0.001154 0.0003282 0)
(0.00101 0.000248 0)
(0.0008613 0.0001771 0)
(0.0007344 0.0001262 0)
(0.0006326 9.148e-05 0)
(0.0005525 6.793e-05 0)
(0.0004893 5.179e-05 0)
(0.0004391 4.044e-05 0)
(0.0003987 3.223e-05 0)
(0.0003658 2.612e-05 0)
(0.0003387 2.145e-05 0)
(0.0003162 1.779e-05 0)
(0.0002974 1.487e-05 0)
(0.0002816 1.249e-05 0)
(0.0002682 1.052e-05 0)
(0.0002569 8.867e-06 0)
(0.0002474 7.462e-06 0)
(0.0002394 6.252e-06 0)
(0.0002327 5.197e-06 0)
(0.0002271 4.264e-06 0)
(0.0002226 3.431e-06 0)
(0.000219 2.676e-06 0)
(0.0002163 1.983e-06 0)
(0.0002143 1.34e-06 0)
(0.0002131 7.332e-07 0)
(0.0002125 1.541e-07 0)
(0.0002127 -4.061e-07 0)
(0.0002135 -9.549e-07 0)
(0.0002149 -1.499e-06 0)
(0.0002169 -2.044e-06 0)
(0.0002197 -2.595e-06 0)
(0.000223 -3.156e-06 0)
(0.000227 -3.732e-06 0)
(0.0002317 -4.324e-06 0)
(0.0002371 -4.937e-06 0)
(0.0002432 -5.57e-06 0)
(0.0002501 -6.225e-06 0)
(0.0002578 -6.901e-06 0)
(0.0002662 -7.597e-06 0)
(0.0002754 -8.309e-06 0)
(0.0002855 -9.034e-06 0)
(0.0002964 -9.765e-06 0)
(0.0003082 -1.049e-05 0)
(0.0003207 -1.121e-05 0)
(0.0003341 -1.19e-05 0)
(0.0003482 -1.256e-05 0)
(0.0003631 -1.316e-05 0)
(0.0003785 -1.368e-05 0)
(0.0003946 -1.412e-05 0)
(0.000411 -1.443e-05 0)
(0.0004277 -1.461e-05 0)
(0.0004445 -1.464e-05 0)
(0.0004612 -1.448e-05 0)
(0.0004776 -1.412e-05 0)
(0.0004934 -1.355e-05 0)
(0.0005085 -1.276e-05 0)
(0.0005225 -1.175e-05 0)
(0.0005352 -1.051e-05 0)
(0.0005464 -9.075e-06 0)
(0.0005558 -7.452e-06 0)
(0.0005633 -5.678e-06 0)
(0.0005688 -3.792e-06 0)
(0.000572 -1.838e-06 0)
(0.000573 1.383e-07 0)
(0.0005718 2.089e-06 0)
(0.0005683 3.97e-06 0)
(0.0005628 5.745e-06 0)
(0.0005554 7.38e-06 0)
(0.0005461 8.853e-06 0)
(0.0005353 1.015e-05 0)
(0.0005231 1.125e-05 0)
(0.0005097 1.216e-05 0)
(0.0004953 1.288e-05 0)
(0.0004803 1.342e-05 0)
(0.0004647 1.378e-05 0)
(0.0004487 1.397e-05 0)
(0.0004326 1.401e-05 0)
(0.0004166 1.391e-05 0)
(0.0004007 1.37e-05 0)
(0.000385 1.338e-05 0)
(0.0003698 1.297e-05 0)
(0.0003551 1.249e-05 0)
(0.000341 1.196e-05 0)
(0.0003274 1.139e-05 0)
(0.0003146 1.079e-05 0)
(0.0003024 1.017e-05 0)
(0.000291 9.543e-06 0)
(0.0002802 8.921e-06 0)
(0.0002702 8.307e-06 0)
(0.0002608 7.71e-06 0)
(0.0002522 7.132e-06 0)
(0.0002442 6.577e-06 0)
(0.0002368 6.049e-06 0)
(0.00023 5.549e-06 0)
(0.0002238 5.077e-06 0)
(0.0002181 4.635e-06 0)
(0.0002129 4.223e-06 0)
(0.0002081 3.839e-06 0)
(0.0002038 3.484e-06 0)
(0.0001999 3.155e-06 0)
(0.0001964 2.853e-06 0)
(0.0001932 2.575e-06 0)
(0.0001903 2.32e-06 0)
(0.0001877 2.088e-06 0)
(0.0001853 1.875e-06 0)
(0.0001832 1.682e-06 0)
(0.0001813 1.507e-06 0)
(0.0001796 1.347e-06 0)
(0.0001781 1.204e-06 0)
(0.0001767 1.074e-06 0)
(0.0001755 9.568e-07 0)
(0.0001745 8.52e-07 0)
(0.0001735 7.585e-07 0)
(0.0001726 6.755e-07 0)
(0.0001719 6.024e-07 0)
(0.0001712 5.39e-07 0)
(0.0001706 4.849e-07 0)
(0.00017 4.401e-07 0)
(0.0001695 4.05e-07 0)
(0.000169 3.801e-07 0)
(0.0001686 3.667e-07 0)
(0.0001681 3.667e-07 0)
(0.0001677 3.834e-07 0)
(0.0001672 4.221e-07 0)
(0.0001667 4.901e-07 0)
(0.0001662 5.911e-07 0)
(0.0001656 6.965e-07 0)
(0.001226 0.0002775 0)
(0.001243 0.0004027 0)
(0.001194 0.0003664 0)
(0.001102 0.0002983 0)
(0.0009997 0.0002346 0)
(0.0009015 0.0001831 0)
(0.0008142 0.0001438 0)
(0.000739 0.0001142 0)
(0.0006753 9.194e-05 0)
(0.0006215 7.492e-05 0)
(0.0005761 6.172e-05 0)
(0.0005377 5.132e-05 0)
(0.0005051 4.298e-05 0)
(0.0004775 3.619e-05 0)
(0.0004539 3.058e-05 0)
(0.0004338 2.589e-05 0)
(0.0004167 2.191e-05 0)
(0.0004021 1.85e-05 0)
(0.0003898 1.555e-05 0)
(0.0003794 1.295e-05 0)
(0.0003708 1.065e-05 0)
(0.0003638 8.586e-06 0)
(0.0003582 6.709e-06 0)
(0.0003539 4.982e-06 0)
(0.0003509 3.374e-06 0)
(0.0003489 1.856e-06 0)
(0.0003481 4.045e-07 0)
(0.0003483 -1e-06 0)
(0.0003495 -2.376e-06 0)
(0.0003518 -3.74e-06 0)
(0.000355 -5.104e-06 0)
(0.0003593 -6.483e-06 0)
(0.0003645 -7.885e-06 0)
(0.0003708 -9.321e-06 0)
(0.0003782 -1.08e-05 0)
(0.0003866 -1.232e-05 0)
(0.0003962 -1.389e-05 0)
(0.000407 -1.551e-05 0)
(0.0004189 -1.718e-05 0)
(0.000432 -1.89e-05 0)
(0.0004464 -2.065e-05 0)
(0.0004621 -2.243e-05 0)
(0.000479 -2.422e-05 0)
(0.0004973 -2.6e-05 0)
(0.0005167 -2.774e-05 0)
(0.0005374 -2.943e-05 0)
(0.0005593 -3.101e-05 0)
(0.0005822 -3.245e-05 0)
(0.000606 -3.371e-05 0)
(0.0006307 -3.474e-05 0)
(0.0006559 -3.549e-05 0)
(0.0006816 -3.589e-05 0)
(0.0007073 -3.591e-05 0)
(0.0007329 -3.549e-05 0)
(0.000758 -3.459e-05 0)
(0.0007822 -3.317e-05 0)
(0.0008053 -3.122e-05 0)
(0.0008267 -2.872e-05 0)
(0.0008461 -2.57e-05 0)
(0.0008632 -2.218e-05 0)
(0.0008776 -1.822e-05 0)
(0.0008891 -1.39e-05 0)
(0.0008974 -9.304e-06 0)
(0.0009024 -4.544e-06 0)
(0.000904 2.681e-07 0)
(0.0009022 5.022e-06 0)
(0.000897 9.613e-06 0)
(0.0008887 1.395e-05 0)
(0.0008774 1.795e-05 0)
(0.0008633 2.157e-05 0)
(0.0008468 2.476e-05 0)
(0.0008282 2.748e-05 0)
(0.0008078 2.975e-05 0)
(0.0007859 3.155e-05 0)
(0.0007628 3.289e-05 0)
(0.0007389 3.381e-05 0)
(0.0007145 3.432e-05 0)
(0.0006898 3.446e-05 0)
(0.000665 3.426e-05 0)
(0.0006405 3.377e-05 0)
(0.0006164 3.302e-05 0)
(0.0005929 3.205e-05 0)
(0.0005701 3.091e-05 0)
(0.0005482 2.963e-05 0)
(0.0005272 2.824e-05 0)
(0.0005072 2.678e-05 0)
(0.0004883 2.528e-05 0)
(0.0004704 2.376e-05 0)
(0.0004536 2.223e-05 0)
(0.0004379 2.073e-05 0)
(0.0004233 1.926e-05 0)
(0.0004097 1.784e-05 0)
(0.0003971 1.647e-05 0)
(0.0003855 1.517e-05 0)
(0.0003748 1.393e-05 0)
(0.0003649 1.276e-05 0)
(0.0003559 1.167e-05 0)
(0.0003477 1.064e-05 0)
(0.0003401 9.685e-06 0)
(0.0003333 8.799e-06 0)
(0.0003271 7.98e-06 0)
(0.0003214 7.224e-06 0)
(0.0003163 6.529e-06 0)
(0.0003116 5.891e-06 0)
(0.0003075 5.308e-06 0)
(0.0003037 4.774e-06 0)
(0.0003003 4.289e-06 0)
(0.0002972 3.847e-06 0)
(0.0002945 3.446e-06 0)
(0.000292 3.082e-06 0)
(0.0002898 2.754e-06 0)
(0.0002879 2.459e-06 0)
(0.0002861 2.193e-06 0)
(0.0002845 1.956e-06 0)
(0.0002831 1.745e-06 0)
(0.0002819 1.559e-06 0)
(0.0002807 1.397e-06 0)
(0.0002797 1.258e-06 0)
(0.0002788 1.142e-06 0)
(0.000278 1.05e-06 0)
(0.0002772 9.815e-07 0)
(0.0002765 9.396e-07 0)
(0.0002758 9.265e-07 0)
(0.0002751 9.462e-07 0)
(0.0002744 1.003e-06 0)
(0.0002737 1.101e-06 0)
(0.000273 1.233e-06 0)
(0.0002723 1.347e-06 0)
(0.001224 0.0002275 0)
(0.00126 0.0004003 0)
(0.001258 0.0004193 0)
(0.001216 0.000379 0)
(0.001149 0.000323 0)
(0.001073 0.0002687 0)
(0.0009972 0.0002217 0)
(0.0009258 0.0001829 0)
(0.0008612 0.0001516 0)
(0.0008038 0.0001264 0)
(0.0007536 0.0001059 0)
(0.0007097 8.93e-05 0)
(0.0006717 7.561e-05 0)
(0.0006387 6.422e-05 0)
(0.0006101 5.466e-05 0)
(0.0005855 4.654e-05 0)
(0.0005643 3.959e-05 0)
(0.0005461 3.356e-05 0)
(0.0005306 2.829e-05 0)
(0.0005175 2.364e-05 0)
(0.0005066 1.948e-05 0)
(0.0004977 1.573e-05 0)
(0.0004905 1.231e-05 0)
(0.000485 9.149e-06 0)
(0.0004811 6.196e-06 0)
(0.0004787 3.402e-06 0)
(0.0004776 7.266e-07 0)
(0.000478 -1.866e-06 0)
(0.0004797 -4.408e-06 0)
(0.0004826 -6.927e-06 0)
(0.0004869 -9.449e-06 0)
(0.0004925 -1.199e-05 0)
(0.0004995 -1.458e-05 0)
(0.0005078 -1.723e-05 0)
(0.0005175 -1.994e-05 0)
(0.0005286 -2.274e-05 0)
(0.0005412 -2.562e-05 0)
(0.0005552 -2.86e-05 0)
(0.0005709 -3.165e-05 0)
(0.0005881 -3.478e-05 0)
(0.0006069 -3.798e-05 0)
(0.0006273 -4.122e-05 0)
(0.0006494 -4.447e-05 0)
(0.0006732 -4.769e-05 0)
(0.0006985 -5.085e-05 0)
(0.0007254 -5.389e-05 0)
(0.0007537 -5.674e-05 0)
(0.0007834 -5.933e-05 0)
(0.0008143 -6.158e-05 0)
(0.0008462 -6.341e-05 0)
(0.0008788 -6.472e-05 0)
(0.000912 -6.541e-05 0)
(0.0009452 -6.54e-05 0)
(0.0009782 -6.46e-05 0)
(0.001011 -6.293e-05 0)
(0.001042 -6.032e-05 0)
(0.001071 -5.675e-05 0)
(0.001099 -5.22e-05 0)
(0.001124 -4.67e-05 0)
(0.001146 -4.031e-05 0)
(0.001165 -3.313e-05 0)
(0.00118 -2.529e-05 0)
(0.00119 -1.696e-05 0)
(0.001197 -8.338e-06 0)
(0.001199 3.846e-07 0)
(0.001197 9.004e-06 0)
(0.00119 1.733e-05 0)
(0.001179 2.521e-05 0)
(0.001165 3.249e-05 0)
(0.001147 3.908e-05 0)
(0.001126 4.489e-05 0)
(0.001102 4.988e-05 0)
(0.001076 5.404e-05 0)
(0.001047 5.735e-05 0)
(0.001018 5.985e-05 0)
(0.0009868 6.157e-05 0)
(0.0009553 6.255e-05 0)
(0.0009233 6.286e-05 0)
(0.0008914 6.256e-05 0)
(0.0008596 6.172e-05 0)
(0.0008284 6.041e-05 0)
(0.0007979 5.87e-05 0)
(0.0007682 5.666e-05 0)
(0.0007397 5.436e-05 0)
(0.0007123 5.187e-05 0)
(0.0006862 4.924e-05 0)
(0.0006615 4.652e-05 0)
(0.0006381 4.376e-05 0)
(0.0006161 4.1e-05 0)
(0.0005955 3.826e-05 0)
(0.0005763 3.559e-05 0)
(0.0005584 3.299e-05 0)
(0.0005418 3.05e-05 0)
(0.0005265 2.811e-05 0)
(0.0005123 2.585e-05 0)
(0.0004993 2.37e-05 0)
(0.0004874 2.169e-05 0)
(0.0004764 1.981e-05 0)
(0.0004664 1.805e-05 0)
(0.0004573 1.641e-05 0)
(0.000449 1.49e-05 0)
(0.0004414 1.351e-05 0)
(0.0004346 1.222e-05 0)
(0.0004284 1.104e-05 0)
(0.0004228 9.957e-06 0)
(0.0004177 8.968e-06 0)
(0.0004131 8.065e-06 0)
(0.000409 7.243e-06 0)
(0.0004053 6.496e-06 0)
(0.000402 5.819e-06 0)
(0.000399 5.206e-06 0)
(0.0003963 4.654e-06 0)
(0.0003939 4.157e-06 0)
(0.0003918 3.712e-06 0)
(0.0003898 3.316e-06 0)
(0.0003881 2.967e-06 0)
(0.0003866 2.66e-06 0)
(0.0003852 2.397e-06 0)
(0.0003839 2.175e-06 0)
(0.0003828 1.994e-06 0)
(0.0003817 1.857e-06 0)
(0.0003808 1.763e-06 0)
(0.0003799 1.715e-06 0)
(0.000379 1.717e-06 0)
(0.0003781 1.769e-06 0)
(0.0003773 1.868e-06 0)
(0.0003765 1.996e-06 0)
(0.0003757 2.097e-06 0)
(0.001219 0.0001846 0)
(0.001255 0.0003713 0)
(0.001275 0.0004301 0)
(0.001264 0.0004211 0)
(0.001229 0.0003829 0)
(0.001178 0.0003357 0)
(0.00112 0.000289 0)
(0.00106 0.0002468 0)
(0.001002 0.0002102 0)
(0.0009482 0.0001791 0)
(0.0008989 0.0001528 0)
(0.0008545 0.0001306 0)
(0.0008149 0.0001119 0)
(0.0007799 9.595e-05 0)
(0.000749 8.23e-05 0)
(0.000722 7.054e-05 0)
(0.0006985 6.032e-05 0)
(0.0006782 5.137e-05 0)
(0.0006607 4.346e-05 0)
(0.0006458 3.642e-05 0)
(0.0006334 3.009e-05 0)
(0.0006231 2.433e-05 0)
(0.0006149 1.906e-05 0)
(0.0006087 1.416e-05 0)
(0.0006042 9.571e-06 0)
(0.0006014 5.213e-06 0)
(0.0006004 1.031e-06 0)
(0.0006009 -3.031e-06 0)
(0.000603 -7.018e-06 0)
(0.0006067 -1.097e-05 0)
(0.0006119 -1.493e-05 0)
(0.0006187 -1.893e-05 0)
(0.0006271 -2.299e-05 0)
(0.0006371 -2.714e-05 0)
(0.0006488 -3.139e-05 0)
(0.0006621 -3.577e-05 0)
(0.0006772 -4.028e-05 0)
(0.0006941 -4.492e-05 0)
(0.0007129 -4.968e-05 0)
(0.0007335 -5.456e-05 0)
(0.000756 -5.953e-05 0)
(0.0007804 -6.456e-05 0)
(0.0008068 -6.96e-05 0)
(0.0008351 -7.459e-05 0)
(0.0008653 -7.947e-05 0)
(0.0008973 -8.416e-05 0)
(0.000931 -8.855e-05 0)
(0.0009663 -9.253e-05 0)
(0.001003 -9.599e-05 0)
(0.001041 -9.878e-05 0)
(0.00108 -0.0001008 0)
(0.001119 -0.0001018 0)
(0.001158 -0.0001017 0)
(0.001198 -0.0001004 0)
(0.001236 -9.781e-05 0)
(0.001273 -9.374e-05 0)
(0.001308 -8.818e-05 0)
(0.001341 -8.11e-05 0)
(0.001371 -7.256e-05 0)
(0.001397 -6.264e-05 0)
(0.001419 -5.15e-05 0)
(0.001437 -3.934e-05 0)
(0.001449 -2.643e-05 0)
(0.001457 -1.306e-05 0)
(0.00146 4.712e-07 0)
(0.001457 1.384e-05 0)
(0.001449 2.677e-05 0)
(0.001437 3.899e-05 0)
(0.00142 5.031e-05 0)
(0.001398 6.055e-05 0)
(0.001373 6.96e-05 0)
(0.001345 7.739e-05 0)
(0.001314 8.388e-05 0)
(0.001281 8.908e-05 0)
(0.001245 9.302e-05 0)
(0.001209 9.575e-05 0)
(0.001171 9.735e-05 0)
(0.001133 9.79e-05 0)
(0.001095 9.75e-05 0)
(0.001058 9.626e-05 0)
(0.001021 9.428e-05 0)
(0.0009842 9.169e-05 0)
(0.0009489 8.857e-05 0)
(0.0009148 8.505e-05 0)
(0.0008822 8.122e-05 0)
(0.000851 7.716e-05 0)
(0.0008214 7.296e-05 0)
(0.0007934 6.869e-05 0)
(0.000767 6.441e-05 0)
(0.0007423 6.017e-05 0)
(0.0007192 5.602e-05 0)
(0.0006976 5.198e-05 0)
(0.0006776 4.809e-05 0)
(0.0006591 4.437e-05 0)
(0.000642 4.083e-05 0)
(0.0006263 3.748e-05 0)
(0.0006118 3.433e-05 0)
(0.0005986 3.138e-05 0)
(0.0005864 2.862e-05 0)
(0.0005753 2.606e-05 0)
(0.0005652 2.368e-05 0)
(0.000556 2.148e-05 0)
(0.0005476 1.946e-05 0)
(0.0005401 1.759e-05 0)
(0.0005332 1.589e-05 0)
(0.000527 1.432e-05 0)
(0.0005214 1.289e-05 0)
(0.0005163 1.159e-05 0)
(0.0005117 1.041e-05 0)
(0.0005076 9.334e-06 0)
(0.000504 8.361e-06 0)
(0.0005007 7.483e-06 0)
(0.0004977 6.692e-06 0)
(0.000495 5.983e-06 0)
(0.0004926 5.35e-06 0)
(0.0004905 4.79e-06 0)
(0.0004886 4.298e-06 0)
(0.0004869 3.871e-06 0)
(0.0004853 3.509e-06 0)
(0.0004839 3.21e-06 0)
(0.0004826 2.974e-06 0)
(0.0004814 2.801e-06 0)
(0.0004803 2.694e-06 0)
(0.0004793 2.651e-06 0)
(0.0004783 2.67e-06 0)
(0.0004774 2.744e-06 0)
(0.0004765 2.847e-06 0)
(0.0004756 2.928e-06 0)
(0.001214 0.000152 0)
(0.001246 0.0003355 0)
(0.001274 0.0004183 0)
(0.001282 0.0004356 0)
(0.001269 0.0004171 0)
(0.001239 0.0003819 0)
(0.001199 0.000341 0)
(0.001154 0.0003001 0)
(0.001106 0.000262 0)
(0.00106 0.0002279 0)
(0.001015 0.0001978 0)
(0.0009737 0.0001715 0)
(0.0009357 0.0001486 0)
(0.0009013 0.0001287 0)
(0.0008705 0.0001113 0)
(0.000843 9.6e-05 0)
(0.0008188 8.256e-05 0)
(0.0007977 7.064e-05 0)
(0.0007793 6e-05 0)
(0.0007637 5.043e-05 0)
(0.0007504 4.176e-05 0)
(0.0007395 3.383e-05 0)
(0.0007308 2.65e-05 0)
(0.0007241 1.968e-05 0)
(0.0007194 1.324e-05 0)
(0.0007166 7.115e-06 0)
(0.0007156 1.215e-06 0)
(0.0007164 -4.527e-06 0)
(0.0007189 -1.017e-05 0)
(0.0007232 -1.578e-05 0)
(0.0007292 -2.14e-05 0)
(0.0007371 -2.707e-05 0)
(0.0007467 -3.284e-05 0)
(0.0007581 -3.872e-05 0)
(0.0007714 -4.476e-05 0)
(0.0007866 -5.097e-05 0)
(0.0008037 -5.735e-05 0)
(0.0008229 -6.391e-05 0)
(0.0008441 -7.065e-05 0)
(0.0008675 -7.754e-05 0)
(0.000893 -8.455e-05 0)
(0.0009206 -9.163e-05 0)
(0.0009504 -9.872e-05 0)
(0.0009824 -0.0001057 0)
(0.001017 -0.0001126 0)
(0.001053 -0.0001192 0)
(0.001091 -0.0001253 0)
(0.001131 -0.0001309 0)
(0.001172 -0.0001357 0)
(0.001215 -0.0001396 0)
(0.001259 -0.0001424 0)
(0.001303 -0.0001438 0)
(0.001347 -0.0001437 0)
(0.001392 -0.0001419 0)
(0.001435 -0.0001381 0)
(0.001477 -0.0001324 0)
(0.001517 -0.0001245 0)
(0.001554 -0.0001146 0)
(0.001587 -0.0001025 0)
(0.001617 -8.851e-05 0)
(0.001642 -7.28e-05 0)
(0.001662 -5.565e-05 0)
(0.001677 -3.743e-05 0)
(0.001685 -1.855e-05 0)
(0.001688 5.355e-07 0)
(0.001685 1.94e-05 0)
(0.001677 3.764e-05 0)
(0.001662 5.489e-05 0)
(0.001643 7.086e-05 0)
(0.001619 8.532e-05 0)
(0.001591 9.811e-05 0)
(0.001559 0.0001091 0)
(0.001524 0.0001183 0)
(0.001486 0.0001257 0)
(0.001446 0.0001313 0)
(0.001405 0.0001352 0)
(0.001363 0.0001376 0)
(0.00132 0.0001384 0)
(0.001277 0.0001379 0)
(0.001235 0.0001362 0)
(0.001193 0.0001335 0)
(0.001152 0.0001299 0)
(0.001112 0.0001256 0)
(0.001073 0.0001206 0)
(0.001036 0.0001153 0)
(0.001001 0.0001096 0)
(0.0009673 0.0001037 0)
(0.0009355 9.771e-05 0)
(0.0009056 9.168e-05 0)
(0.0008775 8.571e-05 0)
(0.0008512 7.986e-05 0)
(0.0008267 7.416e-05 0)
(0.000804 6.867e-05 0)
(0.0007829 6.341e-05 0)
(0.0007634 5.84e-05 0)
(0.0007454 5.365e-05 0)
(0.0007288 4.918e-05 0)
(0.0007136 4.499e-05 0)
(0.0006997 4.107e-05 0)
(0.000687 3.742e-05 0)
(0.0006754 3.404e-05 0)
(0.0006648 3.091e-05 0)
(0.0006552 2.802e-05 0)
(0.0006464 2.536e-05 0)
(0.0006385 2.292e-05 0)
(0.0006313 2.068e-05 0)
(0.0006248 1.864e-05 0)
(0.000619 1.677e-05 0)
(0.0006137 1.507e-05 0)
(0.0006089 1.353e-05 0)
(0.0006046 1.213e-05 0)
(0.0006008 1.087e-05 0)
(0.0005973 9.73e-06 0)
(0.0005942 8.707e-06 0)
(0.0005914 7.793e-06 0)
(0.0005889 6.98e-06 0)
(0.0005867 6.265e-06 0)
(0.0005847 5.642e-06 0)
(0.0005829 5.107e-06 0)
(0.0005812 4.66e-06 0)
(0.0005797 4.297e-06 0)
(0.0005784 4.02e-06 0)
(0.0005771 3.825e-06 0)
(0.000576 3.712e-06 0)
(0.0005749 3.675e-06 0)
(0.0005739 3.701e-06 0)
(0.0005729 3.765e-06 0)
(0.000572 3.821e-06 0)
(0.00121 0.0001279 0)
(0.001237 0.0003008 0)
(0.001266 0.0003958 0)
(0.001284 0.0004323 0)
(0.001286 0.0004316 0)
(0.001273 0.0004097 0)
(0.001249 0.0003773 0)
(0.001218 0.0003409 0)
(0.001182 0.0003045 0)
(0.001144 0.0002698 0)
(0.001106 0.0002379 0)
(0.00107 0.0002091 0)
(0.001036 0.0001833 0)
(0.001004 0.0001602 0)
(0.0009751 0.0001396 0)
(0.0009488 0.0001213 0)
(0.0009253 0.0001049 0)
(0.0009045 9.021e-05 0)
(0.0008863 7.692e-05 0)
(0.0008707 6.485e-05 0)
(0.0008574 5.382e-05 0)
(0.0008464 4.365e-05 0)
(0.0008377 3.42e-05 0)
(0.000831 2.534e-05 0)
(0.0008263 1.695e-05 0)
(0.0008236 8.931e-06 0)
(0.0008228 1.178e-06 0)
(0.0008239 -6.388e-06 0)
(0.0008269 -1.385e-05 0)
(0.0008318 -2.126e-05 0)
(0.0008385 -2.87e-05 0)
(0.0008471 -3.622e-05 0)
(0.0008577 -4.386e-05 0)
(0.0008702 -5.166e-05 0)
(0.0008848 -5.966e-05 0)
(0.0009014 -6.788e-05 0)
(0.0009201 -7.633e-05 0)
(0.0009411 -8.502e-05 0)
(0.0009642 -9.393e-05 0)
(0.0009896 -0.000103 0)
(0.001017 -0.0001123 0)
(0.001047 -0.0001216 0)
(0.00108 -0.000131 0)
(0.001115 -0.0001403 0)
(0.001152 -0.0001493 0)
(0.001191 -0.000158 0)
(0.001233 -0.0001661 0)
(0.001276 -0.0001734 0)
(0.001321 -0.0001798 0)
(0.001368 -0.0001849 0)
(0.001415 -0.0001885 0)
(0.001464 -0.0001904 0)
(0.001512 -0.0001903 0)
(0.001561 -0.0001879 0)
(0.001608 -0.0001829 0)
(0.001654 -0.0001754 0)
(0.001698 -0.000165 0)
(0.001738 -0.0001518 0)
(0.001775 -0.0001359 0)
(0.001808 -0.0001174 0)
(0.001835 -9.657e-05 0)
(0.001857 -7.385e-05 0)
(0.001873 -4.971e-05 0)
(0.001883 -2.469e-05 0)
(0.001886 6.04e-07 0)
(0.001883 2.56e-05 0)
(0.001873 4.975e-05 0)
(0.001858 7.259e-05 0)
(0.001836 9.372e-05 0)
(0.00181 0.0001128 0)
(0.001779 0.0001298 0)
(0.001744 0.0001443 0)
(0.001706 0.0001565 0)
(0.001665 0.0001663 0)
(0.001621 0.0001738 0)
(0.001576 0.000179 0)
(0.00153 0.0001821 0)
(0.001484 0.0001833 0)
(0.001437 0.0001827 0)
(0.00139 0.0001805 0)
(0.001345 0.000177 0)
(0.0013 0.0001723 0)
(0.001256 0.0001666 0)
(0.001214 0.0001602 0)
(0.001174 0.0001531 0)
(0.001135 0.0001456 0)
(0.001099 0.0001379 0)
(0.001064 0.00013 0)
(0.001031 0.000122 0)
(0.001001 0.0001142 0)
(0.0009721 0.0001064 0)
(0.0009453 9.889e-05 0)
(0.0009203 9.163e-05 0)
(0.0008972 8.466e-05 0)
(0.0008758 7.803e-05 0)
(0.0008561 7.174e-05 0)
(0.0008379 6.581e-05 0)
(0.0008213 6.025e-05 0)
(0.0008059 5.504e-05 0)
(0.0007919 5.019e-05 0)
(0.0007791 4.569e-05 0)
(0.0007675 4.152e-05 0)
(0.0007568 3.767e-05 0)
(0.0007472 3.412e-05 0)
(0.0007384 3.086e-05 0)
(0.0007305 2.787e-05 0)
(0.0007233 2.514e-05 0)
(0.0007167 2.264e-05 0)
(0.0007109 2.037e-05 0)
(0.0007056 1.83e-05 0)
(0.0007008 1.642e-05 0)
(0.0006965 1.472e-05 0)
(0.0006927 1.319e-05 0)
(0.0006892 1.181e-05 0)
(0.0006861 1.058e-05 0)
(0.0006833 9.481e-06 0)
(0.0006808 8.51e-06 0)
(0.0006785 7.659e-06 0)
(0.0006765 6.925e-06 0)
(0.0006747 6.303e-06 0)
(0.000673 5.789e-06 0)
(0.0006715 5.381e-06 0)
(0.0006702 5.076e-06 0)
(0.0006689 4.87e-06 0)
(0.0006678 4.755e-06 0)
(0.0006667 4.717e-06 0)
(0.0006657 4.731e-06 0)
(0.0006647 4.759e-06 0)
(0.001208 0.0001097 0)
(0.00123 0.0002698 0)
(0.001258 0.0003693 0)
(0.001281 0.0004186 0)
(0.001292 0.0004321 0)
(0.001291 0.0004227 0)
(0.00128 0.0003997 0)
(0.00126 0.0003696 0)
(0.001235 0.0003367 0)
(0.001207 0.0003035 0)
(0.001177 0.0002716 0)
(0.001147 0.0002417 0)
(0.001118 0.0002141 0)
(0.00109 0.0001889 0)
(0.001064 0.000166 0)
(0.00104 0.0001452 0)
(0.001018 0.0001263 0)
(0.000999 0.0001091 0)
(0.0009818 9.337e-05 0)
(0.0009669 7.896e-05 0)
(0.0009543 6.566e-05 0)
(0.0009437 5.331e-05 0)
(0.0009353 4.175e-05 0)
(0.000929 3.085e-05 0)
(0.0009246 2.047e-05 0)
(0.0009222 1.05e-05 0)
(0.0009218 8.298e-07 0)
(0.0009233 -8.638e-06 0)
(0.0009267 -1.799e-05 0)
(0.000932 -2.731e-05 0)
(0.0009393 -3.667e-05 0)
(0.0009486 -4.614e-05 0)
(0.0009598 -5.577e-05 0)
(0.0009732 -6.561e-05 0)
(0.0009886 -7.57e-05 0)
(0.001006 -8.607e-05 0)
(0.001026 -9.672e-05 0)
(0.001048 -0.0001077 0)
(0.001073 -0.0001189 0)
(0.0011 -0.0001304 0)
(0.001129 -0.000142 0)
(0.001161 -0.0001538 0)
(0.001195 -0.0001656 0)
(0.001232 -0.0001772 0)
(0.001271 -0.0001886 0)
(0.001313 -0.0001995 0)
(0.001356 -0.0002098 0)
(0.001402 -0.000219 0)
(0.00145 -0.0002271 0)
(0.0015 -0.0002336 0)
(0.00155 -0.0002382 0)
(0.001602 -0.0002406 0)
(0.001653 -0.0002405 0)
(0.001705 -0.0002375 0)
(0.001756 -0.0002314 0)
(0.001805 -0.0002219 0)
(0.001851 -0.0002089 0)
(0.001895 -0.0001923 0)
(0.001935 -0.0001722 0)
(0.00197 -0.0001488 0)
(0.002 -0.0001224 0)
(0.002023 -9.366e-05 0)
(0.00204 -6.306e-05 0)
(0.002051 -3.135e-05 0)
(0.002054 7.19e-07 0)
(0.002051 3.238e-05 0)
(0.00204 6.295e-05 0)
(0.002023 9.183e-05 0)
(0.002 0.0001185 0)
(0.001972 0.0001427 0)
(0.001939 0.000164 0)
(0.001902 0.0001824 0)
(0.001861 0.0001978 0)
(0.001817 0.0002101 0)
(0.001771 0.0002195 0)
(0.001723 0.0002261 0)
(0.001674 0.0002301 0)
(0.001624 0.0002316 0)
(0.001574 0.0002309 0)
(0.001525 0.0002282 0)
(0.001476 0.0002237 0)
(0.001429 0.0002178 0)
(0.001383 0.0002107 0)
(0.001338 0.0002026 0)
(0.001295 0.0001938 0)
(0.001255 0.0001844 0)
(0.001216 0.0001746 0)
(0.001179 0.0001647 0)
(0.001144 0.0001547 0)
(0.001112 0.0001447 0)
(0.001081 0.000135 0)
(0.001053 0.0001255 0)
(0.001026 0.0001164 0)
(0.001002 0.0001076 0)
(0.0009792 9.92e-05 0)
(0.0009582 9.126e-05 0)
(0.0009389 8.377e-05 0)
(0.0009211 7.674e-05 0)
(0.0009048 7.015e-05 0)
(0.0008899 6.401e-05 0)
(0.0008763 5.831e-05 0)
(0.0008638 5.302e-05 0)
(0.0008524 4.814e-05 0)
(0.0008421 4.364e-05 0)
(0.0008327 3.95e-05 0)
(0.0008242 3.57e-05 0)
(0.0008165 3.222e-05 0)
(0.0008095 2.904e-05 0)
(0.0008032 2.615e-05 0)
(0.0007975 2.351e-05 0)
(0.0007924 2.112e-05 0)
(0.0007878 1.895e-05 0)
(0.0007836 1.699e-05 0)
(0.0007799 1.522e-05 0)
(0.0007765 1.364e-05 0)
(0.0007735 1.223e-05 0)
(0.0007708 1.097e-05 0)
(0.0007684 9.871e-06 0)
(0.0007662 8.914e-06 0)
(0.0007642 8.094e-06 0)
(0.0007625 7.408e-06 0)
(0.0007609 6.849e-06 0)
(0.0007594 6.414e-06 0)
(0.0007581 6.096e-06 0)
(0.0007569 5.886e-06 0)
(0.0007558 5.771e-06 0)
(0.0007548 5.727e-06 0)
(0.0007538 5.724e-06 0)
(0.001206 9.573e-05 0)
(0.001225 0.0002428 0)
(0.001251 0.0003423 0)
(0.001275 0.0003993 0)
(0.001292 0.0004235 0)
(0.001299 0.0004247 0)
(0.001297 0.0004106 0)
(0.001288 0.0003873 0)
(0.001273 0.0003591 0)
(0.001253 0.0003288 0)
(0.001231 0.0002982 0)
(0.001208 0.0002685 0)
(0.001185 0.0002403 0)
(0.001161 0.0002139 0)
(0.001139 0.0001893 0)
(0.001118 0.0001666 0)
(0.001099 0.0001457 0)
(0.001082 0.0001265 0)
(0.001066 0.0001086 0)
(0.001053 9.214e-05 0)
(0.001041 7.676e-05 0)
(0.001031 6.237e-05 0)
(0.001024 4.88e-05 0)
(0.001018 3.592e-05 0)
(0.001014 2.359e-05 0)
(0.001012 1.169e-05 0)
(0.001012 9.925e-08 0)
(0.001014 -1.128e-05 0)
(0.001018 -2.256e-05 0)
(0.001024 -3.382e-05 0)
(0.001031 -4.515e-05 0)
(0.001041 -5.662e-05 0)
(0.001053 -6.83e-05 0)
(0.001067 -8.024e-05 0)
(0.001083 -9.249e-05 0)
(0.001101 -0.0001051 0)
(0.001121 -0.000118 0)
(0.001144 -0.0001313 0)
(0.001169 -0.000145 0)
(0.001197 -0.0001589 0)
(0.001227 -0.000173 0)
(0.00126 -0.0001874 0)
(0.001295 -0.0002017 0)
(0.001333 -0.0002159 0)
(0.001374 -0.0002297 0)
(0.001417 -0.000243 0)
(0.001462 -0.0002555 0)
(0.00151 -0.0002668 0)
(0.001559 -0.0002767 0)
(0.00161 -0.0002847 0)
(0.001663 -0.0002904 0)
(0.001717 -0.0002935 0)
(0.001771 -0.0002935 0)
(0.001825 -0.00029 0)
(0.001878 -0.0002827 0)
(0.001929 -0.0002712 0)
(0.001979 -0.0002555 0)
(0.002025 -0.0002353 0)
(0.002067 -0.0002108 0)
(0.002104 -0.0001823 0)
(0.002135 -0.0001501 0)
(0.00216 -0.0001148 0)
(0.002178 -7.728e-05 0)
(0.002189 -3.838e-05 0)
(0.002193 9.383e-07 0)
(0.002189 3.973e-05 0)
(0.002178 7.713e-05 0)
(0.00216 0.0001124 0)
(0.002136 0.000145 0)
(0.002106 0.0001744 0)
(0.002071 0.0002004 0)
(0.002032 0.0002227 0)
(0.001989 0.0002414 0)
(0.001943 0.0002564 0)
(0.001894 0.0002678 0)
(0.001844 0.0002758 0)
(0.001793 0.0002806 0)
(0.001741 0.0002824 0)
(0.00169 0.0002815 0)
(0.001638 0.0002782 0)
(0.001588 0.0002728 0)
(0.001539 0.0002656 0)
(0.001491 0.000257 0)
(0.001444 0.0002471 0)
(0.0014 0.0002363 0)
(0.001358 0.0002249 0)
(0.001318 0.0002131 0)
(0.00128 0.000201 0)
(0.001244 0.0001888 0)
(0.00121 0.0001768 0)
(0.001179 0.0001649 0)
(0.001149 0.0001534 0)
(0.001122 0.0001423 0)
(0.001097 0.0001316 0)
(0.001073 0.0001214 0)
(0.001051 0.0001117 0)
(0.001031 0.0001026 0)
(0.001013 9.405e-05 0)
(0.0009962 8.602e-05 0)
(0.0009807 7.854e-05 0)
(0.0009665 7.158e-05 0)
(0.0009536 6.513e-05 0)
(0.0009418 5.917e-05 0)
(0.0009311 5.367e-05 0)
(0.0009213 4.861e-05 0)
(0.0009125 4.396e-05 0)
(0.0009044 3.971e-05 0)
(0.0008972 3.582e-05 0)
(0.0008906 3.227e-05 0)
(0.0008846 2.903e-05 0)
(0.0008793 2.609e-05 0)
(0.0008744 2.343e-05 0)
(0.0008701 2.102e-05 0)
(0.0008662 1.884e-05 0)
(0.0008626 1.689e-05 0)
(0.0008595 1.514e-05 0)
(0.0008567 1.359e-05 0)
(0.0008541 1.222e-05 0)
(0.0008518 1.102e-05 0)
(0.0008498 9.988e-06 0)
(0.000848 9.112e-06 0)
(0.0008463 8.387e-06 0)
(0.0008448 7.806e-06 0)
(0.0008435 7.362e-06 0)
(0.0008423 7.045e-06 0)
(0.0008411 6.842e-06 0)
(0.0008401 6.735e-06 0)
(0.0008391 6.699e-06 0)
(0.001205 8.456e-05 0)
(0.001221 0.0002193 0)
(0.001245 0.0003162 0)
(0.001269 0.0003773 0)
(0.001288 0.0004091 0)
(0.001301 0.0004187 0)
(0.001307 0.0004126 0)
(0.001306 0.0003959 0)
(0.001299 0.0003728 0)
(0.001287 0.000346 0)
(0.001273 0.0003177 0)
(0.001256 0.0002891 0)
(0.001238 0.0002612 0)
(0.00122 0.0002344 0)
(0.001202 0.0002089 0)
(0.001185 0.000185 0)
(0.001168 0.0001627 0)
(0.001154 0.0001418 0)
(0.00114 0.0001222 0)
(0.001128 0.0001039 0)
(0.001118 8.671e-05 0)
(0.00111 7.047e-05 0)
(0.001103 5.505e-05 0)
(0.001098 4.032e-05 0)
(0.001095 2.614e-05 0)
(0.001094 1.239e-05 0)
(0.001094 -1.057e-06 0)
(0.001097 -1.431e-05 0)
(0.001101 -2.748e-05 0)
(0.001107 -4.067e-05 0)
(0.001115 -5.395e-05 0)
(0.001125 -6.743e-05 0)
(0.001136 -8.116e-05 0)
(0.00115 -9.522e-05 0)
(0.001167 -0.0001096 0)
(0.001185 -0.0001245 0)
(0.001206 -0.0001397 0)
(0.001229 -0.0001554 0)
(0.001254 -0.0001715 0)
(0.001282 -0.0001879 0)
(0.001312 -0.0002047 0)
(0.001345 -0.0002215 0)
(0.001381 -0.0002385 0)
(0.001419 -0.0002553 0)
(0.00146 -0.0002717 0)
(0.001504 -0.0002875 0)
(0.00155 -0.0003023 0)
(0.001598 -0.0003158 0)
(0.001648 -0.0003276 0)
(0.001701 -0.0003372 0)
(0.001754 -0.0003443 0)
(0.001809 -0.0003481 0)
(0.001865 -0.0003484 0)
(0.00192 -0.0003445 0)
(0.001975 -0.0003361 0)
(0.002028 -0.0003228 0)
(0.002079 -0.0003043 0)
(0.002127 -0.0002805 0)
(0.002171 -0.0002515 0)
(0.00221 -0.0002175 0)
(0.002243 -0.0001791 0)
(0.002269 -0.000137 0)
(0.002288 -9.217e-05 0)
(0.002299 -4.566e-05 0)
(0.002303 1.335e-06 0)
(0.002298 4.764e-05 0)
(0.002286 9.22e-05 0)
(0.002267 0.0001342 0)
(0.002242 0.0001728 0)
(0.002211 0.0002076 0)
(0.002175 0.0002383 0)
(0.002134 0.0002647 0)
(0.00209 0.0002867 0)
(0.002042 0.0003044 0)
(0.001992 0.0003178 0)
(0.001941 0.0003272 0)
(0.001889 0.0003328 0)
(0.001836 0.0003348 0)
(0.001783 0.0003337 0)
(0.001731 0.0003297 0)
(0.001679 0.0003233 0)
(0.001629 0.0003147 0)