/*--------------------------------*- C++ -*----------------------------------*\
  =========                 |
  \\      /  F ield         | OpenFOAM: The Open Source CFD Toolbox
   \\    /   O peration     | Website:  https://openfoam.org
    \\  /    A nd           | Version:  7
     \\/     M anipulation  |
\*---------------------------------------------------------------------------*/
FoamFile
{
    version     2.0;
    format      ascii;
    class       volScalarField;
    location    "2099.99947343408576";
    object      Y.K;
}
// * * * * * * * * * * * * * * * * * * * * * * * * * * * * * * * * * * * * * //

dimensions      [0 0 0 0 0 0 0];

internalField   nonuniform List<scalar> 
4096
(
2.679e-73
2.389e-71
-8.022e-72
2.928e-71
-2.306e-72
-8.365e-72
3.632e-72
2.53e-72
-1.304e-72
-1.724e-73
1.126e-71
-1.206e-70
1.755e-69
-2.4e-68
3.266e-67
-4.192e-66
5.211e-65
-6.424e-64
7.486e-63
-8.775e-62
1.005e-60
-1.125e-59
1.244e-58
-1.344e-57
1.427e-56
-1.471e-55
1.483e-54
-1.412e-53
1.317e-52
-1.217e-51
1.11e-50
-9.976e-50
8.8e-49
-7.595e-48
6.394e-47
-5.232e-46
4.148e-45
-3.175e-44
2.338e-43
-1.654e-42
1.106e-41
-7.084e-41
4.364e-40
-2.524e-39
1.378e-38
-7.08e-38
3.422e-37
-1.553e-36
6.528e-36
-2.551e-35
9.087e-35
-2.66e-34
5.397e-34
1.293e-33
-1.646e-32
1.596e-31
-5.397e-31
3.714e-30
-1.417e-30
4.125e-29
2.7e-28
6.089e-28
3.979e-27
2.931e-26
2.707e-26
3.854e-25
1.171e-24
2.588e-24
1.997e-23
5.651e-23
1.505e-22
1.084e-21
2.904e-21
9.273e-21
1.289e-19
1.936e-18
5.169e-18
1.019e-17
1.788e-17
2.949e-17
4.675e-17
7.201e-17
1.084e-16
1.599e-16
2.319e-16
3.31e-16
4.657e-16
6.463e-16
8.859e-16
1.2e-15
1.609e-15
2.134e-15
2.805e-15
3.654e-15
4.72e-15
6.05e-15
7.699e-15
9.73e-15
1.222e-14
1.525e-14
1.893e-14
2.337e-14
2.871e-14
3.51e-14
4.273e-14
5.179e-14
6.252e-14
7.519e-14
9.01e-14
1.076e-13
1.281e-13
1.52e-13
1.798e-13
2.121e-13
2.495e-13
2.928e-13
3.427e-13
4.001e-13
4.66e-13
5.416e-13
6.279e-13
7.263e-13
8.378e-13
9.634e-13
1.103e-12
1.253e-12
1.402e-12
1.521e-12
-7.956e-71
4.197e-70
-5.374e-70
6.659e-71
3.656e-70
-3.204e-70
1.188e-71
1.731e-70
-3.136e-71
-2.97e-71
6.471e-70
-6.777e-69
9.518e-68
-1.343e-66
1.798e-65
-2.307e-64
2.856e-63
-3.44e-62
4.049e-61
-4.679e-60
5.316e-59
-5.943e-58
6.532e-57
-7.046e-56
7.442e-55
-7.653e-54
7.675e-53
-7.3e-52
6.809e-51
-6.288e-50
5.733e-49
-5.144e-48
4.53e-47
-3.901e-46
3.277e-45
-2.674e-44
2.114e-43
-1.613e-42
1.184e-41
-8.334e-41
5.604e-40
-3.589e-39
2.183e-38
-1.257e-37
6.835e-37
-3.5e-36
1.686e-35
-7.624e-35
3.223e-34
-1.262e-33
4.487e-33
-1.341e-32
3.094e-32
3.944e-32
-6.693e-31
7.362e-30
-2.144e-29
1.79e-28
2.916e-29
2.401e-27
1.363e-26
3.717e-26
2.291e-25
1.456e-24
1.898e-24
1.884e-23
5.81e-23
1.364e-22
9.026e-22
2.576e-21
6.535e-21
4.068e-20
1.075e-19
2.578e-19
1.608e-18
4.198e-18
8.343e-18
1.478e-17
2.454e-17
3.908e-17
6.037e-17
9.103e-17
1.345e-16
1.952e-16
2.789e-16
3.928e-16
5.458e-16
7.491e-16
1.016e-15
1.365e-15
1.813e-15
2.388e-15
3.117e-15
4.035e-15
5.183e-15
6.61e-15
8.374e-15
1.054e-14
1.319e-14
1.641e-14
2.031e-14
2.5e-14
3.064e-14
3.738e-14
4.541e-14
5.495e-14
6.623e-14
7.953e-14
9.518e-14
1.135e-13
1.35e-13
1.6e-13
1.891e-13
2.229e-13
2.621e-13
3.073e-13
3.594e-13
4.193e-13
4.882e-13
5.67e-13
6.571e-13
7.598e-13
8.766e-13
1.009e-12
1.157e-12
1.321e-12
1.495e-12
1.662e-12
1.785e-69
-1.243e-68
3.119e-68
-4.174e-68
2.906e-68
-4.939e-69
-9.302e-69
8.394e-69
1.333e-69
-2.315e-69
3.652e-68
-3.616e-67
4.976e-66
-6.964e-65
9.245e-64
-1.175e-62
1.441e-61
-1.72e-60
2.01e-59
-2.307e-58
2.605e-57
-2.896e-56
3.167e-55
-3.4e-54
3.575e-53
-3.664e-52
3.658e-51
-3.477e-50
3.245e-49
-2.997e-48
2.732e-47
-2.45e-46
2.155e-45
-1.853e-44
1.554e-43
-1.266e-42
9.986e-42
-7.604e-41
5.57e-40
-3.912e-39
2.625e-38
-1.678e-37
1.019e-36
-5.855e-36
3.18e-35
-1.626e-34
7.821e-34
-3.533e-33
1.494e-32
-5.876e-32
2.118e-31
-6.583e-31
1.792e-30
1.75e-31
-1.971e-29
3.141e-28
-6.485e-28
8.255e-27
8.92e-27
1.465e-25
7.447e-25
2.205e-24
1.333e-23
6.978e-23
1.271e-22
9.176e-22
2.791e-21
6.898e-21
3.814e-20
1.067e-19
2.528e-19
1.193e-18
2.983e-18
5.763e-18
1.02e-17
1.713e-17
2.765e-17
4.325e-17
6.586e-17
9.802e-17
1.43e-16
2.049e-16
2.889e-16
4.015e-16
5.507e-16
7.463e-16
1e-15
1.328e-15
1.746e-15
2.276e-15
2.943e-15
3.779e-15
4.819e-15
6.106e-15
7.692e-15
9.634e-15
1.2e-14
1.488e-14
1.836e-14
2.256e-14
2.76e-14
3.362e-14
4.081e-14
4.934e-14
5.946e-14
7.14e-14
8.547e-14
1.02e-13
1.214e-13
1.44e-13
1.703e-13
2.01e-13
2.365e-13
2.777e-13
3.252e-13
3.8e-13
4.429e-13
5.152e-13
5.98e-13
6.926e-13
8.006e-13
9.235e-13
1.063e-12
1.221e-12
1.399e-12
1.6e-12
1.824e-12
2.079e-12
-2.933e-68
2.331e-67
-8.199e-67
1.764e-66
-2.466e-66
2.273e-66
-1.284e-66
2.811e-67
1.402e-67
-1.281e-67
1.981e-66
-1.818e-65
2.415e-64
-3.331e-63
4.352e-62
-5.441e-61
6.575e-60
-7.74e-59
8.932e-58
-1.014e-56
1.135e-55
-1.251e-54
1.358e-53
-1.449e-52
1.516e-51
-1.547e-50
1.538e-49
-1.462e-48
1.367e-47
-1.264e-46
1.152e-45
-1.033e-44
9.087e-44
-7.811e-43
6.544e-42
-5.326e-41
4.198e-40
-3.194e-39
2.338e-38
-1.641e-37
1.101e-36
-7.037e-36
4.272e-35
-2.456e-34
1.335e-33
-6.828e-33
3.288e-32
-1.487e-31
6.309e-31
-2.5e-30
9.193e-30
-3.003e-29
9.089e-29
-6.981e-29
-1.785e-28
1.201e-26
-4.606e-27
3.446e-25
7.714e-25
8.793e-24
4.019e-23
1.26e-22
7.416e-22
3.031e-21
7.488e-21
4.06e-20
1.183e-19
2.96e-19
1.231e-18
3.167e-18
6.356e-18
1.16e-17
1.998e-17
3.293e-17
5.233e-17
8.067e-17
1.211e-16
1.775e-16
2.546e-16
3.583e-16
4.955e-16
6.745e-16
9.053e-16
1.2e-15
1.572e-15
2.038e-15
2.619e-15
3.338e-15
4.223e-15
5.308e-15
6.632e-15
8.241e-15
1.019e-14
1.255e-14
1.539e-14
1.879e-14
2.287e-14
2.775e-14
3.356e-14
4.045e-14
4.863e-14
5.83e-14
6.971e-14
8.313e-14
9.889e-14
1.173e-13
1.389e-13
1.641e-13
1.934e-13
2.274e-13
2.667e-13
3.123e-13
3.649e-13
4.254e-13
4.95e-13
5.748e-13
6.662e-13
7.707e-13
8.899e-13
1.026e-12
1.18e-12
1.355e-12
1.552e-12
1.776e-12
2.028e-12
2.311e-12
2.633e-12
3.044e-12
4.172e-67
-3.603e-66
1.568e-65
-4.508e-65
9.033e-65
-1.308e-64
1.385e-64
-1.047e-64
5.181e-65
-1.418e-65
1.058e-64
-8.628e-64
1.08e-62
-1.452e-61
1.846e-60
-2.247e-59
2.649e-58
-3.052e-57
3.456e-56
-3.861e-55
4.262e-54
-4.646e-53
4.996e-52
-5.288e-51
5.494e-50
-5.582e-49
5.53e-48
-5.267e-47
4.938e-46
-4.574e-45
4.178e-44
-3.751e-43
3.301e-42
-2.84e-41
2.381e-40
-1.939e-39
1.529e-38
-1.165e-37
8.534e-37
-5.999e-36
4.032e-35
-2.583e-34
1.573e-33
-9.072e-33
4.951e-32
-2.539e-31
1.227e-30
-5.569e-30
2.376e-29
-9.504e-29
3.569e-28
-1.221e-27
4.103e-27
-5.143e-27
1.505e-26
4.058e-25
7.921e-25
1.217e-23
6.394e-23
4.982e-22
2.092e-21
6.886e-21
3.656e-20
1.282e-19
3.411e-19
1.375e-18
3.759e-18
8.064e-18
1.565e-17
2.849e-17
4.933e-17
8.185e-17
1.308e-16
2.022e-16
3.03e-16
4.418e-16
6.28e-16
8.726e-16
1.188e-15
1.587e-15
2.086e-15
2.701e-15
3.453e-15
4.364e-15
5.461e-15
6.775e-15
8.342e-15
1.021e-14
1.242e-14
1.504e-14
1.814e-14
2.18e-14
2.613e-14
3.122e-14
3.723e-14
4.429e-14
5.26e-14
6.235e-14
7.378e-14
8.717e-14
1.028e-13
1.211e-13
1.425e-13
1.673e-13
1.962e-13
2.297e-13
2.686e-13
3.136e-13
3.655e-13
4.254e-13
4.943e-13
5.735e-13
6.644e-13
7.684e-13
8.873e-13
1.023e-12
1.178e-12
1.353e-12
1.553e-12
1.779e-12
2.035e-12
2.323e-12
2.649e-12
3.014e-12
3.424e-12
3.884e-12
4.405e-12
5.121e-12
-5.466e-66
4.983e-65
-2.514e-64
8.88e-64
-2.288e-63
4.451e-63
-6.666e-63
7.692e-63
-6.669e-63
4.007e-63
3.442e-63
-3.766e-62
4.377e-61
-5.632e-60
6.849e-59
-7.994e-58
9.071e-57
-1.011e-55
1.114e-54
-1.217e-53
1.319e-52
-1.417e-51
1.506e-50
-1.579e-49
1.63e-48
-1.649e-47
1.63e-46
-1.559e-45
1.47e-44
-1.367e-43
1.253e-42
-1.129e-41
9.961e-41
-8.592e-40
7.223e-39
-5.899e-38
4.668e-37
-3.567e-36
2.624e-35
-1.853e-34
1.252e-33
-8.07e-33
4.947e-32
-2.874e-31
1.583e-30
-8.163e-30
3.974e-29
-1.815e-28
7.8e-28
-3.146e-27
1.202e-26
-4.215e-26
1.575e-25
-1.404e-25
1.28e-24
1.166e-23
8.347e-23
6.891e-22
3.62e-21
2.51e-20
9.632e-20
3.177e-19
1.368e-18
4.099e-18
9.768e-18
2.096e-17
4.192e-17
7.907e-17
1.417e-16
2.422e-16
3.966e-16
6.24e-16
9.464e-16
1.388e-15
1.974e-15
2.729e-15
3.678e-15
4.846e-15
6.256e-15
7.932e-15
9.899e-15
1.218e-14
1.482e-14
1.785e-14
2.132e-14
2.529e-14
2.983e-14
3.502e-14
4.097e-14
4.779e-14
5.563e-14
6.465e-14
7.505e-14
8.705e-14
1.009e-13
1.169e-13
1.355e-13
1.569e-13
1.817e-13
2.103e-13
2.434e-13
2.817e-13
3.258e-13
3.767e-13
4.354e-13
5.029e-13
5.805e-13
6.696e-13
7.718e-13
8.889e-13
1.023e-12
1.175e-12
1.35e-12
1.548e-12
1.774e-12
2.03e-12
2.32e-12
2.648e-12
3.018e-12
3.436e-12
3.907e-12
4.435e-12
5.028e-12
5.691e-12
6.432e-12
7.259e-12
8.184e-12
9.523e-12
6.796e-65
-6.423e-64
3.608e-63
-1.489e-62
4.651e-62
-1.132e-61
2.189e-61
-3.378e-61
4.117e-61
-3.852e-61
3.254e-61
-1.454e-60
1.559e-59
-1.858e-58
2.102e-57
-2.292e-56
2.45e-55
-2.6e-54
2.757e-53
-2.926e-52
3.105e-51
-3.285e-50
3.454e-49
-3.597e-48
3.697e-47
-3.738e-46
3.701e-45
-3.579e-44
3.407e-43
-3.194e-42
2.947e-41
-2.672e-40
2.373e-39
-2.06e-38
1.742e-37
-1.432e-36
1.141e-35
-8.789e-35
6.522e-34
-4.65e-33
3.175e-32
-2.07e-31
1.286e-30
-7.577e-30
4.244e-29
-2.209e-28
1.09e-27
-5.028e-27
2.184e-26
-8.86e-26
3.426e-25
-1.184e-24
4.717e-24
2.32e-24
7.083e-23
6.834e-22
4.999e-21
3.517e-20
1.844e-19
9.557e-19
3.322e-18
9.228e-18
2.299e-17
5.295e-17
1.139e-16
2.302e-16
4.387e-16
7.912e-16
1.355e-15
2.212e-15
3.452e-15
5.168e-15
7.447e-15
1.036e-14
1.397e-14
1.831e-14
2.337e-14
2.917e-14
3.567e-14
4.287e-14
5.076e-14
5.934e-14
6.866e-14
7.877e-14
8.975e-14
1.017e-13
1.149e-13
1.294e-13
1.456e-13
1.635e-13
1.837e-13
2.065e-13
2.322e-13
2.614e-13
2.946e-13
3.324e-13
3.757e-13
4.251e-13
4.816e-13
5.463e-13
6.204e-13
7.052e-13
8.022e-13
9.132e-13
1.04e-12
1.185e-12
1.35e-12
1.539e-12
1.754e-12
1.999e-12
2.276e-12
2.592e-12
2.95e-12
3.355e-12
3.813e-12
4.33e-12
4.913e-12
5.569e-12
6.307e-12
7.135e-12
8.062e-12
9.1e-12
1.026e-11
1.155e-11
1.298e-11
1.458e-11
1.634e-11
1.898e-11
-8.13e-64
7.875e-63
-4.795e-62
2.235e-61
-8.149e-61
2.379e-60
-5.652e-60
1.1e-59
-1.738e-59
2.137e-59
-1.629e-59
-3.696e-59
4.514e-58
-4.705e-57
4.66e-56
-4.488e-55
4.322e-54
-4.243e-53
4.272e-52
-4.403e-51
4.617e-50
-4.881e-49
5.161e-48
-5.422e-47
5.633e-46
-5.769e-45
5.788e-44
-5.758e-43
5.61e-42
-5.332e-41
4.984e-40
-4.577e-39
4.117e-38
-3.618e-37
3.101e-36
-2.582e-35
2.089e-34
-1.635e-33
1.235e-32
-8.972e-32
6.254e-31
-4.172e-30
2.656e-29
-1.608e-28
9.305e-28
-4.892e-27
2.471e-26
-1.154e-25
5.119e-25
-2.091e-24
8.252e-24
-2.598e-23
1.007e-22
5.462e-22
3.901e-21
3.937e-20
2.424e-19
1.396e-18
5.41e-18
1.692e-17
4.74e-17
1.222e-16
2.924e-16
6.514e-16
1.356e-15
2.645e-15
4.85e-15
8.391e-15
1.375e-14
2.141e-14
3.181e-14
4.525e-14
6.187e-14
8.159e-14
1.042e-13
1.291e-13
1.56e-13
1.842e-13
2.132e-13
2.428e-13
2.726e-13
3.026e-13
3.33e-13
3.639e-13
3.957e-13
4.288e-13
4.639e-13
5.015e-13
5.424e-13
5.873e-13
6.37e-13
6.924e-13
7.546e-13
8.247e-13
9.04e-13
9.939e-13
1.096e-12
1.212e-12
1.344e-12
1.494e-12
1.665e-12
1.859e-12
2.08e-12
2.332e-12
2.617e-12
2.942e-12
3.309e-12
3.727e-12
4.199e-12
4.734e-12
5.338e-12
6.021e-12
6.79e-12
7.657e-12
8.633e-12
9.729e-12
1.096e-11
1.234e-11
1.388e-11
1.56e-11
1.752e-11
1.966e-11
2.203e-11
2.467e-11
2.759e-11
3.082e-11
3.436e-11
3.978e-11
9.406e-63
-9.266e-62
6.004e-61
-3.087e-60
1.279e-59
-4.351e-59
1.232e-58
-2.92e-58
5.765e-58
-9.258e-58
1.188e-57
-1.642e-57
8.315e-57
-6.109e-56
3.892e-55
-1.946e-54
6.944e-54
-1.286e-53
1.008e-52
-4.512e-51
1.03e-49
-1.721e-48
2.441e-47
-3.128e-46
3.737e-45
-4.25e-44
4.624e-43
-4.868e-42
4.943e-41
-4.904e-40
4.762e-39
-4.529e-38
4.205e-37
-3.812e-36
3.374e-35
-2.896e-34
2.442e-33
-1.987e-32
1.568e-31
-1.188e-30
8.648e-30
-6.037e-29
4.033e-28
-2.57e-27
1.572e-26
-8.455e-26
4.499e-25
-2.106e-24
9.781e-24
-4.029e-23
1.724e-22
-3.22e-22
3.294e-21
2.963e-20
2.322e-19
1.563e-18
6.932e-18
2.5e-17
8.083e-17
2.395e-16
6.54e-16
1.65e-15
3.853e-15
8.348e-15
1.683e-14
3.165e-14
5.576e-14
9.237e-14
1.445e-13
2.142e-13
3.023e-13
4.08e-13
5.283e-13
6.593e-13
7.958e-13
9.325e-13
1.065e-12
1.189e-12
1.302e-12
1.404e-12
1.495e-12
1.577e-12
1.651e-12
1.719e-12
1.786e-12
1.852e-12
1.921e-12
1.995e-12
2.077e-12
2.169e-12
2.274e-12
2.393e-12
2.529e-12
2.686e-12
2.866e-12
3.072e-12
3.308e-12
3.577e-12
3.884e-12
4.234e-12
4.632e-12
5.084e-12
5.598e-12
6.179e-12
6.838e-12
7.583e-12
8.425e-12
9.375e-12
1.045e-11
1.165e-11
1.301e-11
1.454e-11
1.625e-11
1.817e-11
2.032e-11
2.273e-11
2.541e-11
2.841e-11
3.175e-11
3.546e-11
3.958e-11
4.415e-11
4.921e-11
5.48e-11
6.096e-11
6.775e-11
7.511e-11
8.659e-11
-1.052e-61
1.048e-60
-7.133e-60
3.977e-59
-1.836e-58
7.127e-58
-2.352e-57
6.638e-57
-1.594e-56
3.168e-56
-4.771e-56
4.658e-56
-4.723e-56
1.328e-54
-1.787e-53
2.02e-52
-2.006e-51
1.854e-50
-1.635e-49
1.388e-48
-1.142e-47
9.118e-47
-7.044e-46
5.23e-45
-3.689e-44
2.372e-43
-1.384e-42
5.695e-42
-2.225e-42
-3.98e-40
6.648e-39
-8.648e-38
9.613e-37
-9.967e-36
9.927e-35
-9.311e-34
9.025e-33
-8.038e-32
7.141e-31
-5.809e-30
4.48e-29
-3.292e-28
2.305e-27
-1.538e-26
9.7e-26
-5.774e-25
3.351e-24
-1.821e-23
9.909e-23
-4.392e-22
3.025e-21
3.132e-21
1.346e-19
1.22e-18
6.432e-18
2.75e-17
1.051e-16
3.664e-16
1.171e-15
3.432e-15
9.238e-15
2.286e-14
5.211e-14
1.096e-13
2.135e-13
3.862e-13
6.52e-13
1.031e-12
1.536e-12
2.164e-12
2.895e-12
3.699e-12
4.529e-12
5.342e-12
6.09e-12
6.735e-12
7.265e-12
7.661e-12
7.94e-12
8.112e-12
8.214e-12
8.223e-12
8.201e-12
8.157e-12
8.102e-12
8.052e-12
8.011e-12
8.014e-12
8.042e-12
8.109e-12
8.224e-12
8.388e-12
8.613e-12
8.901e-12
9.256e-12
9.684e-12
1.019e-11
1.079e-11
1.148e-11
1.228e-11
1.32e-11
1.425e-11
1.545e-11
1.681e-11
1.835e-11
2.008e-11
2.204e-11
2.425e-11
2.673e-11
2.951e-11
3.263e-11
3.612e-11
4.003e-11
4.439e-11
4.925e-11
5.467e-11
6.069e-11
6.739e-11
7.481e-11
8.303e-11
9.212e-11
1.022e-10
1.132e-10
1.254e-10
1.388e-10
1.535e-10
1.693e-10
1.942e-10
1.13e-60
-1.135e-59
8.033e-59
-4.796e-58
2.432e-57
-1.06e-56
4.014e-56
-1.328e-55
3.827e-55
-9.436e-55
1.864e-54
-1.416e-54
-8.23e-54
8.755e-53
-6.882e-52
5.825e-51
-4.891e-50
4.047e-49
-3.309e-48
2.663e-47
-2.133e-46
1.703e-45
-1.347e-44
1.058e-43
-8.253e-43
6.28e-42
-5.109e-41
3.835e-40
-3.01e-39
2.387e-38
-2.051e-37
1.69e-36
-1.455e-35
1.268e-34
-1.041e-33
8.288e-33
-6.165e-32
4.598e-31
-3.238e-30
2.232e-29
-1.459e-28
8.99e-28
-5.171e-27
2.658e-26
-1.763e-25
5.015e-25
-1.122e-24
-1.835e-24
1.493e-22
3.927e-22
5.11e-20
4.368e-19
3.674e-18
2.071e-17
9.653e-17
4.045e-16
1.545e-15
5.388e-15
1.714e-14
4.978e-14
1.32e-13
3.199e-13
7.1e-13
1.447e-12
2.713e-12
4.709e-12
7.595e-12
1.144e-11
1.619e-11
2.161e-11
2.735e-11
3.304e-11
3.816e-11
4.254e-11
4.567e-11
4.761e-11
4.854e-11
4.828e-11
4.745e-11
4.606e-11
4.428e-11
4.229e-11
4.023e-11
3.823e-11
3.637e-11
3.468e-11
3.322e-11
3.199e-11
3.1e-11
3.025e-11
2.975e-11
2.944e-11
2.947e-11
2.968e-11
3.01e-11
3.078e-11
3.171e-11
3.29e-11
3.437e-11
3.612e-11
3.818e-11
4.058e-11
4.334e-11
4.65e-11
5.009e-11
5.416e-11
5.876e-11
6.393e-11
6.974e-11
7.625e-11
8.352e-11
9.165e-11
1.007e-10
1.108e-10
1.22e-10
1.344e-10
1.482e-10
1.634e-10
1.803e-10
1.989e-10
2.193e-10
2.419e-10
2.666e-10
2.937e-10
3.234e-10
3.559e-10
3.904e-10
4.456e-10
-1.156e-59
1.165e-58
-8.514e-58
5.387e-57
-2.965e-56
1.434e-55
-6.149e-55
2.353e-54
-8.04e-54
2.437e-53
-6.422e-53
1.419e-52
-2.556e-52
8.297e-52
-4.523e-51
5.281e-50
-4.559e-49
3.502e-48
-2.656e-47
1.905e-46
-1.454e-45
1.175e-44
-9.232e-44
7.261e-43
-5.542e-42
3.649e-41
-3.348e-40
1.431e-39
-2.621e-39
-4.134e-38
3.207e-37
-5.356e-36
5.392e-35
-4.128e-34
3.108e-33
-2.05e-32
1.18e-31
-4.237e-31
-5.786e-31
3.163e-29
-4.214e-28
4.247e-27
-3.693e-26
2.908e-25
-2.139e-24
1.444e-23
-9.145e-23
6.636e-22
-1.435e-21
1.316e-19
1.544e-18
1.051e-17
5.929e-17
3.014e-16
1.397e-15
5.897e-15
2.265e-14
7.902e-14
2.502e-13
7.187e-13
1.874e-12
4.438e-12
9.566e-12
1.882e-11
3.39e-11
5.623e-11
8.638e-11
1.236e-10
1.656e-10
2.089e-10
2.498e-10
2.849e-10
3.096e-10
3.264e-10
3.274e-10
3.226e-10
3.113e-10
2.945e-10
2.745e-10
2.529e-10
2.313e-10
2.107e-10
1.915e-10
1.744e-10
1.592e-10
1.461e-10
1.349e-10
1.255e-10
1.177e-10
1.114e-10
1.065e-10
1.027e-10
1e-10
9.832e-11
9.753e-11
9.782e-11
9.878e-11
1.006e-10
1.032e-10
1.067e-10
1.111e-10
1.164e-10
1.226e-10
1.298e-10
1.382e-10
1.477e-10
1.585e-10
1.707e-10
1.843e-10
1.997e-10
2.168e-10
2.359e-10
2.571e-10
2.807e-10
3.068e-10
3.357e-10
3.677e-10
4.029e-10
4.417e-10
4.843e-10
5.311e-10
5.825e-10
6.386e-10
7e-10
7.668e-10
8.399e-10
9.169e-10
1.041e-09
1.107e-58
-1.116e-57
8.366e-57
-5.564e-56
3.292e-55
-1.748e-54
8.396e-54
-3.671e-53
1.465e-52
-5.31e-52
1.716e-51
-4.673e-51
8.879e-51
1.245e-50
-9.781e-50
8.464e-49
-2.705e-48
-7.412e-48
1.939e-46
-1.894e-45
1.355e-44
-7.181e-44
1.631e-43
2.352e-42
-4.756e-41
5.848e-40
-5.883e-39
5.062e-38
-3.988e-37
2.605e-36
-3.076e-35
1.225e-34
-5.518e-34
1.392e-33
1.137e-32
-2.485e-31
2.993e-30
-2.957e-29
2.611e-28
-2.13e-27
1.632e-26
-1.183e-25
8.18e-25
-5.387e-24
3.397e-23
-2.02e-22
1.291e-21
-3.99e-21
2.349e-19
3.026e-18
2.267e-17
1.426e-16
8.104e-16
4.195e-15
1.975e-14
8.433e-14
3.258e-13
1.136e-12
3.576e-12
1.015e-11
2.595e-11
5.991e-11
1.251e-10
2.368e-10
4.081e-10
6.448e-10
9.401e-10
1.273e-09
1.612e-09
1.917e-09
2.164e-09
2.322e-09
2.367e-09
2.329e-09
2.231e-09
2.081e-09
1.898e-09
1.702e-09
1.506e-09
1.321e-09
1.152e-09
1.003e-09
8.742e-10
7.643e-10
6.718e-10
5.948e-10
5.31e-10
4.786e-10
4.359e-10
4.012e-10
3.735e-10
3.515e-10
3.345e-10
3.219e-10
3.13e-10
3.075e-10
3.05e-10
3.059e-10
3.09e-10
3.147e-10
3.23e-10
3.339e-10
3.474e-10
3.636e-10
3.826e-10
4.046e-10
4.298e-10
4.584e-10
4.907e-10
5.269e-10
5.674e-10
6.126e-10
6.627e-10
7.182e-10
7.797e-10
8.474e-10
9.221e-10
1.004e-09
1.094e-09
1.193e-09
1.302e-09
1.42e-09
1.549e-09
1.689e-09
1.842e-09
2.008e-09
2.181e-09
2.463e-09
-9.685e-58
9.728e-57
-7.442e-56
5.164e-55
-3.256e-54
1.88e-53
-1.001e-52
4.956e-52
-2.291e-51
9.918e-51
-4.003e-50
1.481e-49
-4.727e-49
1.092e-48
4.613e-48
-4.854e-47
4.485e-46
-3.63e-45
2.721e-44
-1.959e-43
1.373e-42
-9.396e-42
6.276e-41
-4.069e-40
2.526e-39
-1.449e-38
7.383e-38
-2.867e-37
1.045e-37
1.437e-35
-2.176e-34
2.394e-33
-2.3e-32
2.037e-31
-1.701e-30
1.356e-29
-1.038e-28
7.652e-28
-5.45e-27
3.753e-26
-2.498e-25
1.611e-24
-9.991e-24
6.038e-23
-3.453e-22
2.09e-21
-7.533e-21
3.481e-19
4.946e-18
4.097e-17
2.88e-16
1.837e-15
1.068e-14
5.639e-14
2.697e-13
1.164e-12
4.516e-12
1.574e-11
4.914e-11
1.374e-10
3.44e-10
7.719e-10
1.555e-09
2.823e-09
4.635e-09
6.949e-09
9.582e-09
1.224e-08
1.461e-08
1.635e-08
1.744e-08
1.732e-08
1.672e-08
1.561e-08
1.413e-08
1.246e-08
1.078e-08
9.179e-09
7.734e-09
6.475e-09
5.404e-09
4.513e-09
3.781e-09
3.186e-09
2.706e-09
2.319e-09
2.008e-09
1.76e-09
1.56e-09
1.401e-09
1.274e-09
1.174e-09
1.094e-09
1.033e-09
9.869e-10
9.533e-10
9.315e-10
9.164e-10
9.164e-10
9.212e-10
9.335e-10
9.533e-10
9.807e-10
1.016e-09
1.058e-09
1.108e-09
1.166e-09
1.233e-09
1.309e-09
1.395e-09
1.49e-09
1.597e-09
1.716e-09
1.847e-09
1.992e-09
2.152e-09
2.328e-09
2.52e-09
2.732e-09
2.962e-09
3.214e-09
3.488e-09
3.787e-09
4.11e-09
4.461e-09
4.842e-09
5.237e-09
5.881e-09
7.466e-57
-7.449e-56
5.781e-55
-4.154e-54
2.764e-53
-1.715e-52
9.992e-52
-5.508e-51
2.894e-50
-1.461e-49
7.13e-49
-3.394e-48
1.591e-47
-7.45e-47
3.559e-46
-1.779e-45
9.521e-45
-5.501e-44
3.406e-43
-2.208e-42
1.479e-41
-1.015e-40
7.135e-40
-5.194e-39
3.944e-38
-3.147e-37
2.543e-36
-2.04e-35
1.619e-34
-1.267e-33
9.737e-33
-7.35e-32
5.442e-31
-3.95e-30
2.81e-29
-1.957e-28
1.333e-27
-8.886e-27
5.785e-26
-3.676e-25
2.279e-24
-1.372e-23
8.142e-23
-4.577e-22
2.717e-21
-1.051e-20
4.206e-19
6.602e-18
6.057e-17
4.769e-16
3.42e-15
2.24e-14
1.334e-13
7.185e-13
3.487e-12
1.519e-11
5.917e-11
2.056e-10
6.359e-10
1.749e-09
4.273e-09
9.287e-09
1.799e-08
3.117e-08
4.855e-08
6.876e-08
8.932e-08
1.075e-07
1.205e-07
1.268e-07
1.248e-07
1.185e-07
1.081e-07
9.531e-08
8.163e-08
6.831e-08
5.617e-08
4.56e-08
3.672e-08
2.945e-08
2.361e-08
1.899e-08
1.536e-08
1.252e-08
1.031e-08
8.589e-09
7.243e-09
6.191e-09
5.365e-09
4.715e-09
4.202e-09
3.799e-09
3.481e-09
3.233e-09
3.041e-09
2.895e-09
2.79e-09
2.717e-09
2.672e-09
2.657e-09
2.667e-09
2.696e-09
2.746e-09
2.817e-09
2.909e-09
3.021e-09
3.154e-09
3.309e-09
3.486e-09
3.687e-09
3.913e-09
4.165e-09
4.446e-09
4.757e-09
5.1e-09
5.478e-09
5.892e-09
6.345e-09
6.841e-09
7.381e-09
7.969e-09
8.609e-09
9.302e-09
1.005e-08
1.086e-08
1.174e-08
1.265e-08
1.412e-08
-4.834e-56
4.782e-55
-3.746e-54
2.764e-53
-1.92e-52
1.261e-51
-7.882e-51
4.722e-50
-2.728e-49
1.53e-48
-8.373e-48
4.483e-47
-2.351e-46
1.207e-45
-6.058e-45
2.961e-44
-1.42e-43
6.774e-43
-3.295e-42
1.786e-41
-1.133e-40
8.499e-40
-7.179e-39
6.268e-38
-5.454e-37
4.677e-36
-3.748e-35
2.875e-34
-2.141e-33
1.558e-32
-1.11e-31
7.768e-31
-5.345e-30
3.617e-29
-2.408e-28
1.576e-27
-1.015e-26
6.415e-26
-3.982e-25
2.424e-24
-1.444e-23
8.491e-23
-4.695e-22
2.777e-21
-1.113e-20
4.085e-19
7.078e-18
7.189e-17
6.338e-16
5.115e-15
3.779e-14
2.543e-13
1.549e-12
8.503e-12
4.182e-11
1.836e-10
7.163e-10
2.477e-09
7.569e-09
2.041e-08
4.851e-08
1.017e-07
1.885e-07
3.103e-07
4.562e-07
6.077e-07
7.42e-07
8.391e-07
8.788e-07
8.594e-07
8.054e-07
7.224e-07
6.232e-07
5.205e-07
4.235e-07
3.376e-07
2.651e-07
2.061e-07
1.594e-07
1.23e-07
9.522e-08
7.409e-08
5.812e-08
4.606e-08
3.694e-08
3.003e-08
2.476e-08
2.073e-08
1.762e-08
1.521e-08
1.333e-08
1.186e-08
1.071e-08
9.816e-09
9.116e-09
8.577e-09
8.17e-09
7.873e-09
7.669e-09
7.545e-09
7.497e-09
7.523e-09
7.6e-09
7.733e-09
7.923e-09
8.167e-09
8.466e-09
8.821e-09
9.232e-09
9.702e-09
1.023e-08
1.083e-08
1.149e-08
1.223e-08
1.304e-08
1.393e-08
1.491e-08
1.597e-08
1.714e-08
1.841e-08
1.978e-08
2.127e-08
2.289e-08
2.463e-08
2.651e-08
2.853e-08
3.061e-08
3.402e-08
2.515e-55
-2.465e-54
1.942e-53
-1.46e-52
1.045e-51
-7.152e-51
4.706e-50
-2.999e-49
1.868e-48
-1.147e-47
7.026e-47
-4.325e-46
2.692e-45
-1.698e-44
1.086e-43
-7.034e-43
4.541e-42
-2.912e-41
1.889e-40
-1.209e-39
7.769e-39
-4.993e-38
3.175e-37
-2.022e-36
1.282e-35
-8.163e-35
5.204e-34
-3.322e-33
2.122e-32
-1.354e-31
8.628e-31
-5.479e-30
3.463e-29
-2.176e-28
1.357e-27
-8.387e-27
5.13e-26
-3.101e-25
1.85e-24
-1.087e-23
6.306e-23
-3.513e-22
2.202e-21
-9.075e-21
3.147e-19
6.012e-18
6.748e-17
6.646e-16
6.024e-15
5.017e-14
3.815e-13
2.633e-12
1.638e-11
9.137e-11
4.543e-10
2.004e-09
7.808e-09
2.678e-08
8.056e-08
2.121e-07
4.881e-07
9.823e-07
1.734e-06
2.697e-06
3.724e-06
4.652e-06
5.339e-06
5.618e-06
5.478e-06
5.096e-06
4.517e-06
3.836e-06
3.143e-06
2.501e-06
1.944e-06
1.485e-06
1.12e-06
8.39e-07
6.266e-07
4.685e-07
3.519e-07
2.663e-07
2.037e-07
1.577e-07
1.238e-07
9.866e-08
7.989e-08
6.576e-08
5.504e-08
4.684e-08
4.052e-08
3.562e-08
3.181e-08
2.883e-08
2.651e-08
2.47e-08
2.332e-08
2.228e-08
2.153e-08
2.102e-08
2.072e-08
2.063e-08
2.071e-08
2.094e-08
2.131e-08
2.183e-08
2.25e-08
2.33e-08
2.425e-08
2.534e-08
2.659e-08
2.799e-08
2.955e-08
3.128e-08
3.319e-08
3.529e-08
3.759e-08
4.01e-08
4.284e-08
4.581e-08
4.903e-08
5.251e-08
5.626e-08
6.031e-08
6.466e-08
6.934e-08
7.413e-08
8.197e-08
-1.005e-54
9.971e-54
-7.934e-53
6.039e-52
-4.384e-51
3.037e-50
-2.006e-49
1.261e-48
-7.514e-48
4.219e-47
-2.205e-46
1.045e-45
-4.208e-45
1.151e-44
3.542e-44
-8.09e-43
6.824e-42
-5.542e-41
4.03e-40
-2.708e-39
1.695e-38
-9.894e-38
5.319e-37
-2.65e-36
1.011e-35
-1.17e-35
-2.452e-34
3.427e-33
-3.262e-32
2.689e-31
-2.05e-30
1.485e-29
-1.037e-28
7.035e-28
-4.659e-27
3.022e-26
-1.923e-25
1.202e-24
-7.384e-24
4.464e-23
-2.635e-22
1.61e-21
-5.88e-21
1.879e-19
3.994e-18
4.951e-17
5.429e-16
5.506e-15
5.152e-14
4.419e-13
3.45e-12
2.434e-11
1.541e-10
8.705e-10
4.357e-09
1.922e-08
7.441e-08
2.517e-07
7.408e-07
1.892e-06
4.19e-06
8.049e-06
1.346e-05
1.967e-05
2.541e-05
2.981e-05
3.19e-05
3.113e-05
2.892e-05
2.551e-05
2.148e-05
1.739e-05
1.364e-05
1.042e-05
7.801e-06
5.753e-06
4.202e-06
3.053e-06
2.217e-06
1.616e-06
1.185e-06
8.779e-07
6.582e-07
5.005e-07
3.865e-07
3.035e-07
2.425e-07
1.971e-07
1.631e-07
1.374e-07
1.177e-07
1.026e-07
9.083e-08
8.169e-08
7.456e-08
6.9e-08
6.471e-08
6.143e-08
5.9e-08
5.727e-08
5.617e-08
5.545e-08
5.549e-08
5.581e-08
5.651e-08
5.759e-08
5.905e-08
6.086e-08
6.303e-08
6.556e-08
6.846e-08
7.174e-08
7.54e-08
7.947e-08
8.397e-08
8.891e-08
9.431e-08
1.002e-07
1.066e-07
1.135e-07
1.211e-07
1.292e-07
1.379e-07
1.473e-07
1.573e-07
1.681e-07
1.791e-07
1.971e-07
4.938e-54
-4.448e-53
3.384e-52
-2.603e-51
2.002e-50
-1.531e-49
1.158e-48
-8.626e-48
6.309e-47
-4.526e-46
3.184e-45
-2.198e-44
1.491e-43
-9.953e-43
6.549e-42
-4.254e-41
2.732e-40
-1.737e-39
1.095e-38
-6.848e-38
4.253e-37
-2.626e-36
1.612e-35
-9.848e-35
5.986e-34
-3.621e-33
2.179e-32
-1.305e-31
7.774e-31
-4.608e-30
2.717e-29
-1.594e-28
9.302e-28
-5.398e-27
3.114e-26
-1.786e-25
1.017e-24
-5.756e-24
3.235e-23
-1.795e-22
1.02e-21
-4.618e-21
6.44e-20
2e-18
2.812e-17
3.428e-16
3.87e-15
4.048e-14
3.899e-13
3.432e-12
2.74e-11
1.969e-10
1.263e-09
7.179e-09
3.593e-08
1.574e-07
6e-07
1.983e-06
5.656e-06
1.388e-05
2.932e-05
5.339e-05
8.407e-05
0.0001147
0.0001391
0.0001534
0.0001507
0.0001408
0.0001246
0.000105
8.488e-05
6.626e-05
5.027e-05
3.726e-05
2.713e-05
1.95e-05
1.39e-05
9.882e-06
7.032e-06
5.029e-06
3.627e-06
2.646e-06
1.957e-06
1.47e-06
1.123e-06
8.727e-07
6.911e-07
5.574e-07
4.58e-07
3.832e-07
3.264e-07
2.828e-07
2.491e-07
2.23e-07
2.026e-07
1.866e-07
1.743e-07
1.648e-07
1.576e-07
1.524e-07
1.488e-07
1.466e-07
1.456e-07
1.461e-07
1.474e-07
1.496e-07
1.528e-07
1.568e-07
1.618e-07
1.676e-07
1.744e-07
1.82e-07
1.906e-07
2.002e-07
2.107e-07
2.223e-07
2.349e-07
2.487e-07
2.636e-07
2.798e-07
2.973e-07
3.161e-07
3.363e-07
3.579e-07
3.811e-07
4.059e-07
4.311e-07
4.723e-07
1.734e-53
-1.678e-52
1.335e-51
-1.039e-50
7.86e-50
-5.783e-49
4.14e-48
-2.89e-47
1.971e-46
-1.318e-45
8.651e-45
-5.596e-44
3.574e-43
-2.26e-42
1.417e-41
-8.829e-41
5.472e-40
-3.379e-39
2.081e-38
-1.279e-37
7.856e-37
-4.826e-36
2.967e-35
-1.828e-34
1.13e-33
-6.993e-33
4.312e-32
-2.649e-31
1.622e-30
-9.898e-30
6.02e-29
-3.649e-28
2.205e-27
-1.328e-26
7.974e-26
-4.771e-25
2.844e-24
-1.689e-23
1e-22
-5.824e-22
3.679e-21
-1.499e-20
5.043e-19
1.193e-17
1.666e-16
2.084e-15
2.422e-14
2.604e-13
2.573e-12
2.315e-11
1.881e-10
1.368e-09
8.832e-09
5.016e-08
2.487e-07
1.069e-06
3.966e-06
1.263e-05
3.439e-05
8e-05
0.0001595
0.0002723
0.0004002
0.0005088
0.0005919
0.0005885
0.0005588
0.0005014
0.0004276
0.0003491
0.0002748
0.0002098
0.000156
0.0001136
8.134e-05
5.757e-05
4.047e-05
2.838e-05
1.995e-05
1.411e-05
1.007e-05
7.285e-06
5.346e-06
3.989e-06
3.029e-06
2.344e-06
1.848e-06
1.486e-06
1.217e-06
1.016e-06
8.629e-07
7.46e-07
6.559e-07
5.858e-07
5.311e-07
4.884e-07
4.551e-07
4.294e-07
4.098e-07
3.953e-07
3.85e-07
3.787e-07
3.746e-07
3.752e-07
3.775e-07
3.822e-07
3.891e-07
3.983e-07
4.097e-07
4.232e-07
4.389e-07
4.567e-07
4.767e-07
4.99e-07
5.236e-07
5.506e-07
5.801e-07
6.121e-07
6.468e-07
6.844e-07
7.248e-07
7.682e-07
8.147e-07
8.644e-07
9.173e-07
9.74e-07
1.031e-06
1.124e-06
-2.494e-53
2.446e-52
-1.962e-51
1.531e-50
-1.157e-49
8.472e-49
-6.016e-48
4.147e-47
-2.78e-46
1.816e-45
-1.159e-44
7.254e-44
-4.463e-43
2.712e-42
-1.634e-41
9.809e-41
-5.893e-40
3.557e-39
-2.166e-38
1.332e-37
-8.295e-37
5.225e-36
-3.327e-35
2.137e-34
-1.383e-33
8.964e-33
-5.753e-32
3.655e-31
-2.303e-30
1.441e-29
-8.957e-29
5.539e-28
-3.41e-27
2.092e-26
-1.279e-25
7.8e-25
-4.748e-24
2.888e-23
-1.743e-22
1.116e-21
-3.66e-21
1.639e-19
4.165e-18
6.299e-17
8.625e-16
1.105e-14
1.317e-13
1.451e-12
1.464e-11
1.34e-10
1.102e-09
8.067e-09
5.199e-08
2.921e-07
1.418e-06
5.899e-06
2.094e-05
6.309e-05
0.0001611
0.0003494
0.0006478
0.001021
0.001389
0.001677
0.001782
0.001724
0.001581
0.001379
0.001153
0.0009289
0.0007248
0.0005497
0.0004068
0.0002949
0.0002103
0.0001481
0.0001037
7.237e-05
5.065e-05
3.569e-05
2.541e-05
1.833e-05
1.343e-05
1.001e-05
7.602e-06
5.883e-06
4.642e-06
3.734e-06
3.062e-06
2.558e-06
2.176e-06
1.883e-06
1.657e-06
1.481e-06
1.344e-06
1.236e-06
1.152e-06
1.087e-06
1.037e-06
9.999e-07
9.731e-07
9.564e-07
9.443e-07
9.448e-07
9.494e-07
9.594e-07
9.75e-07
9.961e-07
1.022e-06
1.054e-06
1.09e-06
1.132e-06
1.178e-06
1.23e-06
1.287e-06
1.35e-06
1.418e-06
1.493e-06
1.573e-06
1.659e-06
1.752e-06
1.851e-06
1.957e-06
2.07e-06
2.19e-06
2.318e-06
2.445e-06
2.654e-06
8.683e-53
-7.91e-52
6.046e-51
-4.638e-50
3.536e-49
-2.67e-48
1.991e-47
-1.462e-46
1.057e-45
-7.501e-45
5.23e-44
-3.581e-43
2.408e-42
-1.592e-41
1.036e-40
-6.632e-40
4.187e-39
-2.608e-38
1.605e-37
-9.77e-37
5.887e-36
-3.515e-35
2.081e-34
-1.223e-33
7.143e-33
-4.144e-32
2.392e-31
-1.375e-30
7.889e-30
-4.516e-29
2.582e-28
-1.475e-27
8.431e-27
-4.821e-26
2.761e-25
-1.585e-24
9.12e-24
-5.254e-23
3.118e-22
-1.376e-21
3.192e-20
1.101e-18
1.848e-17
2.761e-16
3.869e-15
5.076e-14
6.189e-13
6.954e-12
7.133e-11
6.611e-10
5.476e-09
4.005e-08
2.556e-07
1.406e-06
6.591e-06
2.612e-05
8.703e-05
0.0002429
0.0005704
0.001137
0.001924
0.002761
0.003498
0.004051
0.004001
0.003766
0.003383
0.002927
0.002453
0.001991
0.001568
0.001201
0.0008971
0.0006557
0.0004708
0.0003336
0.0002345
0.0001643
0.0001154
8.164e-05
5.834e-05
4.226e-05
3.11e-05
2.329e-05
1.777e-05
1.382e-05
1.096e-05
8.861e-06
7.302e-06
6.129e-06
5.237e-06
4.552e-06
4.021e-06
3.607e-06
3.282e-06
3.028e-06
2.828e-06
2.673e-06
2.554e-06
2.465e-06
2.401e-06
2.361e-06
2.332e-06
2.332e-06
2.343e-06
2.366e-06
2.402e-06
2.451e-06
2.513e-06
2.586e-06
2.671e-06
2.768e-06
2.876e-06
2.996e-06
3.129e-06
3.273e-06
3.431e-06
3.6e-06
3.783e-06
3.98e-06
4.19e-06
4.414e-06
4.652e-06
4.904e-06
5.17e-06
5.453e-06
5.733e-06
6.189e-06
2.528e-52
-2.377e-51
1.861e-50
-1.449e-49
1.113e-48
-8.406e-48
6.238e-47
-4.542e-46
3.243e-45
-2.27e-44
1.558e-43
-1.05e-42
6.953e-42
-4.527e-41
2.902e-40
-1.834e-39
1.145e-38
-7.062e-38
4.312e-37
-2.609e-36
1.567e-35
-9.343e-35
5.539e-34
-3.269e-33
1.921e-32
-1.126e-31
6.579e-31
-3.835e-30
2.232e-29
-1.298e-28
7.547e-28
-4.394e-27
2.564e-26
-1.501e-25
8.821e-25
-5.211e-24
3.099e-23
-1.852e-22
1.152e-21
-5.241e-21
1.18e-19
4.041e-18
6.886e-17
1.051e-15
1.505e-14
2.015e-13
2.503e-12
2.858e-11
2.97e-10
2.775e-09
2.302e-08
1.673e-07
1.049e-06
5.59e-06
2.499e-05
9.28e-05
0.0002844
0.0007209
0.001534
0.002788
0.004223
0.005612
0.006707
0.008075
0.007536
0.006461
0.005683
0.005008
0.004296
0.003557
0.002859
0.002235
0.001702
0.001265
0.0009226
0.0006628
0.0004716
0.0003343
0.0002373
0.0001695
0.0001224
8.954e-05
6.655e-05
5.034e-05
3.879e-05
3.046e-05
2.439e-05
1.99e-05
1.654e-05
1.4e-05
1.205e-05
1.055e-05