/*--------------------------------*- C++ -*----------------------------------*\
| =========                 |                                                 |
| \\      /  F ield         | OpenFOAM: The Open Source CFD Toolbox           |
|  \\    /   O peration     | Version:  3.0.1                                 |
|   \\  /    A nd           | Web:      www.OpenFOAM.org                      |
|    \\/     M anipulation  |                                                 |
\*---------------------------------------------------------------------------*/
FoamFile
{
    version     2.0;
    format      ascii;
    class       volScalarField;
    location    "0";
    object      K;
}
// * * * * * * * * * * * * * * * * * * * * * * * * * * * * * * * * * * * * * //

dimensions      [0 2 0 0 0 0 0];
//dimensions      [0 2 -2 0 0 0 0];

internalField   nonuniform List<scalar>
1200
(
4.11186e-12
4.80112e-12
7.60232e-12
1.32937e-11
1.49296e-11
1.37944e-11
1.21299e-11
1.02745e-11
1.06025e-11
1.15365e-11
1.19896e-11
1.23796e-11
1.08638e-11
1.8427e-11
1.90748e-11
1.15569e-11
1.0876e-11
6.11618e-12
4.85416e-12
1.25365e-11
1.80535e-11
2.05127e-11
1.66088e-11
1.08758e-11
1.36157e-11
1.42064e-11
1.26646e-11
9.59116e-12
8.18823e-12
9.541e-12
7.41595e-12
5.11949e-12
6.40686e-12
1.48092e-11
1.96315e-11
1.95068e-11
2.05428e-11
1.80632e-11
1.36123e-11
7.6487e-12
4.37628e-12
5.8616e-12
6.99618e-12
1.72032e-11
1.92025e-11
1.45146e-11
1.54159e-11
1.42811e-11
1.14431e-11
9.94284e-12
1.41223e-11
2.22759e-11
1.99475e-11
1.2081e-11
1.208e-11
1.52416e-11
1.42631e-11
6.59337e-12
4.8088e-12
8.74208e-12
1.8851e-11
1.55748e-11
1.06247e-11
1.5002e-11
1.63173e-11
1.39423e-11
1.51552e-11
1.25313e-11
9.54939e-12
1.17834e-11
1.37371e-11
9.41998e-12
1.30952e-11
1.90066e-11
1.46988e-11
1.54844e-11
1.79957e-11
1.74542e-11
1.25756e-11
4.74312e-12
3.80846e-12
9.80649e-12
1.22256e-11
9.95248e-12
9.93502e-12
1.41885e-11
1.71274e-11
1.49708e-11
1.17842e-11
8.29506e-12
1.65405e-11
1.76509e-11
1.13889e-11
9.45385e-12
9.46043e-12
9.10336e-12
7.44144e-12
5.35979e-12
7.00609e-12
1.38383e-11
1.80033e-11
1.48228e-11
1.61735e-11
1.85131e-11
1.35031e-11
1.21601e-11
1.14585e-11
7.65466e-12
7.27938e-12
7.95527e-12
8.84011e-12
8.58282e-12
1.27835e-11
2.03052e-11
1.59742e-11
1.08386e-11
1.46997e-11
1.54022e-11
1.15811e-11
6.33685e-12
8.5053e-12
1.00415e-11
8.25487e-12
9.85431e-12
1.00481e-11
1.05783e-11
1.0014e-11
7.67052e-12
7.29427e-12
8.33841e-12
8.6184e-12
9.66498e-12
8.79327e-12
7.04045e-12
7.92638e-12
8.77238e-12
8.30377e-12
7.47263e-12
8.71975e-12
9.16208e-12
1.08174e-11
1.22648e-11
1.4306e-11
2.00747e-11
1.6068e-11
1.0429e-11
9.43789e-12
5.88739e-12
6.56045e-12
9.17253e-12
7.91641e-12
7.96766e-12
1.14667e-11
1.3338e-11
1.06296e-11
1.126e-11
9.43461e-12
6.72604e-12
6.06322e-12
6.15698e-12
1.01155e-11
9.53333e-12
8.07627e-12
1.12373e-11
1.084e-11
9.65581e-12
1.04715e-11
1.0199e-11
8.88585e-12
8.26577e-12
8.14582e-12
8.84519e-12
7.3634e-12
5.17489e-12
6.54659e-12
8.54358e-12
8.87597e-12
7.5815e-12
7.27105e-12
9.48935e-12
1.46322e-11
1.26143e-11
1.55328e-11
1.41377e-11
1.02787e-11
9.0184e-12
7.92348e-12
1.07209e-11
1.5743e-11
1.50522e-11
1.45672e-11
1.31917e-11
9.39541e-12
9.8788e-12
1.0241e-11
8.22003e-12
8.29393e-12
9.98092e-12
7.35749e-12
6.82222e-12
9.93476e-12
1.0231e-11
1.04682e-11
1.17779e-11
1.2413e-11
9.8517e-12
7.75296e-12
7.79755e-12
6.06412e-12
8.49768e-12
1.28918e-11
1.012e-11
9.37535e-12
8.38649e-12
8.48e-12
1.09242e-11
1.09013e-11
1.031e-11
1.39786e-11
1.52536e-11
1.95607e-11
2.23219e-11
1.65566e-11
1.00573e-11
1.07808e-11
1.15454e-11
9.92559e-12
1.45154e-11
1.87949e-11
1.767e-11
1.77565e-11
1.77533e-11
1.31556e-11
1.1218e-11
1.09109e-11
7.91942e-12
6.5327e-12
7.69503e-12
5.83566e-12
7.55663e-12
8.6992e-12
6.0708e-12
8.03186e-12
9.59319e-12
8.87285e-12
1.08197e-11
1.02936e-11
5.36351e-12
4.15907e-12
6.70257e-12
1.36201e-11
1.78938e-11
1.52386e-11
1.08148e-11
1.30019e-11
1.63825e-11
1.31509e-11
1.22652e-11
1.65968e-11
1.92904e-11
1.89504e-11
2.0183e-11
1.66719e-11
9.20586e-12
9.612e-12
1.1251e-11
8.68675e-12
9.87714e-12
1.22937e-11
1.23232e-11
1.3648e-11
8.06485e-12
7.27599e-12
7.96899e-12
7.27151e-12
7.29241e-12
7.15535e-12
4.8435e-12
4.59396e-12
8.37345e-12
9.71694e-12
7.85138e-12
6.93127e-12
8.48145e-12
1.0979e-11
1.40559e-11
1.43543e-11
7.64151e-12
3.58662e-12
5.70204e-12
7.72742e-12
1.2175e-11
1.51244e-11
1.04382e-11
1.53914e-11
2.01927e-11
1.13777e-11
8.51042e-12
1.25612e-11
1.51104e-11
1.25668e-11
1.01522e-11
8.66435e-12
9.32205e-12
7.5802e-12
5.22806e-12
5.73622e-12
5.21167e-12
7.02143e-12
1.3658e-11
1.46287e-11
8.60487e-12
6.28486e-12
9.38084e-12
1.10453e-11
1.00178e-11
1.06071e-11
7.20614e-12
4.1513e-12
6.42138e-12
8.77125e-12
8.28603e-12
7.49944e-12
8.99796e-12
1.63866e-11
2.116e-11
1.7805e-11
1.04243e-11
4.91211e-12
6.42243e-12
8.02676e-12
1.03053e-11
1.02266e-11
1.63164e-11
1.65672e-11
8.42936e-12
7.27867e-12
8.4209e-12
1.02276e-11
1.26243e-11
1.07984e-11
8.07893e-12
1.07705e-11
1.54335e-11
1.26778e-11
6.55472e-12
6.82392e-12
7.45515e-12
1.12143e-11
1.77343e-11
1.53602e-11
9.50063e-12
8.44944e-12
9.80788e-12
1.25425e-11
1.35318e-11
1.4443e-11
9.49829e-12
3.5645e-12
4.97538e-12
6.4539e-12
7.39967e-12
9.99855e-12
1.88745e-11
2.28135e-11
2.03897e-11
1.42773e-11
7.22225e-12
6.56461e-12
5.68656e-12
7.11899e-12
1.03089e-11
1.39367e-11
2.00127e-11
1.70561e-11
9.68962e-12
1.10805e-11
1.34748e-11
1.54822e-11
1.61662e-11
1.06109e-11
6.54674e-12
7.51145e-12
1.02725e-11
9.44602e-12
6.0384e-12
6.39964e-12
7.23024e-12
9.61699e-12
1.33081e-11
8.42599e-12
6.55594e-12
9.49045e-12
1.37385e-11
1.50384e-11
1.73917e-11
1.25218e-11
4.29147e-12
4.87156e-12
6.15522e-12
8.03938e-12
9.14985e-12
1.24301e-11
1.82878e-11
1.94283e-11
1.9711e-11
1.72248e-11
1.19661e-11
7.89952e-12
5.6999e-12
7.3437e-12
1.38152e-11
1.60063e-11
1.52351e-11
1.24923e-11
5.95552e-12
7.82217e-12
1.26576e-11
1.34313e-11
1.23696e-11
7.07296e-12
5.09115e-12
6.37039e-12
7.47694e-12
5.64205e-12
6.19169e-12
7.30836e-12
1.006e-11
1.1459e-11
9.88593e-12
9.8397e-12
9.11911e-12
1.10922e-11
1.25144e-11
1.25052e-11
1.61573e-11
1.32335e-11
5.54536e-12
3.57082e-12
5.25785e-12
8.42897e-12
1.38503e-11
1.95198e-11
1.69511e-11
1.22367e-11
1.27002e-11
1.30842e-11
1.14657e-11
7.89217e-12
6.4712e-12
1.51081e-11
1.90379e-11
1.93678e-11
1.53222e-11
6.9791e-12
8.08881e-12
1.34601e-11
1.43613e-11
1.1059e-11
7.60398e-12
6.74062e-12
7.55173e-12
7.37436e-12
5.69208e-12
5.55841e-12
7.04266e-12
8.85759e-12
9.14254e-12
9.50257e-12
9.68532e-12
9.01687e-12
9.93729e-12
1.38161e-11
1.24308e-11
1.04691e-11
1.44811e-11
1.19946e-11
6.13155e-12
4.47773e-12
5.86177e-12
1.44933e-11
2.21736e-11
2.38726e-11
1.79152e-11
1.41025e-11
1.29896e-11
1.21537e-11
9.08614e-12
8.13046e-12
1.07735e-11
1.07343e-11
1.20922e-11
1.69595e-11
1.36175e-11
7.31388e-12
1.02592e-11
1.26898e-11
1.30078e-11
1.3307e-11
1.31681e-11
1.11223e-11
1.09231e-11
9.25955e-12
5.96986e-12
7.56922e-12
8.60117e-12
8.91405e-12
8.27039e-12
6.37515e-12
6.52963e-12
6.47299e-12
1.08722e-11
1.34559e-11
1.4725e-11
1.66207e-11
1.06071e-11
7.59453e-12
6.81121e-12
6.97545e-12
1.01298e-11
1.05941e-11
1.24438e-11
1.86626e-11
1.93728e-11
1.38779e-11
1.14992e-11
8.99998e-12
8.06154e-12
9.49174e-12
1.16138e-11
1.47546e-11
1.23613e-11
1.01157e-11
8.54878e-12
6.96458e-12
8.40953e-12
1.07278e-11
1.52927e-11
1.29653e-11
9.86098e-12
7.89101e-12
6.63491e-12
6.86975e-12
1.09243e-11
1.30083e-11
1.11691e-11
1.08802e-11
8.20445e-12
6.63065e-12
5.9314e-12
4.52788e-12
7.28066e-12
1.06922e-11
1.67023e-11
1.54776e-11
6.20061e-12
5.50135e-12
6.33626e-12
5.7629e-12
7.54251e-12
1.17559e-11
1.3134e-11
1.35286e-11
1.43133e-11
1.29443e-11
9.80036e-12
7.34208e-12
1.26971e-11
1.29862e-11
1.08539e-11
1.18179e-11
7.10187e-12
5.87125e-12
5.55115e-12
9.17885e-12
1.20513e-11
1.13326e-11
1.04925e-11
1.15982e-11
1.03683e-11
6.48303e-12
5.16972e-12
6.97674e-12
1.15585e-11
1.30076e-11
9.3913e-12
9.5631e-12
9.98552e-12
9.68264e-12
9.11269e-12
8.78213e-12
1.29996e-11
1.36298e-11
1.50331e-11
1.76295e-11
1.0901e-11
7.04345e-12
8.76942e-12
7.64524e-12
7.77572e-12
1.81689e-11
1.5559e-11
1.21587e-11
1.18206e-11
8.3325e-12
6.95863e-12
9.51504e-12
1.48257e-11
1.71048e-11
1.44205e-11
1.13729e-11
6.43848e-12
4.9526e-12
6.25066e-12
8.98226e-12
1.06306e-11
9.68818e-12
1.16122e-11
1.57222e-11
1.38472e-11
9.2754e-12
9.504e-12
9.6054e-12
1.54484e-11
2.10994e-11
1.55352e-11
1.47827e-11
1.41032e-11
8.38009e-12
6.85236e-12
1.6746e-11
1.85829e-11
1.74966e-11
2.66419e-11
2.11105e-11
1.1217e-11
1.29358e-11
1.4004e-11
1.29324e-11
1.40745e-11
1.74844e-11
1.34953e-11
1.16443e-11
1.20879e-11
8.04669e-12
6.7235e-12
7.15094e-12
1.14318e-11
1.40598e-11
1.06351e-11
8.25211e-12
5.41753e-12
4.38938e-12
1.03966e-11
1.57819e-11
1.7077e-11
1.66319e-11
2.26962e-11
2.28775e-11
1.16412e-11
9.33354e-12
1.20004e-11
2.06353e-11
3.5087e-11
3.41613e-11
2.70688e-11
1.93276e-11
8.75986e-12
7.85387e-12
1.20985e-11
1.76542e-11
2.16028e-11
2.12439e-11
2.74677e-11
2.31681e-11
1.14265e-11
1.02462e-11
1.07064e-11
9.60951e-12
8.05194e-12
1.33785e-11
1.44061e-11
1.2049e-11
1.09529e-11
8.62668e-12
1.13627e-11
1.17787e-11
1.9232e-11
2.12933e-11
9.04832e-12
9.23099e-12
7.31424e-12
1.27318e-11
2.32409e-11
2.64154e-11
2.42114e-11
1.90722e-11
1.33505e-11
9.92648e-12
7.97528e-12
9.34126e-12
1.68955e-11
1.99799e-11
2.64972e-11
2.63084e-11
1.69467e-11
1.25207e-11
8.60783e-12
8.3247e-12
1.21373e-11
2.19503e-11
2.89322e-11
2.51157e-11
1.98493e-11
1.53724e-11
9.69643e-12
8.30919e-12
9.07029e-12
8.03306e-12
6.27854e-12
1.56551e-11
1.15314e-11
1.2892e-11
1.47128e-11
1.23582e-11
1.20427e-11
1.85751e-11
1.63224e-11
5.48973e-12
6.05392e-12
1.27495e-11
1.16312e-11
9.94278e-12
1.10521e-11
1.01821e-11
1.17986e-11
1.08616e-11
9.71088e-12
9.89606e-12
1.13033e-11
1.48958e-11
2.01738e-11
1.9326e-11
1.66386e-11
1.80765e-11
1.55811e-11
1.00558e-11
9.23716e-12
1.07209e-11
9.93828e-12
1.82497e-11
1.45022e-11
1.66103e-11
1.60109e-11
1.02345e-11
1.16217e-11
1.79626e-11
1.50536e-11
7.37813e-12
1.11316e-11
1.76153e-11
1.48231e-11
1.29607e-11
9.71753e-12
5.44926e-12
1.2979e-11
2.86114e-11
2.24656e-11
6.608e-12
6.04597e-12
1.00134e-11
1.05394e-11
9.10285e-12
9.49743e-12
9.66964e-12
1.19088e-11
1.15417e-11
1.52923e-11
1.56964e-11
9.30729e-12
1.12345e-11
1.07533e-11
1.1032e-11
1.60603e-11
1.49938e-11
8.9509e-12
1.03888e-11
1.19378e-11
1.01907e-11
1.36369e-11
1.48841e-11
1.22135e-11
1.37989e-11
1.15683e-11
7.85761e-12
1.3883e-11
2.92698e-11
2.68333e-11
9.96585e-12
6.12956e-12
1.17893e-11
1.23665e-11
9.18775e-12
7.46272e-12
5.69139e-12
1.25867e-11
2.62596e-11
2.71629e-11
1.42352e-11
5.91738e-12
7.62487e-12
9.91208e-12
1.23259e-11
1.36358e-11
1.22582e-11
9.93707e-12
1.13021e-11
1.03863e-11
8.03802e-12
1.06214e-11
1.20849e-11
8.84312e-12
1.15837e-11
1.7839e-11
1.31718e-11
6.83242e-12
8.26809e-12
1.34038e-11
1.16681e-11
1.0577e-11
1.69143e-11
1.44823e-11
9.65298e-12
9.23925e-12
8.55678e-12
1.45718e-11
2.82183e-11
2.79315e-11
1.30231e-11
5.68099e-12
9.89857e-12
1.21734e-11
1.15894e-11
9.02278e-12
1.29648e-11
2.09779e-11
2.28561e-11
1.4322e-11
7.61338e-12
9.61967e-12
1.14019e-11
1.04878e-11
1.54499e-11
2.0039e-11
1.62985e-11
1.10865e-11
6.99983e-12
6.73178e-12
7.78369e-12
1.30439e-11
1.87949e-11
1.42896e-11
1.03229e-11
1.51152e-11
1.45559e-11
8.52727e-12
8.98147e-12
1.27892e-11
1.0993e-11
1.18718e-11
2.09628e-11
1.0893e-11
7.82378e-12
8.07839e-12
1.85563e-11
3.15828e-11
3.24577e-11
1.9067e-11
9.29597e-12
1.1321e-11
1.334e-11
1.31281e-11
1.29229e-11
1.04335e-11
1.64547e-11
2.42678e-11
1.63407e-11
7.46932e-12
8.35257e-12
1.17552e-11
1.39733e-11
1.15484e-11
1.31197e-11
1.86228e-11
2.45124e-11
1.85845e-11
5.6518e-12
6.1884e-12
8.80798e-12
1.48454e-11
2.1067e-11
9.50688e-12
9.52248e-12
1.32108e-11
1.54834e-11
1.85162e-11
1.96544e-11
1.45624e-11
1.31465e-11
2.17878e-11
1.98116e-11
1.07793e-11
8.09616e-12
7.9492e-12
1.52137e-11
2.44271e-11
2.73795e-11
2.17748e-11
1.38838e-11
1.02752e-11
1.26403e-11
1.28631e-11
1.34807e-11
1.56093e-11
2.98848e-11
3.27939e-11
1.35544e-11
7.68038e-12
8.86274e-12
8.88481e-12
1.25435e-11
1.24976e-11
1.22864e-11
1.74242e-11
1.50023e-11
4.84579e-12
2.65469e-12
5.52926e-12
1.06012e-11
1.91033e-11
1.8369e-11
8.89475e-12
8.05695e-12
1.24296e-11
1.14073e-11
1.11292e-11
1.8126e-11
2.06181e-11
2.00541e-11
1.92806e-11
1.35592e-11
1.28647e-11
1.35135e-11
1.20756e-11
1.83156e-11
2.22541e-11
2.53823e-11
2.88532e-11
2.26225e-11
1.19948e-11
1.72177e-11
1.73877e-11
1.22943e-11
2.16365e-11
2.56172e-11
1.26185e-11
6.13002e-12
6.56852e-12
5.73814e-12
6.79001e-12
1.0594e-11
1.02727e-11
1.0097e-11
1.26181e-11
8.71964e-12
4.56279e-12
3.41246e-12
5.50321e-12
1.33742e-11
1.66722e-11
1.15795e-11
1.01765e-11
1.21793e-11
1.21346e-11
1.08642e-11
1.37254e-11
2.27892e-11
2.79567e-11
3.26498e-11
2.99534e-11
1.87239e-11
2.16603e-11
1.66568e-11
1.97177e-11
2.22458e-11
2.54257e-11
2.17046e-11
1.39414e-11
1.20393e-11
1.12234e-11
1.67489e-11
1.62696e-11
1.1451e-11
1.28541e-11
1.36129e-11
9.65948e-12
6.39378e-12
7.0211e-12
5.57156e-12
5.91427e-12
7.19493e-12
8.30951e-12
1.05488e-11
1.17054e-11
1.05999e-11
1.20063e-11
9.42258e-12
6.07503e-12
1.78124e-11
2.40472e-11
1.27934e-11
1.68224e-11
1.50291e-11
1.16965e-11
1.32409e-11
2.25917e-11
1.99743e-11
2.23576e-11
2.44969e-11
1.27578e-11
1.81805e-11
2.16456e-11
1.40146e-11
1.34873e-11
1.87285e-11
1.97251e-11
1.48296e-11
1.1656e-11
1.06679e-11
1.15204e-11
1.16738e-11
1.26847e-11
1.40245e-11
1.15958e-11
9.2526e-12
8.00703e-12
6.56287e-12
6.77601e-12
6.78394e-12
5.42632e-12
9.23451e-12
1.0599e-11
1.25329e-11
1.22421e-11
1.03852e-11
9.21774e-12
5.89987e-12
1.56077e-11
1.76764e-11
6.91687e-12
1.00196e-11
1.41518e-11
1.02316e-11
9.23884e-12
1.33851e-11
1.6517e-11
1.37108e-11
1.43893e-11
1.62938e-11
1.22782e-11
1.28404e-11
1.61282e-11
1.3933e-11
9.51131e-12
1.03433e-11
1.23747e-11
1.08041e-11
9.03751e-12
8.71279e-12
8.85061e-12
1.18721e-11
1.19735e-11
1.19665e-11
9.46694e-12
6.37353e-12
6.53782e-12
5.76743e-12
5.5143e-12
4.88417e-12
4.92653e-12
7.06106e-12
7.41147e-12
1.25241e-11
1.55576e-11
9.96901e-12
7.12511e-12
7.59602e-12
1.173e-11
1.14619e-11
6.51539e-12
8.00579e-12
1.12808e-11
9.98408e-12
7.58308e-12
8.89582e-12
1.13788e-11
1.10383e-11
1.18164e-11
1.27043e-11
1.14934e-11
9.98634e-12
9.68204e-12
6.7712e-12
6.12413e-12
9.73779e-12
1.29086e-11
9.85508e-12
7.62954e-12
8.46572e-12
8.03196e-12
9.51121e-12
8.71959e-12
1.1838e-11
1.3767e-11
8.52987e-12
6.20102e-12
6.15369e-12
7.04098e-12
6.45856e-12
5.13213e-12
5.58089e-12
8.21052e-12
1.63343e-11
1.80801e-11
1.16651e-11
8.45601e-12
9.27102e-12
1.1184e-11
8.95438e-12
7.5751e-12
8.14154e-12
9.92742e-12
8.11108e-12
7.20046e-12
1.05309e-11
1.31508e-11
1.18599e-11
1.1137e-11
1.14482e-11
9.18137e-12
7.69572e-12
5.55201e-12
4.21692e-12
4.95374e-12
1.07479e-11
1.94877e-11
1.39185e-11
5.53716e-12
6.87586e-12
6.88874e-12
5.89266e-12
7.33787e-12
1.43443e-11
1.62193e-11
9.73909e-12
7.01789e-12
8.6544e-12
8.15029e-12
5.03254e-12
4.88206e-12
1.74327e-11
2.34113e-11
1.58675e-11
7.50619e-12
7.80761e-12
8.80285e-12
8.89951e-12
7.23382e-12
7.55527e-12
7.51957e-12
6.90923e-12
9.78935e-12
9.47724e-12
8.31662e-12
1.26661e-11
1.91828e-11
1.67518e-11
9.55196e-12
9.49238e-12
9.12457e-12
6.34947e-12
4.88096e-12
4.86611e-12
5.82694e-12
1.18225e-11
1.36121e-11
7.74844e-12
5.4551e-12
4.47836e-12
4.37123e-12
);

boundaryField
{
    outlet
    {
        type            zeroGradient;
    }
    inlet
    {
        type            zeroGradient;
    }
    walls 
    {
        type            zeroGradient;
    }
    frontAndBack
    {
        type            empty;
    }
}


// ************************************************************************* //
