1.49904e+07   	3.686210e-09
3.00024e+07   	3.242100e-09
4.49928e+07   	2.790190e-09
6.00048e+07   	2.352130e-09
7.49952e+07   	1.949920e-09
9.00072e+07   	1.597370e-09
1.049976e+08  	1.302680e-09
1.200096e+08  	1.063880e-09
1.35e+08      	8.746340e-10
1.499904e+08  	7.248890e-10
1.650024e+08  	6.052240e-10
1.799928e+08  	5.083090e-10
1.950048e+08  	4.283800e-10
2.099952e+08  	3.617410e-10
2.250072e+08  	3.055520e-10
2.399976e+08  	2.583140e-10
2.550096e+08  	2.189530e-10
2.7e+08       	1.870280e-10
2.849904e+08  	1.618630e-10
3.000024e+08  	1.426060e-10
3.149928e+08  	1.281340e-10
3.300048e+08  	1.172730e-10
3.449952e+08  	1.089690e-10
3.600072e+08  	1.022270e-10
3.749976e+08  	9.635480e-11
3.900096e+08  	9.097800e-11
4.05e+08      	8.598050e-11
4.199904e+08  	8.138490e-11
4.350024e+08  	7.724490e-11
4.499928e+08  	7.361100e-11
4.650048e+08  	7.038250e-11
4.799952e+08  	6.732620e-11
4.950072e+08  	6.420590e-11
5.099976e+08  	6.103380e-11
5.250096e+08  	5.799270e-11
5.4e+08       	5.531730e-11
5.549904e+08  	5.311800e-11
5.700024e+08  	5.139620e-11
5.849928e+08  	5.010510e-11
6.000048e+08  	4.912230e-11
6.149952e+08  	4.829300e-11
6.300072e+08  	4.743710e-11
6.449976e+08  	4.639540e-11
6.600096e+08  	4.510350e-11
6.75e+08      	4.363900e-11
6.899904e+08  	4.213480e-11
7.050024e+08  	4.073510e-11
7.199928e+08  	3.955300e-11
7.350048e+08  	3.863430e-11
7.499952e+08  	3.797550e-11
7.650072e+08  	3.753070e-11
7.799976e+08  	3.723650e-11
7.950096e+08  	3.701610e-11
8.1e+08       	3.680670e-11
8.249904e+08  	3.659260e-11
8.400024e+08  	3.636470e-11
8.549928e+08  	3.611130e-11
8.700048e+08  	3.581460e-11
8.849952e+08  	3.545370e-11
9.000072e+08  	3.500270e-11
9.149976e+08  	3.444740e-11
9.300096e+08  	3.380290e-11
9.45e+08      	3.312330e-11
9.599904e+08  	3.247120e-11
9.750024e+08  	3.189900e-11
9.899928e+08  	3.143870e-11
1.0050048e+09 	3.109390e-11
1.0199952e+09 	3.084940e-11
1.0350072e+09 	3.067370e-11
1.0499976e+09 	3.052770e-11
1.0650096e+09 	3.038640e-11
1.08e+09      	3.024890e-11
1.0949904e+09 	3.011460e-11
1.1100024e+09 	2.998330e-11
1.1249928e+09 	2.985440e-11
1.1400048e+09 	2.972660e-11
1.1549952e+09 	2.959860e-11
1.1700072e+09 	2.946800e-11
1.1849976e+09 	2.933210e-11
1.2000096e+09 	2.918620e-11
1.215e+09     	2.902520e-11
1.2299904e+09 	2.884150e-11
1.2450024e+09 	2.862500e-11
1.2599928e+09 	2.836460e-11
1.2750048e+09 	2.804650e-11
1.2899952e+09 	2.766300e-11
1.3050072e+09 	2.722070e-11
1.3199976e+09 	2.675720e-11
1.3350096e+09 	2.631880e-11
1.35e+09      	2.594150e-11
1.3649904e+09 	2.564070e-11
1.3800024e+09 	2.541440e-11
1.3949928e+09 	2.524810e-11
1.4100048e+09 	2.511730e-11
1.4249952e+09 	2.499620e-11
1.4400072e+09 	2.487680e-11
1.4549976e+09 	2.475980e-11
1.4700096e+09 	2.464520e-11
1.485e+09     	2.453370e-11
1.4999904e+09 	2.442540e-11
1.5150024e+09 	2.432030e-11
1.5299928e+09 	2.421890e-11
1.5450048e+09 	2.412080e-11
1.5599952e+09 	2.402630e-11
1.5750072e+09 	2.393500e-11
1.5899976e+09 	2.384680e-11
1.6050096e+09 	2.376100e-11
1.62e+09      	2.367730e-11
1.6349904e+09 	2.359460e-11
1.6500024e+09 	2.351180e-11
1.6649928e+09 	2.342760e-11
1.6800048e+09 	2.334010e-11
1.6949952e+09 	2.324690e-11
1.7100072e+09 	2.314470e-11
1.7249976e+09 	2.302970e-11
1.7400096e+09 	2.289620e-11
1.755e+09     	2.273780e-11
1.7699904e+09 	2.254560e-11
1.7850024e+09 	2.230880e-11
1.7999928e+09 	2.201620e-11
1.8150048e+09 	2.165610e-11
1.8299952e+09 	2.122540e-11
1.8450072e+09 	2.073910e-11
1.8599976e+09 	2.024540e-11
1.8750096e+09 	1.979520e-11
1.89e+09      	1.941950e-11
1.9049904e+09 	1.912160e-11
1.9200024e+09 	1.888620e-11
1.9349928e+09 	1.868600e-11
1.9500048e+09 	1.849030e-11
1.9649952e+09 	1.829350e-11
1.9800072e+09 	1.809590e-11
1.9949976e+09 	1.789890e-11
2.0100096e+09 	1.770240e-11
2.025e+09     	1.750760e-11
2.0399904e+09 	1.731520e-11
2.0550024e+09 	1.712540e-11
2.0699928e+09 	1.693950e-11
2.0850048e+09 	1.675750e-11
2.0999952e+09 	1.658040e-11
2.1150072e+09 	1.640820e-11
2.1299976e+09 	1.624180e-11
2.1450096e+09 	1.608110e-11
2.16e+09      	1.592680e-11
2.1749904e+09 	1.577890e-11
2.1900024e+09 	1.563750e-11
2.2049928e+09 	1.550280e-11
2.2200048e+09 	1.537460e-11
2.2349952e+09 	1.525330e-11
2.2500072e+09 	1.513850e-11
2.2649976e+09 	1.503040e-11
2.2800096e+09 	1.492850e-11
2.295e+09     	1.483290e-11
2.3099904e+09 	1.474330e-11
2.3250024e+09 	1.465940e-11
2.3399928e+09 	1.458110e-11
2.3550048e+09 	1.450790e-11
2.3699952e+09 	1.443960e-11
2.3850072e+09 	1.437590e-11
2.3999976e+09 	1.431640e-11
2.4150096e+09 	1.426080e-11
2.43e+09      	1.420880e-11
2.4449904e+09 	1.415980e-11
2.4600024e+09 	1.411360e-11
2.4749928e+09 	1.406960e-11
2.4900048e+09 	1.402740e-11
2.5049952e+09 	1.398660e-11
2.5200072e+09 	1.394640e-11
2.5349976e+09 	1.390650e-11
2.5500096e+09 	1.386590e-11
2.565e+09     	1.382400e-11
2.5799904e+09 	1.377980e-11
2.5950024e+09 	1.373220e-11
2.6099928e+09 	1.367990e-11
2.6250048e+09 	1.362130e-11
2.6399952e+09 	1.355480e-11
2.6550072e+09 	1.347800e-11
2.6699976e+09 	1.338840e-11
2.6850096e+09 	1.328280e-11
2.7e+09       	1.315830e-11
2.7149904e+09 	1.301110e-11
2.7300024e+09 	1.283810e-11
2.7449928e+09 	1.263920e-11
2.7600048e+09 	1.241910e-11
2.7749952e+09 	1.219380e-11
2.7900072e+09 	1.198270e-11
2.8049976e+09 	1.179640e-11
2.8200096e+09 	1.162860e-11
2.835e+09     	1.146230e-11
2.8499904e+09 	1.128470e-11
2.8650024e+09 	1.109460e-11
2.8799928e+09 	1.089210e-11
2.8950048e+09 	1.067620e-11
2.9099952e+09 	1.044750e-11
2.9250072e+09 	1.020520e-11
2.9399976e+09 	9.950030e-12
2.9550096e+09 	9.681470e-12
2.97e+09      	9.400710e-12
2.9849904e+09 	9.107980e-12
3.0000024e+09 	8.803670e-12
3.0149928e+09 	8.489740e-12
3.0300048e+09 	8.166640e-12
3.0449952e+09 	7.836900e-12
3.0600072e+09 	7.501440e-12
3.0749976e+09 	7.163330e-12
3.0900096e+09 	6.823890e-12
3.105e+09     	6.486500e-12
3.1199904e+09 	6.153210e-12
3.1350024e+09 	5.826050e-12
3.1499928e+09 	5.508370e-12
3.1650048e+09 	5.201480e-12
3.1799952e+09 	4.908150e-12
3.1950072e+09 	4.629020e-12
3.2099976e+09 	4.365760e-12
3.2250096e+09 	4.118330e-12
3.24e+09      	3.887560e-12
3.2549904e+09 	3.672890e-12
3.2700024e+09 	3.473690e-12
3.2849928e+09 	3.289810e-12
3.3000048e+09 	3.119740e-12
3.3149952e+09 	2.962990e-12
3.3300072e+09 	2.818420e-12
3.3449976e+09 	2.685250e-12
3.3600096e+09 	2.562260e-12
3.375e+09     	2.449140e-12
3.3899904e+09 	2.345250e-12
3.4050024e+09 	2.248970e-12
3.4199928e+09 	2.160270e-12
3.4350048e+09 	2.077770e-12
3.4499952e+09 	2.001390e-12
3.4650072e+09 	1.930630e-12
3.4799976e+09 	1.864770e-12
3.4950096e+09 	1.803640e-12
3.51e+09      	1.746890e-12
3.5249904e+09 	1.694030e-12
3.5400024e+09 	1.644570e-12
3.5549928e+09 	1.598370e-12
3.5700048e+09 	1.555180e-12
3.5849952e+09 	1.514970e-12
3.6000072e+09 	1.477270e-12
3.6149976e+09 	1.441990e-12
3.6300096e+09 	1.408790e-12
3.645e+09     	1.377710e-12
3.6599904e+09 	1.348520e-12
3.6750024e+09 	1.321010e-12
3.6899928e+09 	1.295040e-12
3.7050048e+09 	1.270570e-12
3.7199952e+09 	1.247640e-12
3.7350072e+09 	1.225920e-12
3.7499976e+09 	1.205460e-12
3.7650096e+09 	1.186140e-12
3.78e+09      	1.167810e-12
3.7949904e+09 	1.150610e-12
3.8100024e+09 	1.134300e-12
3.8249928e+09 	1.118810e-12
3.8400048e+09 	1.104140e-12
3.8549952e+09 	1.090260e-12
3.8700072e+09 	1.077080e-12
3.8849976e+09 	1.064570e-12
3.9000096e+09 	1.052640e-12
3.915e+09     	1.041370e-12
3.9299904e+09 	1.030620e-12
3.9450024e+09 	1.020380e-12
3.9599928e+09 	1.010650e-12
3.9750048e+09 	1.001420e-12
3.9899952e+09 	9.925630e-13
4.0050072e+09 	9.841560e-13
4.0199976e+09 	9.761010e-13
4.0350096e+09 	9.683870e-13
4.05e+09      	9.610910e-13
4.0649904e+09 	9.540880e-13
4.0800024e+09 	9.473160e-13
4.0949928e+09 	9.408420e-13
4.1100048e+09 	9.346560e-13
4.1249952e+09 	9.287080e-13
4.1400072e+09 	9.229590e-13
4.1549976e+09 	9.174360e-13
4.1700096e+09 	9.120990e-13
4.185e+09     	9.069480e-13
4.1999904e+09 	9.019440e-13
4.2150024e+09 	8.970920e-13
4.2299928e+09 	8.923970e-13
4.2450048e+09 	8.878060e-13
4.2599952e+09 	8.833450e-13
4.2750072e+09 	8.789590e-13
4.2899976e+09 	8.746820e-13
4.3050096e+09 	8.705110e-13
4.32e+09      	8.664280e-13
4.3349904e+09 	8.624300e-13
4.3500024e+09 	8.584550e-13
4.3649928e+09 	8.545350e-13
4.3800048e+09 	8.506720e-13
4.3949952e+09 	8.468230e-13
4.4100072e+09 	8.430390e-13
4.4249976e+09 	8.393050e-13
4.4400096e+09 	8.355870e-13
4.455e+09     	8.318310e-13
4.4699904e+09 	8.281340e-13
4.4850024e+09 	8.244690e-13
4.4999928e+09 	8.208400e-13
4.5150048e+09 	8.172320e-13
4.5299952e+09 	8.136540e-13
4.5450072e+09 	8.100930e-13
4.5599976e+09 	8.065600e-13
4.5750096e+09 	8.030430e-13
4.59e+09      	7.995500e-13
4.6049904e+09 	7.960770e-13
4.6200024e+09 	7.926180e-13
4.6349928e+09 	7.891830e-13
4.6500048e+09 	7.857600e-13
4.6649952e+09 	7.823610e-13
4.6800072e+09 	7.789740e-13
4.6949976e+09 	7.756080e-13
4.7100096e+09 	7.722550e-13
4.725e+09     	7.689240e-13
4.7399904e+09 	7.656080e-13
4.7550024e+09 	7.623050e-13
4.7699928e+09 	7.590230e-13
4.7850048e+09 	7.557510e-13
4.7999952e+09 	7.525010e-13
4.8150072e+09 	7.492610e-13
4.8299976e+09 	7.460400e-13
4.8450096e+09 	7.428310e-13
4.86e+09      	7.396410e-13
4.8749904e+09 	7.364660e-13
4.8900024e+09 	7.333010e-13
4.9049928e+09 	7.301560e-13
4.9200048e+09 	7.270210e-13
4.9349952e+09 	7.239040e-13
4.9500072e+09 	7.207980e-13
4.9649976e+09 	7.177100e-13
4.9800096e+09 	7.146320e-13
4.995e+09     	7.115720e-13
5.0099904e+09 	7.085260e-13
5.0250024e+09 	7.054900e-13
5.0399928e+09 	7.024720e-13
5.0550048e+09 	6.994630e-13
5.0699952e+09 	6.964720e-13
5.0850072e+09 	6.934900e-13
5.0999976e+09 	6.905260e-13
5.1150096e+09 	6.875720e-13
5.13e+09      	6.846340e-13
5.1449904e+09 	6.817100e-13
5.1600024e+09 	6.787950e-13
5.1749928e+09 	6.758960e-13
5.1900048e+09 	6.730070e-13
5.2049952e+09 	6.701350e-13
5.2200072e+09 	6.672710e-13
5.2349976e+09 	6.644250e-13
5.2500096e+09 	6.615860e-13
5.265e+09     	6.587650e-13
5.2799904e+09 	6.559560e-13
5.2950024e+09 	6.531550e-13
5.3099928e+09 	6.503710e-13
5.3250048e+09 	6.475960e-13
5.3399952e+09 	6.448360e-13
5.3550072e+09 	6.420850e-13
5.3699976e+09 	6.393500e-13
5.3850096e+09 	6.366230e-13
5.4e+09       	6.339120e-13
5.4149904e+09 	6.312130e-13
5.4300024e+09 	6.285220e-13
5.4449928e+09 	6.258470e-13
5.4600048e+09 	6.231800e-13
5.4749952e+09 	6.205280e-13
5.4900072e+09 	6.178840e-13
5.5049976e+09 	6.152560e-13
5.5200096e+09 	6.126360e-13
5.535e+09     	6.100300e-13
5.5499904e+09 	6.074370e-13
5.5650024e+09 	6.048500e-13
5.5799928e+09 	6.022800e-13
5.5950048e+09 	5.997160e-13
5.6099952e+09 	5.971680e-13
5.6250072e+09 	5.946270e-13
5.6399976e+09 	5.921010e-13
5.6550096e+09 	5.895820e-13
5.67e+09      	5.870790e-13
5.6849904e+09 	5.845860e-13
5.7000024e+09 	5.821000e-13
5.7149928e+09 	5.796290e-13
5.7300048e+09 	5.771660e-13
5.7449952e+09 	5.747170e-13
5.7600072e+09 	5.722750e-13
5.7749976e+09 	5.698470e-13
5.7900096e+09 	5.674270e-13
5.805e+09     	5.650200e-13
5.8199904e+09 	5.626250e-13
5.8350024e+09 	5.602360e-13
5.8499928e+09 	5.578620e-13
5.8650048e+09 	5.554940e-13
5.8799952e+09 	5.531410e-13
5.8950072e+09 	5.507940e-13
5.9099976e+09 	5.484620e-13
5.9250096e+09 	5.461360e-13
5.94e+09      	5.438240e-13
5.9549904e+09 	5.415230e-13
5.9700024e+09 	5.392280e-13
5.9849928e+09 	5.369470e-13
6.0000048e+09 	5.346730e-13
6.0149952e+09 	5.324110e-13
6.0300072e+09 	5.301570e-13
6.0449976e+09 	5.279160e-13
6.0600096e+09 	5.256820e-13
6.075e+09     	5.234600e-13
6.0899904e+09 	5.212480e-13
6.1050024e+09 	5.190430e-13
6.1199928e+09 	5.168510e-13
6.1350048e+09 	5.146650e-13
6.1499952e+09 	5.124920e-13
6.1650072e+09 	5.103250e-13
6.1799976e+09 	5.081700e-13
6.1950096e+09 	5.060220e-13
6.21e+09      	5.038870e-13
6.2249904e+09 	5.017600e-13
6.2400024e+09 	4.996400e-13
6.2549928e+09 	4.975320e-13
6.2700048e+09 	4.954300e-13
6.2849952e+09 	4.933410e-13
6.3000072e+09 	4.912570e-13
6.3149976e+09 	4.891860e-13
6.3300096e+09 	4.871200e-13
6.345e+09     	4.850660e-13
6.3599904e+09 	4.830220e-13
6.3750024e+09 	4.809830e-13
6.3899928e+09 	4.789560e-13
6.4050048e+09 	4.769350e-13
6.4199952e+09 	4.749260e-13
6.4350072e+09 	4.729220e-13
6.4499976e+09 	4.709300e-13
6.4650096e+09 	4.689440e-13
6.48e+09      	4.669700e-13
6.4949904e+09 	4.650040e-13
6.5100024e+09 	4.630430e-13
6.5249928e+09 	4.610940e-13
6.5400048e+09 	4.591510e-13
6.5549952e+09 	4.572190e-13
6.5700072e+09 	4.552920e-13
6.5849976e+09 	4.533770e-13
6.6000096e+09 	4.514670e-13
6.615e+09     	4.495680e-13
6.6299904e+09 	4.476780e-13
6.6450024e+09 	4.457930e-13
6.6599928e+09 	4.439190e-13
6.6750048e+09 	4.420500e-13
6.6899952e+09 	4.401920e-13
6.7050072e+09 	4.383400e-13
6.7199976e+09 	4.364980e-13
6.7350096e+09 	4.346620e-13
6.75e+09      	4.328360e-13
6.7649904e+09 	4.310180e-13
6.7800024e+09 	4.292050e-13
6.7949928e+09 	4.274030e-13
6.8100048e+09 	4.256060e-13
6.8249952e+09 	4.238200e-13
6.8400072e+09 	4.220390e-13
6.8549976e+09 	4.202680e-13
6.8700096e+09 	4.185020e-13
6.885e+09     	4.167460e-13
6.8999904e+09 	4.149980e-13
6.9150024e+09 	4.132550e-13
6.9299928e+09 	4.115220e-13
6.9450048e+09 	4.097940e-13
6.9599952e+09 	4.080760e-13
6.9750072e+09 	4.063630e-13
6.9899976e+09 	4.046600e-13
7.0050096e+09 	4.029620e-13
7.02e+09      	4.012740e-13
7.0349904e+09 	3.995930e-13
7.0500024e+09 	3.979170e-13
7.0649928e+09 	3.962510e-13
7.0800048e+09 	3.945890e-13
7.0949952e+09 	3.929370e-13
7.1100072e+09 	3.912900e-13
7.1249976e+09 	3.896520e-13
7.1400096e+09 	3.880190e-13
7.155e+09     	3.863960e-13
7.1699904e+09 	3.847800e-13
7.1850024e+09 	3.831680e-13
7.1999928e+09 	3.815650e-13
7.2150048e+09 	3.799680e-13
7.2299952e+09 	3.783790e-13
7.2450072e+09 	3.767950e-13
7.2599976e+09 	3.752200e-13
7.2750096e+09 	3.736500e-13
7.29e+09      	3.720890e-13
7.3049904e+09 	3.705340e-13
7.3200024e+09 	3.689840e-13
7.3349928e+09 	3.674440e-13
7.3500048e+09 	3.659070e-13
7.3649952e+09 	3.643790e-13
7.3800072e+09 	3.628560e-13
7.3949976e+09 	3.613420e-13
7.4100096e+09 	3.598320e-13
7.425e+09     	3.583300e-13
7.4399904e+09 	3.568350e-13
7.4550024e+09 	3.553450e-13
7.4699928e+09 	3.538630e-13
7.4850048e+09 	3.523850e-13
7.4999952e+09 	3.509160e-13
7.5150072e+09 	3.494510e-13
7.5299976e+09 	3.479950e-13
7.5450096e+09 	3.465430e-13
7.56e+09      	3.450990e-13
7.5749904e+09 	3.436610e-13
7.5900024e+09 	3.422280e-13
7.6049928e+09 	3.408030e-13
7.6200048e+09 	3.393820e-13
7.6349952e+09 	3.379690e-13
7.6500072e+09 	3.365600e-13
7.6649976e+09 	3.351600e-13
7.6800096e+09 	3.337630e-13
7.695e+09     	3.323740e-13
7.7099904e+09 	3.309920e-13
7.7250024e+09 	3.296130e-13
7.7399928e+09 	3.282430e-13
7.7550048e+09 	3.268760e-13
7.7699952e+09 	3.255170e-13
7.7850072e+09 	3.241620e-13
7.7999976e+09 	3.228150e-13
7.8150096e+09 	3.214720e-13
7.83e+09      	3.201370e-13
7.8449904e+09 	3.188070e-13
7.8600024e+09 	3.174810e-13
7.8749928e+09 	3.161630e-13
7.8900048e+09 	3.148490e-13
7.9049952e+09 	3.135420e-13
7.9200072e+09 	3.122390e-13
7.9349976e+09 	3.109430e-13
7.9500096e+09 	3.096520e-13
7.965e+09     	3.083670e-13
7.9799904e+09 	3.070880e-13
7.9950024e+09 	3.058130e-13
8.0099928e+09 	3.045450e-13
8.0250048e+09 	3.032810e-13
8.0399952e+09 	3.020240e-13
8.0550072e+09 	3.007710e-13
8.0699976e+09 	2.995250e-13
8.0850096e+09 	2.982830e-13
8.1e+09       	2.970470e-13
8.1149904e+09 	2.958170e-13
8.1300024e+09 	2.945910e-13
8.1449928e+09 	2.933710e-13
8.1600048e+09 	2.921550e-13
8.1749952e+09 	2.909470e-13
8.1900072e+09 	2.897410e-13
8.2049976e+09 	2.885430e-13
8.2200096e+09 	2.873480e-13
8.235e+09     	2.861590e-13
8.2499904e+09 	2.849760e-13
8.2650024e+09 	2.837970e-13
8.2799928e+09 	2.826240e-13
8.2950048e+09 	2.814540e-13
8.3099952e+09 	2.802910e-13
8.3250072e+09 	2.791320e-13
8.3399976e+09 	2.779790e-13
8.3550096e+09 	2.768300e-13
8.37e+09      	2.756870e-13
8.3849904e+09 	2.745490e-13
8.4000024e+09 	2.734140e-13
8.4149928e+09 	2.722860e-13
8.4300048e+09 	2.711610e-13
8.4449952e+09 	2.700420e-13
8.4600072e+09 	2.689270e-13
8.4749976e+09 	2.678180e-13
8.4900096e+09 	2.667120e-13
8.505e+09     	2.656130e-13
8.5199904e+09 	2.645180e-13
8.5350024e+09 	2.634270e-13
8.5499928e+09 	2.623420e-13
8.5650048e+09 	2.612590e-13
8.5799952e+09 	2.601840e-13
8.5950072e+09 	2.591110e-13
8.6099976e+09 	2.580440e-13
8.6250096e+09 	2.569800e-13
8.64e+09      	2.559230e-13
8.6549904e+09 	2.548700e-13
8.6700024e+09 	2.538200e-13
8.6849928e+09 	2.527760e-13
8.7000048e+09 	2.517350e-13
8.7149952e+09 	2.507000e-13
8.7300072e+09 	2.496680e-13
8.7449976e+09 	2.486420e-13
8.7600096e+09 	2.476180e-13
8.775e+09     	2.466010e-13
8.7899904e+09 	2.455880e-13
8.8050024e+09 	2.445780e-13
8.8199928e+09 	2.435740e-13
8.8350048e+09 	2.425720e-13
8.8499952e+09 	2.415760e-13
8.8650072e+09 	2.405840e-13
8.8799976e+09 	2.395960e-13
8.8950096e+09 	2.386120e-13
8.91e+09      	2.376330e-13
8.9249904e+09 	2.366590e-13
8.9400024e+09 	2.356870e-13
8.9549928e+09 	2.347210e-13
8.9700048e+09 	2.337570e-13
8.9849952e+09 	2.327990e-13
9.0000072e+09 	2.318440e-13
9.0149976e+09 	2.308940e-13
9.0300096e+09 	2.299470e-13
9.045e+09     	2.290060e-13
9.0599904e+09 	2.280680e-13
9.0750024e+09 	2.271330e-13
9.0899928e+09 	2.262030e-13
9.1050048e+09 	2.252770e-13
9.1199952e+09 	2.243550e-13
9.1350072e+09 	2.234360e-13
9.1499976e+09 	2.225220e-13
9.1650096e+09 	2.216110e-13
9.18e+09      	2.207050e-13
9.1949904e+09 	2.198030e-13
9.2100024e+09 	2.189040e-13
9.2249928e+09 	2.180090e-13
9.2400048e+09 	2.171180e-13
9.2549952e+09 	2.162310e-13
9.2700072e+09 	2.153470e-13
9.2849976e+09 	2.144680e-13
9.3000096e+09 	2.135910e-13
9.315e+09     	2.127190e-13
9.3299904e+09 	2.118510e-13
9.3450024e+09 	2.109860e-13
9.3599928e+09 	2.101250e-13
9.3750048e+09 	2.092670e-13
9.3899952e+09 	2.084140e-13
9.4050072e+09 	2.075630e-13
9.4199976e+09 	2.067170e-13
9.4350096e+09 	2.058730e-13
9.45e+09      	2.050350e-13
