/*--------------------------------*- C++ -*----------------------------------*\
  =========                 |
  \\      /  F ield         | OpenFOAM: The Open Source CFD Toolbox
   \\    /   O peration     | Website:  https://openfoam.org
    \\  /    A nd           | Version:  7
     \\/     M anipulation  |
\*---------------------------------------------------------------------------*/
FoamFile
{
    version     2.0;
    format      ascii;
    class       volScalarField;
    location    "2219.9994734367051";
    object      p;
}
// * * * * * * * * * * * * * * * * * * * * * * * * * * * * * * * * * * * * * //

dimensions      [0 2 -2 0 0 0 0];

internalField   nonuniform List<scalar> 
4096
(
0.0005621
0.0003912
0.0003069
0.0002648
0.0002414
0.0002275
0.0002185
0.0002125
0.0002081
0.0002048
0.0002023
0.0002002
0.0001986
0.0001972
0.000196
0.000195
0.0001941
0.0001933
0.0001926
0.0001919
0.0001913
0.0001908
0.0001902
0.0001897
0.0001892
0.0001887
0.0001882
0.0001878
0.0001873
0.0001868
0.0001864
0.0001859
0.0001854
0.0001849
0.0001844
0.0001838
0.0001832
0.0001826
0.000182
0.0001812
0.0001804
0.0001796
0.0001786
0.0001775
0.0001763
0.0001749
0.0001734
0.0001717
0.0001697
0.0001675
0.0001651
0.0001624
0.0001594
0.0001561
0.0001524
0.0001484
0.0001441
0.0001395
0.0001346
0.0001294
0.000124
0.0001184
0.0001126
0.0001067
0.0001008
9.493e-05
8.911e-05
8.34e-05
7.786e-05
7.252e-05
6.741e-05
6.257e-05
5.8e-05
5.373e-05
4.975e-05
4.607e-05
4.269e-05
3.959e-05
3.677e-05
3.421e-05
3.19e-05
2.982e-05
2.795e-05
2.627e-05
2.477e-05
2.342e-05
2.221e-05
2.112e-05
2.014e-05
1.925e-05
1.844e-05
1.77e-05
1.701e-05
1.638e-05
1.578e-05
1.521e-05
1.468e-05
1.416e-05
1.366e-05
1.317e-05
1.27e-05
1.223e-05
1.176e-05
1.13e-05
1.085e-05
1.039e-05
9.933e-06
9.477e-06
9.019e-06
8.56e-06
8.098e-06
7.635e-06
7.169e-06
6.701e-06
6.23e-06
5.757e-06
5.281e-06
4.801e-06
4.319e-06
3.835e-06
3.347e-06
2.858e-06
2.368e-06
1.879e-06
1.393e-06
9.164e-07
4.611e-07
9.656e-08
0.0004176
0.0003539
0.0003041
0.000272
0.0002511
0.0002368
0.0002267
0.0002194
0.0002139
0.0002097
0.0002064
0.0002037
0.0002015
0.0001997
0.0001981
0.0001968
0.0001957
0.0001946
0.0001937
0.0001929
0.0001921
0.0001914
0.0001907
0.0001901
0.0001895
0.0001889
0.0001883
0.0001877
0.0001871
0.0001866
0.000186
0.0001854
0.0001848
0.0001842
0.0001836
0.000183
0.0001823
0.0001815
0.0001808
0.0001799
0.000179
0.000178
0.0001769
0.0001757
0.0001744
0.0001729
0.0001713
0.0001695
0.0001675
0.0001653
0.0001628
0.0001601
0.0001571
0.0001538
0.0001502
0.0001463
0.0001422
0.0001377
0.000133
0.000128
0.0001228
0.0001175
0.000112
0.0001064
0.0001008
9.521e-05
8.967e-05
8.424e-05
7.895e-05
7.385e-05
6.895e-05
6.429e-05
5.988e-05
5.574e-05
5.186e-05
4.826e-05
4.492e-05
4.185e-05
3.903e-05
3.645e-05
3.41e-05
3.197e-05
3.003e-05
2.828e-05
2.669e-05
2.525e-05
2.395e-05
2.276e-05
2.169e-05
2.07e-05
1.979e-05
1.896e-05
1.818e-05
1.745e-05
1.677e-05
1.613e-05
1.551e-05
1.492e-05
1.436e-05
1.381e-05
1.327e-05
1.275e-05
1.224e-05
1.173e-05
1.123e-05
1.074e-05
1.025e-05
9.759e-06
9.272e-06
8.786e-06
8.301e-06
7.817e-06
7.332e-06
6.846e-06
6.36e-06
5.873e-06
5.384e-06
4.895e-06
4.404e-06
3.913e-06
3.42e-06
2.927e-06
2.434e-06
1.943e-06
1.456e-06
9.765e-07
5.111e-07
1.172e-07
0.0003341
0.0003125
0.000287
0.0002663
0.0002507
0.000239
0.00023
0.000223
0.0002174
0.000213
0.0002093
0.0002063
0.0002038
0.0002017
0.0001999
0.0001984
0.000197
0.0001958
0.0001947
0.0001937
0.0001928
0.000192
0.0001912
0.0001904
0.0001897
0.000189
0.0001883
0.0001876
0.000187
0.0001863
0.0001857
0.000185
0.0001843
0.0001836
0.0001829
0.0001821
0.0001813
0.0001805
0.0001796
0.0001787
0.0001777
0.0001766
0.0001754
0.0001741
0.0001727
0.0001711
0.0001694
0.0001675
0.0001655
0.0001632
0.0001607
0.000158
0.000155
0.0001518
0.0001482
0.0001445
0.0001404
0.0001361
0.0001316
0.0001268
0.0001218
0.0001167
0.0001115
0.0001061
0.0001008
9.543e-05
9.014e-05
8.495e-05
7.989e-05
7.499e-05
7.029e-05
6.58e-05
6.154e-05
5.751e-05
5.373e-05
5.02e-05
4.692e-05
4.388e-05
4.107e-05
3.848e-05
3.611e-05
3.394e-05
3.196e-05
3.014e-05
2.849e-05
2.697e-05
2.559e-05
2.432e-05
2.316e-05
2.208e-05
2.109e-05
2.017e-05
1.931e-05
1.85e-05
1.774e-05
1.702e-05
1.634e-05
1.568e-05
1.505e-05
1.444e-05
1.385e-05
1.328e-05
1.272e-05
1.217e-05
1.162e-05
1.109e-05
1.057e-05
1.005e-05
9.53e-06
9.018e-06
8.509e-06
8.003e-06
7.498e-06
6.995e-06
6.494e-06
5.993e-06
5.492e-06
4.992e-06
4.493e-06
3.993e-06
3.494e-06
2.995e-06
2.497e-06
2.001e-06
1.507e-06
1.019e-06
5.373e-07
1.205e-07
0.0002894
0.0002824
0.000269
0.0002558
0.0002449
0.0002362
0.0002291
0.0002232
0.0002183
0.0002142
0.0002107
0.0002077
0.0002052
0.000203
0.0002011
0.0001995
0.000198
0.0001966
0.0001954
0.0001943
0.0001933
0.0001924
0.0001915
0.0001907
0.0001898
0.0001891
0.0001883
0.0001875
0.0001868
0.0001861
0.0001853
0.0001846
0.0001838
0.000183
0.0001822
0.0001814
0.0001805
0.0001796
0.0001786
0.0001776
0.0001765
0.0001753
0.000174
0.0001727
0.0001712
0.0001696
0.0001678
0.0001659
0.0001638
0.0001615
0.000159
0.0001563
0.0001533
0.0001501
0.0001467
0.000143
0.0001391
0.0001349
0.0001305
0.0001259
0.0001211
0.0001161
0.000111
0.0001059
0.0001007
9.557e-05
9.048e-05
8.547e-05
8.059e-05
7.586e-05
7.132e-05
6.697e-05
6.283e-05
5.891e-05
5.522e-05
5.176e-05
4.853e-05
4.553e-05
4.274e-05
4.016e-05
3.778e-05
3.559e-05
3.357e-05
3.172e-05
3.001e-05
2.844e-05
2.7e-05
2.567e-05
2.443e-05
2.329e-05
2.223e-05
2.124e-05
2.031e-05
1.943e-05
1.861e-05
1.782e-05
1.708e-05
1.636e-05
1.568e-05
1.502e-05
1.438e-05
1.376e-05
1.315e-05
1.256e-05
1.199e-05
1.142e-05
1.086e-05
1.031e-05
9.771e-06
9.235e-06
8.704e-06
8.178e-06
7.655e-06
7.137e-06
6.62e-06
6.107e-06
5.595e-06
5.085e-06
4.576e-06
4.068e-06
3.561e-06
3.056e-06
2.551e-06
2.047e-06
1.546e-06
1.046e-06
5.492e-07
1.178e-07
0.0002625
0.0002615
0.0002546
0.000246
0.0002382
0.0002316
0.0002261
0.0002214
0.0002174
0.0002138
0.0002108
0.0002081
0.0002057
0.0002036
0.0002017
0.0002
0.0001985
0.0001972
0.0001959
0.0001948
0.0001937
0.0001927
0.0001917
0.0001908
0.0001899
0.0001891
0.0001883
0.0001874
0.0001866
0.0001858
0.000185
0.0001842
0.0001834
0.0001825
0.0001816
0.0001807
0.0001798
0.0001788
0.0001777
0.0001766
0.0001755
0.0001742
0.0001729
0.0001715
0.0001699
0.0001683
0.0001665
0.0001645
0.0001624
0.0001601
0.0001576
0.0001549
0.000152
0.0001489
0.0001455
0.0001419
0.000138
0.0001339
0.0001296
0.0001251
0.0001204
0.0001156
0.0001107
0.0001057
0.0001007
9.566e-05
9.07e-05
8.584e-05
8.11e-05
7.651e-05
7.209e-05
6.785e-05
6.382e-05
5.999e-05
5.638e-05
5.299e-05
4.981e-05
4.684e-05
4.408e-05
4.151e-05
3.914e-05
3.694e-05
3.49e-05
3.302e-05
3.128e-05
2.968e-05
2.819e-05
2.681e-05
2.552e-05
2.433e-05
2.321e-05
2.216e-05
2.118e-05
2.025e-05
1.936e-05
1.853e-05
1.773e-05
1.697e-05
1.623e-05
1.553e-05
1.485e-05
1.419e-05
1.354e-05
1.292e-05
1.231e-05
1.171e-05
1.113e-05
1.055e-05
9.989e-06
9.431e-06
8.881e-06
8.337e-06
7.799e-06
7.265e-06
6.736e-06
6.211e-06
5.688e-06
5.168e-06
4.651e-06
4.135e-06
3.621e-06
3.109e-06
2.597e-06
2.086e-06
1.576e-06
1.066e-06
5.565e-07
1.147e-07
0.0002452
0.0002467
0.0002433
0.0002377
0.000232
0.0002269
0.0002226
0.0002188
0.0002155
0.0002126
0.00021
0.0002076
0.0002055
0.0002036
0.0002018
0.0002002
0.0001987
0.0001974
0.0001961
0.000195
0.0001939
0.0001928
0.0001918
0.0001909
0.00019
0.0001891
0.0001882
0.0001873
0.0001865
0.0001856
0.0001847
0.0001839
0.000183
0.0001821
0.0001811
0.0001802
0.0001792
0.0001781
0.000177
0.0001759
0.0001746
0.0001733
0.000172
0.0001705
0.0001689
0.0001672
0.0001654
0.0001634
0.0001613
0.000159
0.0001565
0.0001539
0.000151
0.0001479
0.0001446
0.000141
0.0001372
0.0001332
0.000129
0.0001246
0.00012
0.0001153
0.0001104
0.0001055
0.0001006
9.569e-05
9.084e-05
8.608e-05
8.145e-05
7.696e-05
7.264e-05
6.85e-05
6.455e-05
6.08e-05
5.726e-05
5.392e-05
5.079e-05
4.786e-05
4.512e-05
4.257e-05
4.021e-05
3.801e-05
3.597e-05
3.407e-05
3.231e-05
3.068e-05
2.916e-05
2.775e-05
2.643e-05
2.519e-05
2.403e-05
2.294e-05
2.191e-05
2.093e-05
2.001e-05
1.913e-05
1.829e-05
1.748e-05
1.671e-05
1.597e-05
1.525e-05
1.456e-05
1.388e-05
1.323e-05
1.259e-05
1.197e-05
1.136e-05
1.076e-05
1.018e-05
9.603e-06
9.036e-06
8.476e-06
7.924e-06
7.378e-06
6.837e-06
6.302e-06
5.77e-06
5.242e-06
4.717e-06
4.194e-06
3.673e-06
3.154e-06
2.636e-06
2.118e-06
1.6e-06
1.082e-06
5.623e-07
1.125e-07
0.0002333
0.0002357
0.0002344
0.0002308
0.0002266
0.0002226
0.0002191
0.000216
0.0002133
0.0002109
0.0002087
0.0002067
0.0002048
0.0002031
0.0002015
0.0002
0.0001986
0.0001973
0.0001961
0.000195
0.0001939
0.0001928
0.0001918
0.0001909
0.0001899
0.000189
0.0001881
0.0001872
0.0001863
0.0001854
0.0001845
0.0001836
0.0001827
0.0001817
0.0001807
0.0001797
0.0001787
0.0001776
0.0001764
0.0001752
0.000174
0.0001726
0.0001712
0.0001697
0.0001681
0.0001664
0.0001646
0.0001626
0.0001605
0.0001582
0.0001557
0.0001531
0.0001503
0.0001472
0.0001439
0.0001404
0.0001367
0.0001327
0.0001286
0.0001242
0.0001197
0.000115
0.0001102
0.0001054
0.0001005
9.567e-05
9.089e-05
8.621e-05
8.165e-05
7.724e-05
7.299e-05
6.893e-05
6.505e-05
6.136e-05
5.787e-05
5.458e-05
5.149e-05
4.86e-05
4.589e-05
4.336e-05
4.101e-05
3.882e-05
3.678e-05
3.488e-05
3.312e-05
3.147e-05
2.993e-05
2.849e-05
2.715e-05
2.588e-05
2.469e-05
2.356e-05
2.25e-05
2.149e-05
2.053e-05
1.962e-05
1.875e-05
1.791e-05
1.711e-05
1.633e-05
1.559e-05
1.486e-05
1.416e-05
1.349e-05
1.283e-05
1.218e-05
1.155e-05
1.094e-05
1.034e-05
9.745e-06
9.164e-06
8.592e-06
8.028e-06
7.472e-06
6.922e-06
6.377e-06
5.838e-06
5.303e-06
4.771e-06
4.242e-06
3.716e-06
3.191e-06
2.668e-06
2.145e-06
1.621e-06
1.096e-06
5.679e-07
1.115e-07
0.0002247
0.0002274
0.0002273
0.000225
0.000222
0.0002189
0.000216
0.0002134
0.0002111
0.0002091
0.0002072
0.0002055
0.0002039
0.0002024
0.0002009
0.0001996
0.0001983
0.0001971
0.0001959
0.0001948
0.0001938
0.0001927
0.0001918
0.0001908
0.0001898
0.0001889
0.000188
0.0001871
0.0001862
0.0001852
0.0001843
0.0001834
0.0001824
0.0001814
0.0001804
0.0001794
0.0001783
0.0001772
0.000176
0.0001748
0.0001735
0.0001721
0.0001707
0.0001692
0.0001676
0.0001658
0.000164
0.000162
0.0001599
0.0001576
0.0001552
0.0001526
0.0001498
0.0001467
0.0001435
0.00014
0.0001363
0.0001324
0.0001283
0.000124
0.0001195
0.0001148
0.0001101
0.0001052
0.0001004
9.56e-05
9.086e-05
8.623e-05
8.172e-05
7.736e-05
7.317e-05
6.916e-05
6.533e-05
6.17e-05
5.825e-05
5.501e-05
5.195e-05
4.909e-05
4.641e-05
4.39e-05
4.157e-05
3.939e-05
3.736e-05
3.547e-05
3.37e-05
3.205e-05
3.05e-05
2.905e-05
2.769e-05
2.64e-05
2.519e-05
2.404e-05
2.296e-05
2.192e-05
2.094e-05
2e-05
1.91e-05
1.824e-05
1.741e-05
1.661e-05
1.585e-05
1.51e-05
1.438e-05
1.369e-05
1.301e-05
1.235e-05
1.17e-05
1.107e-05
1.046e-05
9.856e-06
9.264e-06
8.682e-06
8.109e-06
7.544e-06
6.987e-06
6.436e-06
5.89e-06
5.35e-06
4.813e-06
4.28e-06
3.749e-06
3.221e-06
2.693e-06
2.166e-06
1.638e-06
1.108e-06
5.738e-07
1.12e-07
0.0002182
0.0002208
0.0002214
0.0002202
0.000218
0.0002156
0.0002132
0.000211
0.0002091
0.0002073
0.0002057
0.0002042
0.0002028
0.0002015
0.0002002
0.000199
0.0001978
0.0001967
0.0001956
0.0001946
0.0001936
0.0001926
0.0001916
0.0001906
0.0001897
0.0001888
0.0001879
0.0001869
0.000186
0.0001851
0.0001841
0.0001832
0.0001822
0.0001812
0.0001802
0.0001791
0.000178
0.0001769
0.0001757
0.0001744
0.0001731
0.0001718
0.0001703
0.0001688
0.0001672
0.0001655
0.0001636
0.0001617
0.0001596
0.0001573
0.0001549
0.0001523
0.0001495
0.0001465
0.0001433
0.0001399
0.0001362
0.0001323
0.0001282
0.0001239
0.0001194
0.0001147
0.0001099
0.0001051
0.0001003
9.548e-05
9.076e-05
8.614e-05
8.167e-05
7.735e-05
7.319e-05
6.922e-05
6.543e-05
6.182e-05
5.841e-05
5.52e-05
5.217e-05
4.934e-05
4.668e-05
4.42e-05
4.189e-05
3.973e-05
3.771e-05
3.583e-05
3.407e-05
3.242e-05
3.087e-05
2.942e-05
2.805e-05
2.676e-05
2.553e-05
2.438e-05
2.327e-05
2.222e-05
2.122e-05
2.027e-05
1.935e-05
1.847e-05
1.763e-05
1.681e-05
1.603e-05
1.527e-05
1.454e-05
1.383e-05
1.314e-05
1.246e-05
1.181e-05
1.117e-05
1.054e-05
9.932e-06
9.332e-06
8.743e-06
8.164e-06
7.594e-06
7.031e-06
6.475e-06
5.926e-06
5.382e-06
4.842e-06
4.306e-06
3.773e-06
3.242e-06
2.712e-06
2.182e-06
1.651e-06
1.118e-06
5.804e-07
1.143e-07
0.0002131
0.0002156
0.0002166
0.000216
0.0002145
0.0002127
0.0002107
0.0002089
0.0002072
0.0002056
0.0002042
0.0002029
0.0002017
0.0002005
0.0001994
0.0001983
0.0001972
0.0001962
0.0001952
0.0001942
0.0001933
0.0001923
0.0001914
0.0001905
0.0001895
0.0001886
0.0001877
0.0001868
0.0001859
0.000185
0.000184
0.000183
0.0001821
0.0001811
0.00018
0.0001789
0.0001778
0.0001767
0.0001755
0.0001743
0.0001729
0.0001716
0.0001701
0.0001686
0.000167
0.0001653
0.0001635
0.0001615
0.0001594
0.0001572
0.0001548
0.0001522
0.0001495
0.0001465
0.0001433
0.0001399
0.0001362
0.0001324
0.0001282
0.0001239
0.0001194
0.0001147
0.0001099
0.000105
0.0001001
9.531e-05
9.058e-05
8.597e-05
8.15e-05
7.719e-05
7.306e-05
6.91e-05
6.533e-05
6.175e-05
5.836e-05
5.516e-05
5.216e-05
4.935e-05
4.672e-05
4.426e-05
4.197e-05
3.984e-05
3.784e-05
3.598e-05
3.423e-05
3.26e-05
3.106e-05
2.961e-05
2.824e-05
2.695e-05
2.573e-05
2.456e-05
2.345e-05
2.24e-05
2.139e-05
2.042e-05
1.95e-05
1.861e-05
1.775e-05
1.693e-05
1.614e-05
1.537e-05
1.463e-05
1.391e-05
1.321e-05
1.253e-05
1.187e-05
1.122e-05
1.059e-05
9.973e-06
9.369e-06
8.775e-06
8.193e-06
7.619e-06
7.054e-06
6.496e-06
5.944e-06
5.398e-06
4.857e-06
4.32e-06
3.786e-06
3.254e-06
2.724e-06
2.193e-06
1.662e-06
1.127e-06
5.879e-07
1.183e-07
0.000209
0.0002114
0.0002125
0.0002124
0.0002115
0.0002101
0.0002085
0.000207
0.0002055
0.0002041
0.0002029
0.0002017
0.0002006
0.0001996
0.0001986
0.0001976
0.0001966
0.0001957
0.0001947
0.0001938
0.0001929
0.000192
0.0001911
0.0001903
0.0001894
0.0001885
0.0001876
0.0001867
0.0001858
0.0001849
0.0001839
0.000183
0.000182
0.000181
0.00018
0.0001789
0.0001778
0.0001766
0.0001755
0.0001742
0.0001729
0.0001716
0.0001701
0.0001686
0.000167
0.0001653
0.0001635
0.0001616
0.0001595
0.0001573
0.000155
0.0001524
0.0001497
0.0001467
0.0001435
0.0001401
0.0001365
0.0001326
0.0001284
0.000124
0.0001195
0.0001147
0.0001098
0.0001049
9.997e-05
9.509e-05
9.032e-05
8.569e-05
8.121e-05
7.69e-05
7.276e-05
6.881e-05
6.504e-05
6.147e-05
5.809e-05
5.491e-05
5.192e-05
4.913e-05
4.652e-05
4.409e-05
4.183e-05
3.972e-05
3.775e-05
3.591e-05
3.419e-05
3.258e-05
3.106e-05
2.962e-05
2.827e-05
2.698e-05
2.576e-05
2.46e-05
2.35e-05
2.244e-05
2.143e-05
2.046e-05
1.954e-05
1.864e-05
1.779e-05
1.696e-05
1.616e-05
1.539e-05
1.465e-05
1.392e-05
1.322e-05
1.254e-05
1.188e-05
1.123e-05
1.06e-05
9.977e-06
9.371e-06
8.777e-06
8.194e-06
7.62e-06
7.054e-06
6.496e-06
5.945e-06
5.399e-06
4.859e-06
4.322e-06
3.789e-06
3.258e-06
2.729e-06
2.199e-06
1.669e-06
1.135e-06
5.963e-07
1.242e-07
0.0002057
0.0002079
0.0002091
0.0002093
0.0002088
0.0002078
0.0002065
0.0002052
0.000204
0.0002028
0.0002017
0.0002006
0.0001996
0.0001987
0.0001978
0.0001969
0.000196
0.0001951
0.0001943
0.0001934
0.0001926
0.0001917
0.0001909
0.0001901
0.0001892
0.0001883
0.0001875
0.0001866
0.0001857
0.0001848
0.0001839
0.000183
0.000182
0.000181
0.00018
0.0001789
0.0001779
0.0001767
0.0001755
0.0001743
0.000173
0.0001717
0.0001703
0.0001688
0.0001672
0.0001655
0.0001638
0.0001619
0.0001599
0.0001577
0.0001553
0.0001528
0.0001501
0.0001472
0.000144
0.0001406
0.0001369
0.000133
0.0001288
0.0001243
0.0001197
0.0001148
0.0001098
0.0001048
9.977e-05
9.482e-05
8.999e-05
8.531e-05
8.08e-05
7.646e-05
7.231e-05
6.834e-05
6.456e-05
6.098e-05
5.76e-05
5.442e-05
5.144e-05
4.867e-05
4.609e-05
4.368e-05
4.145e-05
3.938e-05
3.744e-05
3.564e-05
3.395e-05
3.236e-05
3.087e-05
2.946e-05
2.812e-05
2.686e-05
2.565e-05
2.45e-05
2.341e-05
2.236e-05
2.136e-05
2.04e-05
1.947e-05
1.859e-05
1.773e-05
1.691e-05
1.611e-05
1.534e-05
1.46e-05
1.388e-05
1.318e-05
1.25e-05
1.184e-05
1.119e-05
1.056e-05
9.945e-06
9.341e-06
8.749e-06
8.167e-06
7.595e-06
7.032e-06
6.476e-06
5.927e-06
5.384e-06
4.846e-06
4.313e-06
3.782e-06
3.254e-06
2.727e-06
2.2e-06
1.673e-06
1.142e-06
6.058e-07
1.319e-07
0.000203
0.0002049
0.0002062
0.0002067
0.0002064
0.0002057
0.0002048
0.0002037
0.0002026
0.0002016
0.0002006
0.0001996
0.0001987
0.0001978
0.000197
0.0001962
0.0001954
0.0001946
0.0001938
0.000193
0.0001922
0.0001915
0.0001907
0.0001899
0.000189
0.0001882
0.0001874
0.0001866
0.0001857
0.0001848
0.0001839
0.000183
0.0001821
0.0001811
0.0001801
0.0001791
0.000178
0.0001769
0.0001758
0.0001746
0.0001733
0.000172
0.0001706
0.0001692
0.0001676
0.000166
0.0001643
0.0001624
0.0001604
0.0001583
0.000156
0.0001535
0.0001508
0.0001478
0.0001447
0.0001412
0.0001375
0.0001336
0.0001293
0.0001248
0.00012
0.000115
0.0001099
0.0001047
9.954e-05
9.448e-05
8.957e-05
8.482e-05
8.026e-05
7.588e-05
7.168e-05
6.768e-05
6.386e-05
6.026e-05
5.686e-05
5.368e-05
5.071e-05
4.795e-05
4.54e-05
4.303e-05
4.084e-05
3.881e-05
3.692e-05
3.516e-05
3.351e-05
3.196e-05
3.05e-05
2.912e-05
2.782e-05
2.658e-05
2.539e-05
2.427e-05
2.319e-05
2.216e-05
2.117e-05
2.022e-05
1.931e-05
1.843e-05
1.759e-05
1.677e-05
1.599e-05
1.523e-05
1.449e-05
1.378e-05
1.308e-05
1.241e-05
1.175e-05
1.111e-05
1.049e-05
9.877e-06
9.278e-06
8.691e-06
8.114e-06
7.547e-06
6.988e-06
6.437e-06
5.893e-06
5.354e-06
4.82e-06
4.291e-06
3.765e-06
3.241e-06
2.719e-06
2.197e-06
1.674e-06
1.147e-06
6.163e-07
1.415e-07
0.0002006
0.0002025
0.0002038
0.0002043
0.0002043
0.0002039
0.0002032
0.0002023
0.0002014
0.0002005
0.0001996
0.0001987
0.0001979
0.0001971
0.0001963
0.0001956
0.0001948
0.0001941
0.0001934
0.0001927
0.0001919
0.0001912
0.0001904
0.0001897
0.0001889
0.0001881
0.0001873
0.0001865
0.0001857
0.0001849
0.000184
0.0001831
0.0001822
0.0001813
0.0001803
0.0001793
0.0001783
0.0001772
0.0001761
0.0001749
0.0001737
0.0001725
0.0001711
0.0001697
0.0001682
0.0001666
0.000165
0.0001631
0.0001612
0.0001591
0.0001569
0.0001544
0.0001517
0.0001488
0.0001456
0.0001422
0.0001384
0.0001344
0.00013
0.0001254
0.0001205
0.0001153
0.00011
0.0001046
9.928e-05
9.408e-05
8.905e-05
8.421e-05
7.957e-05
7.512e-05
7.086e-05
6.679e-05
6.293e-05
5.928e-05
5.586e-05
5.266e-05
4.97e-05
4.696e-05
4.444e-05
4.212e-05
3.998e-05
3.8e-05
3.617e-05
3.446e-05
3.286e-05
3.137e-05
2.995e-05
2.862e-05
2.735e-05
2.614e-05
2.499e-05
2.39e-05
2.284e-05
2.184e-05
2.087e-05
1.994e-05
1.905e-05
1.819e-05
1.736e-05
1.656e-05
1.579e-05
1.504e-05
1.432e-05
1.362e-05
1.293e-05
1.227e-05
1.162e-05
1.099e-05
1.038e-05
9.775e-06
9.184e-06
8.605e-06
8.036e-06
7.475e-06
6.923e-06
6.379e-06
5.841e-06
5.309e-06
4.781e-06
4.258e-06
3.738e-06
3.221e-06
2.705e-06
2.189e-06
1.672e-06
1.152e-06
6.279e-07
1.53e-07
0.0001986
0.0002004
0.0002016
0.0002023
0.0002025
0.0002022
0.0002017
0.000201
0.0002003
0.0001995
0.0001987
0.0001979
0.0001972
0.0001964
0.0001957
0.000195
0.0001943
0.0001937
0.000193
0.0001923
0.0001916
0.0001909
0.0001902
0.0001895
0.0001888
0.0001881
0.0001873
0.0001866
0.0001858
0.000185
0.0001842
0.0001833
0.0001824
0.0001816
0.0001806
0.0001797
0.0001787
0.0001777
0.0001766
0.0001755
0.0001743
0.0001731
0.0001718
0.0001704
0.000169
0.0001675
0.0001659
0.0001641
0.0001623
0.0001603
0.0001581
0.0001556
0.000153
0.0001501
0.0001469
0.0001435
0.0001397
0.0001355
0.000131
0.0001262
0.0001211
0.0001157
0.0001102
0.0001045
9.898e-05
9.359e-05
8.842e-05
8.346e-05
7.87e-05
7.415e-05
6.979e-05
6.564e-05
6.17e-05
5.8e-05
5.454e-05
5.134e-05
4.838e-05
4.568e-05
4.32e-05
4.094e-05
3.886e-05
3.695e-05
3.519e-05
3.355e-05
3.202e-05
3.058e-05
2.923e-05
2.795e-05
2.673e-05
2.557e-05
2.446e-05
2.34e-05
2.238e-05
2.14e-05
2.047e-05
1.957e-05
1.87e-05
1.786e-05
1.706e-05
1.628e-05
1.552e-05
1.48e-05
1.409e-05
1.34e-05
1.274e-05
1.209e-05
1.145e-05
1.084e-05
1.023e-05
9.641e-06
9.061e-06
8.492e-06
7.933e-06
7.382e-06
6.839e-06
6.303e-06
5.774e-06
5.249e-06
4.73e-06
4.215e-06
3.703e-06
3.193e-06
2.684e-06
2.176e-06
1.667e-06
1.156e-06
6.405e-07
1.661e-07
0.000197
0.0001986
0.0001998
0.0002005
0.0002008
0.0002007
0.0002004
0.0001999
0.0001993
0.0001986
0.0001979
0.0001972
0.0001965
0.0001958
0.0001952
0.0001945
0.0001939
0.0001933
0.0001927
0.000192
0.0001914
0.0001907
0.0001901
0.0001894
0.0001887
0.0001881
0.0001873
0.0001866
0.0001859
0.0001851
0.0001844
0.0001836
0.0001827
0.0001819
0.000181
0.0001801
0.0001792
0.0001782
0.0001772
0.0001761
0.000175
0.0001739
0.0001726
0.0001714
0.00017
0.0001686
0.000167
0.0001654
0.0001636
0.0001617
0.0001596
0.0001572
0.0001546
0.0001518
0.0001486
0.0001451
0.0001412
0.000137
0.0001324
0.0001274
0.000122
0.0001163
0.0001104
0.0001045
9.864e-05
9.301e-05
8.764e-05
8.251e-05
7.761e-05
7.291e-05
6.843e-05
6.416e-05
6.013e-05
5.636e-05
5.287e-05
4.966e-05
4.673e-05
4.406e-05
4.165e-05
3.946e-05
3.747e-05
3.565e-05
3.398e-05
3.243e-05
3.098e-05
2.962e-05
2.833e-05
2.711e-05
2.595e-05
2.485e-05
2.379e-05
2.277e-05
2.18e-05
2.086e-05
1.996e-05
1.91e-05
1.826e-05
1.745e-05
1.668e-05
1.592e-05
1.52e-05
1.449e-05
1.38e-05
1.314e-05
1.249e-05
1.186e-05
1.124e-05
1.064e-05
1.005e-05
9.477e-06
8.911e-06
8.355e-06
7.807e-06
7.268e-06
6.737e-06
6.211e-06
5.692e-06
5.178e-06
4.668e-06
4.162e-06
3.659e-06
3.158e-06
2.659e-06
2.16e-06
1.66e-06
1.159e-06
6.539e-07
1.808e-07
0.0001955
0.000197
0.0001982
0.000199
0.0001994
0.0001994
0.0001992
0.0001989
0.0001984
0.0001978
0.0001972
0.0001966
0.0001959
0.0001953
0.0001947
0.0001941
0.0001935
0.000193
0.0001924
0.0001918
0.0001912
0.0001906
0.00019
0.0001894
0.0001887
0.0001881
0.0001874
0.0001867
0.0001861
0.0001853
0.0001846
0.0001839
0.0001831
0.0001823
0.0001815
0.0001806
0.0001797
0.0001788
0.0001779
0.0001769
0.0001759
0.0001748
0.0001736
0.0001725
0.0001712
0.0001699
0.0001684
0.0001669
0.0001652
0.0001634
0.0001614
0.0001592
0.0001567
0.0001539
0.0001508
0.0001472
0.0001433
0.0001389
0.0001341
0.0001289
0.0001232
0.0001172
0.0001108
0.0001045
9.823e-05
9.229e-05
8.666e-05
8.131e-05
7.62e-05
7.132e-05
6.667e-05
6.226e-05
5.813e-05
5.43e-05
5.078e-05
4.757e-05
4.468e-05
4.209e-05
3.977e-05
3.769e-05
3.581e-05
3.41e-05
3.254e-05
3.109e-05
2.974e-05
2.847e-05
2.727e-05
2.613e-05
2.504e-05
2.4e-05
2.3e-05
2.204e-05
2.111e-05
2.022e-05
1.937e-05
1.854e-05
1.774e-05
1.697e-05
1.623e-05
1.551e-05
1.481e-05
1.413e-05
1.347e-05
1.283e-05
1.221e-05
1.16e-05
1.1e-05
1.042e-05
9.847e-06
9.287e-06
8.737e-06
8.196e-06
7.663e-06
7.137e-06
6.618e-06
6.105e-06
5.597e-06
5.094e-06
4.596e-06
4.1e-06
3.608e-06
3.117e-06
2.628e-06
2.14e-06
1.651e-06
1.161e-06
6.682e-07
1.967e-07
0.0001943
0.0001957
0.0001969
0.0001977
0.0001981
0.0001983
0.0001982
0.0001979
0.0001975
0.0001971
0.0001965
0.000196
0.0001954
0.0001949
0.0001943
0.0001938
0.0001932
0.0001927
0.0001921
0.0001916
0.000191
0.0001905
0.0001899
0.0001893
0.0001887
0.0001881
0.0001875
0.0001869
0.0001863
0.0001856
0.0001849
0.0001842
0.0001835
0.0001828
0.000182
0.0001812
0.0001804
0.0001796
0.0001787
0.0001778
0.0001768
0.0001758
0.0001748
0.0001737
0.0001726
0.0001713
0.00017
0.0001686
0.0001671
0.0001655
0.0001636
0.0001616
0.0001592
0.0001565
0.0001535
0.00015
0.000146
0.0001415
0.0001365
0.000131
0.0001249
0.0001184
0.0001115
0.0001045
9.773e-05
9.136e-05
8.537e-05
7.971e-05
7.433e-05
6.922e-05
6.437e-05
5.982e-05
5.56e-05
5.172e-05
4.819e-05
4.503e-05
4.222e-05
3.973e-05
3.754e-05
3.56e-05
3.386e-05
3.23e-05
3.087e-05
2.956e-05
2.832e-05
2.716e-05
2.606e-05
2.5e-05
2.399e-05
2.302e-05
2.209e-05
2.119e-05
2.033e-05
1.949e-05
1.869e-05
1.791e-05
1.715e-05
1.643e-05
1.572e-05
1.503e-05
1.437e-05
1.372e-05
1.309e-05
1.248e-05
1.188e-05
1.13e-05
1.073e-05
1.017e-05
9.615e-06
9.075e-06
8.543e-06
8.018e-06
7.501e-06
6.991e-06
6.486e-06
5.987e-06
5.492e-06
5.002e-06
4.515e-06
4.031e-06
3.55e-06
3.071e-06
2.594e-06
2.117e-06
1.64e-06
1.163e-06
6.83e-07
2.138e-07
0.0001932
0.0001945
0.0001957
0.0001965
0.000197
0.0001972
0.0001973
0.0001971
0.0001968
0.0001964
0.000196
0.0001955
0.000195
0.0001945
0.000194
0.0001935
0.000193
0.0001925
0.0001919
0.0001914
0.0001909
0.0001904
0.0001899
0.0001893
0.0001888
0.0001882
0.0001877
0.0001871
0.0001865
0.0001859
0.0001853
0.0001846
0.000184
0.0001833
0.0001826
0.0001819
0.0001812
0.0001804
0.0001796
0.0001788
0.0001779
0.000177
0.0001761
0.0001751
0.0001741
0.000173
0.0001719
0.0001706
0.0001693
0.0001679
0.0001662
0.0001644
0.0001622
0.0001598
0.0001569
0.0001535
0.0001495
0.000145
0.0001398
0.0001339
0.0001274
0.0001202
0.0001125
0.0001046
9.709e-05
9.007e-05
8.356e-05
7.747e-05
7.176e-05
6.638e-05
6.135e-05
5.668e-05
5.24e-05
4.852e-05
4.504e-05
4.197e-05
3.929e-05
3.696e-05
3.495e-05
3.319e-05
3.164e-05
3.026e-05
2.899e-05
2.783e-05
2.673e-05
2.569e-05
2.47e-05
2.375e-05
2.283e-05
2.194e-05
2.109e-05
2.026e-05
1.946e-05
1.869e-05
1.794e-05
1.721e-05
1.651e-05
1.582e-05
1.516e-05
1.452e-05
1.389e-05
1.328e-05
1.268e-05
1.21e-05
1.153e-05
1.098e-05
1.043e-05
9.891e-06
9.364e-06
8.844e-06
8.331e-06
7.826e-06
7.326e-06
6.832e-06
6.343e-06
5.859e-06
5.378e-06
4.901e-06
4.427e-06
3.956e-06
3.488e-06
3.021e-06
2.556e-06
2.092e-06
1.628e-06
1.164e-06
6.982e-07
2.318e-07
0.0001923
0.0001935
0.0001946
0.0001955
0.000196
0.0001963
0.0001964
0.0001964
0.0001962
0.0001959
0.0001955
0.0001951
0.0001946
0.0001942
0.0001937
0.0001932
0.0001928
0.0001923
0.0001918
0.0001913
0.0001908
0.0001904
0.0001899
0.0001894
0.0001889
0.0001884
0.0001879
0.0001873
0.0001868
0.0001862
0.0001857
0.0001851
0.0001845
0.0001839
0.0001833
0.0001826
0.000182
0.0001813
0.0001806
0.0001798
0.0001791
0.0001783
0.0001775
0.0001767
0.0001758
0.0001749
0.0001739
0.0001729
0.0001718
0.0001705
0.0001692
0.0001676
0.0001658
0.0001636
0.000161
0.0001578
0.000154
0.0001496
0.0001443
0.0001382
0.0001312
0.0001231
0.0001142
0.000105
9.611e-05
8.804e-05
8.076e-05
7.415e-05
6.807e-05
6.249e-05
5.735e-05
5.266e-05
4.842e-05
4.462e-05
4.127e-05
3.837e-05
3.588e-05
3.378e-05
3.2e-05
3.048e-05
2.916e-05
2.799e-05
2.692e-05
2.592e-05
2.498e-05
2.408e-05
2.322e-05
2.238e-05
2.156e-05
2.077e-05
2e-05
1.925e-05
1.852e-05
1.781e-05
1.712e-05
1.646e-05
1.581e-05
1.518e-05
1.456e-05
1.396e-05
1.338e-05
1.28e-05
1.224e-05
1.17e-05
1.116e-05
1.063e-05
1.011e-05
9.6e-06
9.096e-06
8.599e-06
8.108e-06
7.622e-06
7.141e-06
6.665e-06
6.192e-06
5.723e-06
5.258e-06
4.795e-06
4.335e-06
3.877e-06
3.422e-06
2.968e-06
2.516e-06
2.064e-06
1.614e-06
1.164e-06
7.136e-07
2.503e-07
0.0001915
0.0001927
0.0001937
0.0001946
0.0001952
0.0001955
0.0001957
0.0001957
0.0001956
0.0001953
0.000195
0.0001947
0.0001943
0.0001939
0.0001935
0.000193
0.0001926
0.0001922
0.0001917
0.0001913
0.0001908
0.0001904
0.0001899
0.0001895
0.000189
0.0001885
0.0001881
0.0001876
0.0001871
0.0001866
0.0001861
0.0001856
0.0001851
0.0001845
0.000184
0.0001834
0.0001828
0.0001822
0.0001816
0.000181
0.0001803
0.0001797
0.000179
0.0001783
0.0001776
0.0001768
0.0001761
0.0001753
0.0001744
0.0001735
0.0001725
0.0001713
0.0001698
0.0001681
0.0001659
0.0001632
0.0001598
0.0001556
0.0001506
0.0001446
0.0001373
0.0001283
0.0001175
0.0001057
9.43e-05
8.442e-05
7.604e-05
6.888e-05
6.266e-05
5.713e-05
5.211e-05
4.759e-05
4.356e-05
3.998e-05
3.686e-05
3.421e-05
3.201e-05
3.02e-05
2.873e-05
2.75e-05
2.645e-05
2.553e-05
2.468e-05
2.388e-05
2.311e-05
2.236e-05
2.163e-05
2.091e-05
2.021e-05
1.952e-05
1.884e-05
1.817e-05
1.752e-05
1.689e-05
1.627e-05
1.566e-05
1.507e-05
1.45e-05
1.393e-05
1.338e-05
1.284e-05
1.231e-05
1.179e-05
1.127e-05
1.077e-05
1.027e-05
9.782e-06
9.298e-06
8.819e-06
8.346e-06
7.876e-06
7.411e-06
6.95e-06
6.491e-06
6.036e-06
5.583e-06
5.133e-06
4.685e-06
4.239e-06
3.795e-06
3.353e-06
2.913e-06
2.474e-06
2.036e-06
1.599e-06
1.164e-06
7.291e-07
2.69e-07
0.0001908
0.0001919
0.000193
0.0001938
0.0001944
0.0001948
0.000195
0.0001951
0.0001951
0.0001949
0.0001947
0.0001944
0.000194
0.0001937
0.0001933
0.0001929
0.0001925
0.0001921
0.0001916
0.0001912
0.0001908
0.0001904
0.00019
0.0001896
0.0001891
0.0001887
0.0001883
0.0001879
0.0001874
0.000187
0.0001865
0.0001861
0.0001856
0.0001852
0.0001847
0.0001842
0.0001837
0.0001832
0.0001827
0.0001822
0.0001816
0.0001811
0.0001805
0.00018
0.0001794
0.0001789
0.0001783
0.0001778
0.0001772
0.0001766
0.000176
0.0001752
0.0001743
0.0001731
0.0001715
0.0001694
0.0001667
0.0001634
0.0001593
0.0001542
0.0001477
0.0001387
0.0001247
0.000107
8.991e-05
7.702e-05
6.747e-05
6.047e-05
5.481e-05
4.988e-05
4.541e-05
4.142e-05
3.782e-05
3.461e-05
3.184e-05
2.955e-05
2.771e-05
2.628e-05
2.517e-05
2.429e-05
2.356e-05
2.291e-05
2.231e-05
2.172e-05
2.114e-05
2.056e-05
1.997e-05
1.938e-05
1.879e-05
1.821e-05
1.763e-05
1.705e-05
1.649e-05
1.593e-05
1.538e-05
1.484e-05
1.432e-05
1.38e-05
1.328e-05
1.278e-05
1.229e-05
1.18e-05
1.132e-05
1.084e-05
1.037e-05
9.908e-06
9.447e-06
8.991e-06
8.538e-06
8.088e-06
7.642e-06
7.197e-06
6.755e-06
6.316e-06
5.878e-06
5.442e-06
5.007e-06
4.574e-06
4.142e-06
3.712e-06
3.284e-06
2.857e-06
2.431e-06
2.007e-06
1.584e-06
1.163e-06
7.443e-07
2.877e-07
0.0001902
0.0001913
0.0001923
0.0001931
0.0001938
0.0001942
0.0001945
0.0001946
0.0001946
0.0001945
0.0001943
0.0001941
0.0001938
0.0001935
0.0001931
0.0001927
0.0001924
0.000192
0.0001916
0.0001912
0.0001908
0.0001905
0.0001901
0.0001897
0.0001893
0.0001889
0.0001885
0.0001882
0.0001878
0.0001874
0.000187
0.0001866
0.0001862
0.0001858
0.0001854
0.000185
0.0001846
0.0001842
0.0001838
0.0001833
0.0001829
0.0001825
0.0001821
0.0001817
0.0001813
0.000181
0.0001806
0.0001803
0.0001801
0.0001798
0.0001796
0.0001793
0.0001789
0.0001784
0.0001775
0.0001763
0.0001745
0.0001724
0.0001699
0.0001673
0.0001629
0.0001568
0.0001427
0.0001112
7.766e-05
6.244e-05
5.511e-05
5.002e-05
4.461e-05
4.063e-05
3.732e-05
3.423e-05
3.135e-05
2.868e-05
2.636e-05
2.449e-05
2.31e-05
2.21e-05
2.142e-05
2.093e-05
2.055e-05
2.021e-05
1.987e-05
1.95e-05
1.912e-05
1.87e-05
1.827e-05
1.781e-05
1.735e-05
1.687e-05
1.639e-05
1.592e-05
1.544e-05
1.496e-05
1.449e-05
1.402e-05
1.355e-05
1.309e-05
1.263e-05
1.218e-05
1.173e-05
1.129e-05
1.085e-05
1.041e-05
9.977e-06
9.544e-06
9.114e-06
8.685e-06
8.258e-06
7.833e-06
7.408e-06
6.985e-06
6.563e-06
6.141e-06
5.721e-06
5.301e-06
4.882e-06
4.464e-06
4.046e-06
3.63e-06
3.215e-06
2.801e-06
2.389e-06
1.978e-06
1.569e-06
1.163e-06
7.591e-07
3.06e-07
0.0001897
0.0001908
0.0001918
0.0001926
0.0001932
0.0001937
0.000194
0.0001942
0.0001942
0.0001942
0.000194
0.0001938
0.0001936
0.0001933
0.000193
0.0001927
0.0001923
0.000192
0.0001916