/*--------------------------------*- C++ -*----------------------------------*\
  =========                 |
  \\      /  F ield         | OpenFOAM: The Open Source CFD Toolbox
   \\    /   O peration     | Website:  https://openfoam.org
    \\  /    A nd           | Version:  7
     \\/     M anipulation  |
\*---------------------------------------------------------------------------*/
FoamFile
{
    version     2.0;
    format      ascii;
    class       surfaceScalarField;
    location    "2219.9994734367051";
    object      phi;
}
// * * * * * * * * * * * * * * * * * * * * * * * * * * * * * * * * * * * * * //

dimensions      [0 3 -1 0 0 0 0];

internalField   nonuniform List<scalar> 
8032
(
6.857e-10
2.518e-10
4.804e-10
2.053e-10
3.48e-10
1.324e-10
2.643e-10
8.372e-11
2.101e-10
5.417e-11
1.738e-10
3.639e-11
1.482e-10
2.553e-11
1.296e-10
1.868e-11
1.154e-10
1.417e-11
1.043e-10
1.107e-11
9.548e-11
8.838e-12
8.829e-11
7.181e-12
8.239e-11
5.91e-12
7.748e-11
4.909e-12
7.337e-11
4.105e-12
6.992e-11
3.447e-12
6.703e-11
2.898e-12
6.459e-11
2.435e-12
6.255e-11
2.039e-12
6.086e-11
1.694e-12
5.947e-11
1.392e-12
5.834e-11
1.123e-12
5.746e-11
8.797e-13
5.681e-11
6.578e-13
5.635e-11
4.521e-13
5.609e-11
2.59e-13
5.602e-11
7.502e-14
5.612e-11
-1.025e-13
5.64e-11
-2.762e-13
5.685e-11
-4.481e-13
5.747e-11
-6.201e-13
5.826e-11
-7.94e-13
5.923e-11
-9.713e-13
6.038e-11
-1.153e-12
6.172e-11
-1.34e-12
6.326e-11
-1.534e-12
6.499e-11
-1.735e-12
6.694e-11
-1.943e-12
6.91e-11
-2.158e-12
7.148e-11
-2.381e-12
7.408e-11
-2.609e-12
7.693e-11
-2.841e-12
8e-11
-3.077e-12
8.331e-11
-3.312e-12
8.686e-11
-3.545e-12
9.063e-11
-3.771e-12
9.462e-11
-3.985e-12
9.88e-11
-4.183e-12
1.032e-10
-4.359e-12
1.077e-10
-4.505e-12
1.123e-10
-4.615e-12
1.17e-10
-4.682e-12
1.217e-10
-4.698e-12
1.263e-10
-4.657e-12
1.309e-10
-4.551e-12
1.352e-10
-4.377e-12
1.394e-10
-4.13e-12
1.432e-10
-3.81e-12
1.466e-10
-3.418e-12
1.496e-10
-2.958e-12
1.52e-10
-2.438e-12
1.539e-10
-1.867e-12
1.551e-10
-1.259e-12
1.558e-10
-6.277e-13
1.557e-10
1.154e-14
1.551e-10
6.432e-13
1.538e-10
1.253e-12
1.52e-10
1.828e-12
1.497e-10
2.359e-12
1.468e-10
2.837e-12
1.436e-10
3.256e-12
1.4e-10
3.613e-12
1.36e-10
3.908e-12
1.319e-10
4.139e-12
1.276e-10
4.31e-12
1.232e-10
4.423e-12
1.187e-10
4.482e-12
1.142e-10
4.492e-12
1.097e-10
4.457e-12
1.054e-10
4.384e-12
1.011e-10
4.277e-12
9.694e-11
4.142e-12
9.295e-11
3.985e-12
8.914e-11
3.811e-12
8.552e-11
3.623e-12
8.209e-11
3.427e-12
7.886e-11
3.226e-12
7.584e-11
3.024e-12
7.302e-11
2.823e-12
7.039e-11
2.625e-12
6.796e-11
2.433e-12
6.571e-11
2.247e-12
6.364e-11
2.07e-12
6.174e-11
1.901e-12
6e-11
1.741e-12
5.841e-11
1.591e-12
5.696e-11
1.451e-12
5.564e-11
1.32e-12
5.444e-11
1.198e-12
5.335e-11
1.086e-12
5.237e-11
9.821e-13
5.149e-11
8.867e-13
5.069e-11
7.992e-13
4.997e-11
7.191e-13
4.932e-11
6.46e-13
4.874e-11
5.794e-13
4.822e-11
5.189e-13
4.776e-11
4.64e-13
4.734e-11
4.143e-13
4.698e-11
3.694e-13
4.665e-11
3.289e-13
4.635e-11
2.926e-13
4.609e-11
2.6e-13
4.586e-11
2.309e-13
4.566e-11
2.052e-13
4.547e-11
1.826e-13
4.531e-11
1.63e-13
4.517e-11
1.464e-13
4.503e-11
1.327e-13
4.491e-11
1.222e-13
4.48e-11
1.15e-13
4.468e-11
1.117e-13
4.457e-11
1.133e-13
4.445e-11
1.217e-13
4.431e-11
1.404e-13
4.413e-11
1.752e-13
4.39e-11
2.327e-13
3.025e-13
9.523e-10
2.37e-10
8.501e-10
3.075e-10
7.275e-10
2.55e-10
6.183e-10
1.929e-10
5.293e-10
1.431e-10
4.592e-10
1.066e-10
4.041e-10
8.063e-11
3.605e-10
6.226e-11
3.256e-10
4.905e-11
2.973e-10
3.933e-11
2.742e-10
3.201e-11
2.55e-10
2.636e-11
2.39e-10
2.192e-11
2.255e-10
1.836e-11
2.142e-10
1.545e-11
2.046e-10
1.304e-11
1.965e-10
1.101e-11
1.896e-10
9.283e-12
1.839e-10
7.795e-12
1.791e-10
6.497e-12
1.751e-10
5.351e-12
1.719e-10
4.326e-12
1.694e-10
3.399e-12
1.675e-10
2.55e-12
1.662e-10
1.762e-12
1.654e-10
1.021e-12
1.652e-10
3.147e-13
1.655e-10
-3.67e-13
1.662e-10
-1.033e-12
1.675e-10
-1.692e-12
1.692e-10
-2.35e-12
1.714e-10
-3.014e-12
1.741e-10
-3.69e-12
1.774e-10
-4.38e-12
1.811e-10
-5.091e-12
1.854e-10
-5.823e-12
1.902e-10
-6.579e-12
1.957e-10
-7.361e-12
2.017e-10
-8.166e-12
2.083e-10
-8.995e-12
2.155e-10
-9.842e-12
2.234e-10
-1.07e-11
2.319e-10
-1.157e-11
2.41e-10
-1.244e-11
2.507e-10
-1.329e-11
2.611e-10
-1.411e-11
2.72e-10
-1.489e-11
2.834e-10
-1.56e-11
2.953e-10
-1.622e-11
3.075e-10
-1.674e-11
3.2e-10
-1.711e-11
3.326e-10
-1.733e-11
3.453e-10
-1.736e-11
3.578e-10
-1.718e-11
3.7e-10
-1.677e-11
3.818e-10
-1.61e-11
3.928e-10
-1.518e-11
4.03e-10
-1.399e-11
4.121e-10
-1.254e-11
4.2e-10
-1.085e-11
4.265e-10
-8.944e-12
4.315e-10
-6.86e-12
4.349e-10
-4.641e-12
4.366e-10
-2.338e-12
4.366e-10
-6.854e-15
4.349e-10
2.3e-12
4.317e-10
4.531e-12
4.268e-10
6.642e-12
4.206e-10
8.595e-12
4.131e-10
1.036e-11
4.044e-10
1.192e-11
3.948e-10
1.325e-11
3.843e-10
1.436e-11
3.732e-10
1.524e-11
3.617e-10
1.59e-11
3.497e-10
1.634e-11
3.376e-10
1.659e-11
3.255e-10
1.666e-11
3.133e-10
1.656e-11
3.014e-10
1.632e-11
2.897e-10
1.595e-11
2.784e-10
1.548e-11
2.675e-10
1.492e-11
2.57e-10
1.429e-11
2.47e-10
1.362e-11
2.375e-10
1.29e-11
2.286e-10
1.217e-11
2.202e-10
1.143e-11
2.123e-10
1.069e-11
2.05e-10
9.958e-12
1.982e-10
9.246e-12
1.918e-10
8.557e-12
1.86e-10
7.895e-12
1.807e-10
7.264e-12
1.757e-10
6.667e-12
1.712e-10
6.103e-12
1.671e-10
5.574e-12
1.633e-10
5.08e-12
1.599e-10
4.621e-12
1.568e-10
4.195e-12
1.54e-10
3.801e-12
1.514e-10
3.438e-12
1.491e-10
3.105e-12
1.47e-10
2.799e-12
1.452e-10
2.519e-12
1.435e-10
2.264e-12
1.42e-10
2.032e-12
1.406e-10
1.821e-12
1.394e-10
1.629e-12
1.383e-10
1.456e-12
1.373e-10
1.3e-12
1.365e-10
1.159e-12
1.357e-10
1.033e-12
1.35e-10
9.198e-13
1.344e-10
8.197e-13
1.339e-10
7.315e-13
1.334e-10
6.549e-13
1.329e-10
5.895e-13
1.325e-10
5.354e-13
1.321e-10
4.927e-13
1.318e-10
4.622e-13
1.315e-10
4.451e-13
1.311e-10
4.436e-13
1.308e-10
4.606e-13
1.304e-10
5.007e-13
1.3e-10
5.692e-13
1.296e-10
6.652e-13
7.557e-13
9.779e-10
1.966e-10
9.637e-10
3.217e-10
9.013e-10
3.175e-10
8.211e-10
2.731e-10
7.408e-10
2.234e-10
6.678e-10
1.796e-10
6.043e-10
1.441e-10
5.503e-10
1.163e-10
5.047e-10
9.466e-11
4.662e-10
7.78e-11
4.337e-10
6.451e-11
4.062e-10
5.39e-11
3.828e-10
4.532e-11
3.629e-10
3.828e-11
3.459e-10
3.244e-11
3.314e-10
2.753e-11
3.19e-10
2.336e-11
3.085e-10
1.978e-11
2.997e-10
1.666e-11
2.922e-10
1.393e-11
2.861e-10
1.15e-11
2.811e-10
9.315e-12
2.772e-10
7.333e-12
2.742e-10
5.511e-12
2.721e-10
3.816e-12
2.709e-10
2.218e-12
2.706e-10
6.937e-13
2.71e-10
-7.79e-13
2.722e-10
-2.219e-12
2.741e-10
-3.642e-12
2.768e-10
-5.064e-12
2.803e-10
-6.497e-12
2.846e-10
-7.952e-12
2.896e-10
-9.439e-12
2.955e-10
-1.096e-11
3.022e-10
-1.254e-11
3.098e-10
-1.415e-11
3.183e-10
-1.582e-11
3.276e-10
-1.754e-11
3.379e-10
-1.931e-11
3.492e-10
-2.11e-11
3.614e-10
-2.293e-11
3.746e-10
-2.476e-11
3.888e-10
-2.659e-11
4.039e-10
-2.838e-11
4.199e-10
-3.01e-11
4.367e-10
-3.173e-11
4.543e-10
-3.321e-11
4.726e-10
-3.45e-11
4.914e-10
-3.556e-11
5.106e-10
-3.633e-11
5.301e-10
-3.675e-11
5.495e-10
-3.679e-11
5.687e-10
-3.637e-11
5.874e-10
-3.547e-11
6.053e-10
-3.404e-11
6.222e-10
-3.207e-11
6.378e-10
-2.954e-11
6.517e-10
-2.648e-11
6.638e-10
-2.291e-11
6.737e-10
-1.89e-11
6.813e-10
-1.451e-11
6.865e-10
-9.836e-12
6.892e-10
-4.991e-12
6.893e-10
-8.307e-14
6.868e-10
4.775e-12
6.818e-10
9.479e-12
6.746e-10
1.394e-11
6.651e-10
1.806e-11
6.536e-10
2.18e-11
6.405e-10
2.511e-11
6.257e-10
2.795e-11
6.098e-10
3.032e-11
5.928e-10
3.222e-11
5.751e-10
3.365e-11
5.568e-10
3.463e-11
5.382e-10
3.519e-11
5.195e-10
3.537e-11
5.008e-10
3.521e-11
4.824e-10
3.473e-11
4.644e-10
3.399e-11
4.468e-10
3.302e-11
4.299e-10
3.186e-11
4.136e-10
3.056e-11
3.981e-10
2.914e-11
3.834e-10
2.765e-11
3.694e-10
2.611e-11
3.563e-10
2.455e-11
3.44e-10
2.299e-11
3.325e-10
2.144e-11
3.218e-10
1.993e-11
3.119e-10
1.847e-11
3.027e-10
1.706e-11
2.943e-10
1.572e-11
2.865e-10
1.444e-11
2.794e-10
1.324e-11
2.728e-10
1.211e-11
2.669e-10
1.105e-11
2.614e-10
1.006e-11
2.565e-10
9.144e-12
2.52e-10
8.296e-12
2.479e-10
7.514e-12
2.442e-10
6.794e-12
2.409e-10
6.134e-12
2.379e-10
5.529e-12
2.352e-10
4.976e-12
2.327e-10
4.472e-12
2.305e-10
4.013e-12
2.286e-10
3.597e-12
2.268e-10
3.219e-12
2.252e-10
2.878e-12
2.238e-10
2.571e-12
2.226e-10
2.295e-12
2.214e-10
2.047e-12
2.204e-10
1.828e-12
2.195e-10
1.634e-12
2.187e-10
1.465e-12
2.18e-10
1.32e-12
2.173e-10
1.198e-12
2.167e-10
1.101e-12
2.161e-10
1.028e-12
2.156e-10
9.815e-13
2.151e-10
9.634e-13
2.146e-10
9.764e-13
2.14e-10
1.023e-12
2.135e-10
1.104e-12
2.13e-10
1.207e-12
1.291e-12
9.752e-10
1.589e-10
9.93e-10
3.039e-10
9.727e-10
3.377e-10
9.267e-10
3.191e-10
8.688e-10
2.814e-10
8.081e-10
2.403e-10
7.499e-10
2.023e-10
6.965e-10
1.696e-10
6.489e-10
1.423e-10
6.069e-10
1.198e-10
5.702e-10
1.012e-10
5.384e-10
8.578e-11
5.107e-10
7.299e-11
4.867e-10
6.225e-11
4.66e-10
5.317e-11
4.481e-10
4.542e-11
4.327e-10
3.874e-11
4.196e-10
3.294e-11
4.084e-10
2.786e-11
3.989e-10
2.335e-11
3.911e-10
1.933e-11
3.847e-10
1.569e-11
3.797e-10
1.237e-11
3.759e-10
9.301e-12
3.733e-10
6.438e-12
3.718e-10
3.732e-12
3.713e-10
1.144e-12
3.719e-10
-1.361e-12
3.735e-10
-3.812e-12
3.761e-10
-6.237e-12
3.797e-10
-8.658e-12
3.843e-10
-1.11e-11
3.899e-10
-1.357e-11
3.966e-10
-1.61e-11
4.043e-10
-1.869e-11
4.131e-10
-2.136e-11
4.231e-10
-2.41e-11
4.342e-10
-2.692e-11
4.464e-10
-2.982e-11
4.599e-10
-3.279e-11
4.746e-10
-3.582e-11
4.906e-10
-3.889e-11
5.078e-10
-4.196e-11
5.262e-10
-4.502e-11
5.459e-10
-4.801e-11
5.666e-10
-5.088e-11
5.885e-10
-5.358e-11
6.113e-10
-5.604e-11
6.35e-10
-5.818e-11
6.593e-10
-5.991e-11
6.842e-10
-6.117e-11
7.093e-10
-6.185e-11
7.343e-10
-6.186e-11
7.591e-10
-6.113e-11
7.832e-10
-5.958e-11
8.063e-10
-5.716e-11
8.281e-10
-5.383e-11
8.482e-10
-4.959e-11
8.661e-10
-4.444e-11
8.817e-10
-3.846e-11
8.945e-10
-3.173e-11
9.044e-10
-2.438e-11
9.111e-10
-1.656e-11
9.146e-10
-8.448e-12
9.147e-10
-2.296e-13
9.116e-10
7.909e-12
9.053e-10
1.579e-11
8.959e-10
2.327e-11
8.838e-10
3.02e-11
8.691e-10
3.649e-11
8.522e-10
4.205e-11
8.333e-10
4.686e-11
8.127e-10
5.087e-11
7.909e-10
5.409e-11
7.68e-10
5.653e-11
7.444e-10
5.823e-11
7.203e-10
5.923e-11
6.961e-10
5.958e-11
6.72e-10
5.935e-11
6.481e-10
5.859e-11
6.247e-10
5.739e-11
6.019e-10
5.58e-11
5.799e-10
5.39e-11
5.587e-10
5.174e-11
5.385e-10
4.94e-11
5.192e-10
4.691e-11
5.01e-10
4.435e-11
4.838e-10
4.173e-11
4.677e-10
3.912e-11
4.526e-10
3.653e-11
4.385e-10
3.399e-11
4.255e-10
3.153e-11
4.134e-10
2.915e-11
4.022e-10
2.688e-11
3.919e-10
2.473e-11
3.825e-10
2.269e-11
3.738e-10
2.077e-11
3.659e-10
1.897e-11
3.586e-10
1.73e-11
3.52e-10
1.574e-11
3.46e-10
1.43e-11
3.406e-10
1.296e-11
3.357e-10
1.173e-11
3.312e-10
1.061e-11
3.271e-10
9.571e-12
3.235e-10
8.624e-12
3.202e-10
7.759e-12
3.172e-10
6.972e-12
3.146e-10
6.256e-12
3.122e-10
5.607e-12
3.101e-10
5.02e-12
3.081e-10
4.489e-12
3.064e-10
4.013e-12
3.049e-10
3.585e-12
3.035e-10
3.205e-12
3.023e-10
2.868e-12
3.012e-10
2.573e-12
3.002e-10
2.318e-12
2.993e-10
2.103e-12
2.984e-10
1.927e-12
2.977e-10
1.791e-12
2.97e-10
1.695e-12
2.963e-10
1.641e-12
2.956e-10
1.631e-12
2.95e-10
1.663e-12
2.944e-10
1.734e-12
2.937e-10
1.825e-12
1.895e-12
9.668e-10
1.296e-10
9.944e-10
2.763e-10
9.978e-10
3.344e-10
9.779e-10
3.39e-10
9.422e-10
3.17e-10
8.982e-10
2.843e-10
8.512e-10
2.493e-10
8.048e-10
2.161e-10
7.608e-10
1.863e-10
7.203e-10
1.602e-10
6.837e-10
1.378e-10
6.509e-10
1.186e-10
6.218e-10
1.021e-10
5.961e-10
8.797e-11
5.735e-10
7.576e-11
5.537e-10
6.516e-11
5.366e-10
5.59e-11
5.218e-10
4.776e-11
5.091e-10
4.054e-11
4.983e-10
3.41e-11
4.894e-10
2.829e-11
4.821e-10
2.3e-11
4.763e-10
1.815e-11
4.719e-10
1.365e-11
4.689e-10
9.426e-12
4.672e-10
5.421e-12
4.668e-10
1.58e-12
4.676e-10
-2.146e-12
4.696e-10
-5.798e-12
4.728e-10
-9.414e-12
4.771e-10
-1.303e-11
4.827e-10
-1.667e-11
4.895e-10
-2.036e-11
4.975e-10
-2.413e-11
5.068e-10
-2.8e-11
5.174e-10
-3.196e-11
5.294e-10
-3.604e-11
5.427e-10
-4.024e-11
5.574e-10
-4.454e-11
5.736e-10
-4.894e-11
5.912e-10
-5.342e-11
6.102e-10
-5.796e-11
6.308e-10
-6.25e-11
6.527e-10
-6.7e-11
6.761e-10
-7.14e-11
7.009e-10
-7.563e-11
7.269e-10
-7.959e-11
7.541e-10
-8.319e-11
7.822e-10
-8.632e-11
8.111e-10
-8.886e-11
8.407e-10
-9.067e-11
8.704e-10
-9.164e-11
9.002e-10
-9.163e-11
9.296e-10
-9.052e-11
9.582e-10
-8.821e-11
9.857e-10
-8.462e-11
1.012e-09
-7.968e-11
1.035e-09
-7.339e-11
1.057e-09
-6.579e-11
1.075e-09
-5.694e-11
1.09e-09
-4.7e-11
1.102e-09
-3.613e-11
1.11e-09
-2.458e-11
1.114e-09
-1.259e-11
1.115e-09
-4.407e-13
1.111e-09
1.159e-11
1.103e-09
2.324e-11
1.092e-09
3.43e-11
1.078e-09
4.455e-11
1.061e-09
5.386e-11
1.041e-09
6.212e-11
1.018e-09
6.924e-11
9.939e-10
7.521e-11
9.679e-10
8.001e-11
9.408e-10
8.367e-11
9.128e-10
8.623e-11
8.843e-10
8.776e-11
8.555e-10
8.834e-11
8.268e-10
8.805e-11
7.984e-10
8.699e-11
7.705e-10
8.526e-11
7.434e-10
8.296e-11
7.171e-10
8.019e-11
6.918e-10
7.704e-11
6.676e-10
7.36e-11
6.445e-10
6.996e-11
6.227e-10
6.618e-11
6.021e-10
6.233e-11
5.827e-10
5.847e-11
5.646e-10
5.465e-11
5.477e-10
5.09e-11
5.32e-10
4.725e-11
5.174e-10
4.373e-11
5.039e-10
4.037e-11
4.915e-10
3.716e-11
4.801e-10
3.413e-11
4.696e-10
3.127e-11
4.599e-10
2.859e-11
4.511e-10
2.609e-11
4.431e-10
2.377e-11
4.358e-10
2.161e-11
4.292e-10
1.961e-11
4.231e-10
1.777e-11
4.177e-10
1.608e-11
4.127e-10
1.452e-11
4.082e-10
1.31e-11
4.042e-10
1.18e-11
4.006e-10
1.061e-11
3.973e-10
9.533e-12
3.943e-10
8.553e-12
3.917e-10
7.665e-12
3.893e-10
6.863e-12
3.872e-10
6.141e-12
3.853e-10
5.493e-12
3.836e-10
4.914e-12
3.82e-10
4.401e-12
3.807e-10
3.95e-12
3.794e-10
3.558e-12
3.783e-10
3.224e-12
3.773e-10
2.946e-12
3.763e-10
2.724e-12
3.755e-10
2.559e-12
3.747e-10
2.449e-12
3.739e-10
2.395e-12
3.732e-10
2.393e-12
3.725e-10
2.434e-12
3.718e-10
2.5e-12
2.553e-12
9.592e-10
1.08e-10
9.875e-10
2.479e-10
1.003e-09
3.192e-10
9.999e-10
3.416e-10
9.822e-10
3.348e-10
9.539e-10
3.125e-10
9.196e-10
2.836e-10
8.827e-10
2.53e-10
8.456e-10
2.234e-10
8.097e-10
1.961e-10
7.759e-10
1.715e-10
7.448e-10
1.497e-10
7.165e-10
1.305e-10
6.909e-10
1.135e-10
6.681e-10
9.856e-11
6.479e-10
8.537e-11
6.302e-10
7.367e-11
6.147e-10
6.325e-11
6.013e-10
5.391e-11
5.899e-10
4.549e-11
5.804e-10
3.783e-11
5.726e-10
3.081e-11
5.664e-10
2.433e-11
5.618e-10
1.827e-11
5.586e-10
1.257e-11
5.569e-10
7.14e-12
5.566e-10
1.913e-12
5.576e-10
-3.169e-12
5.6e-10
-8.161e-12
5.636e-10
-1.311e-11
5.687e-10
-1.807e-11
5.751e-10
-2.306e-11
5.828e-10
-2.813e-11
5.92e-10
-3.329e-11
6.026e-10
-3.859e-11
6.146e-10
-4.402e-11
6.282e-10
-4.961e-11
6.433e-10
-5.534e-11
6.6e-10
-6.123e-11
6.783e-10
-6.724e-11
6.982e-10
-7.336e-11
7.198e-10
-7.954e-11
7.43e-10
-8.572e-11
7.679e-10
-9.185e-11
7.943e-10
-9.784e-11
8.223e-10
-1.036e-10
8.517e-10
-1.09e-10
8.823e-10
-1.139e-10
9.141e-10
-1.181e-10
9.468e-10
-1.215e-10
9.801e-10
-1.24e-10
1.014e-09
-1.253e-10
1.047e-09
-1.253e-10
1.081e-09
-1.237e-10
1.113e-09
-1.206e-10
1.144e-09
-1.157e-10
1.173e-09
-1.089e-10
1.2e-09
-1.004e-10
1.224e-09
-8.999e-11
1.245e-09
-7.791e-11
1.263e-09
-6.432e-11
1.276e-09
-4.948e-11
1.285e-09
-3.368e-11
1.29e-09
-1.73e-11
1.29e-09
-6.972e-13
1.286e-09
1.574e-11
1.278e-09
3.167e-11
1.265e-09
4.677e-11
1.249e-09
6.078e-11
1.229e-09
7.35e-11
1.207e-09
8.478e-11
1.181e-09
9.453e-11
1.154e-09
1.027e-10
1.125e-09
1.093e-10
1.094e-09
1.143e-10
1.062e-09
1.179e-10
1.03e-09
1.2e-10
9.976e-10
1.208e-10
9.652e-10
1.205e-10
9.331e-10
1.191e-10
9.016e-10
1.168e-10
8.708e-10
1.137e-10
8.411e-10
1.099e-10
8.125e-10
1.057e-10
7.85e-10
1.01e-10
7.589e-10
9.608e-11
7.341e-10
9.095e-11
7.108e-10
8.572e-11
6.888e-10
8.046e-11
6.682e-10
7.525e-11
6.489e-10
7.013e-11
6.31e-10
6.516e-11
6.144e-10
6.035e-11
5.99e-10
5.575e-11
5.848e-10
5.136e-11
5.717e-10
4.721e-11
5.597e-10
4.329e-11
5.487e-10
3.962e-11
5.386e-10
3.618e-11
5.294e-10
3.298e-11
5.21e-10
3.001e-11
5.133e-10
2.726e-11
5.064e-10
2.472e-11
5.001e-10
2.239e-11
4.944e-10
2.024e-11
4.892e-10
1.827e-11
4.845e-10
1.647e-11
4.803e-10
1.483e-11
4.765e-10
1.334e-11
4.731e-10
1.198e-11
4.7e-10
1.074e-11
4.672e-10
9.629e-12
4.647e-10
8.624e-12
4.625e-10
7.72e-12
4.605e-10
6.912e-12
4.587e-10
6.193e-12
4.571e-10
5.559e-12
4.557e-10
5.006e-12
4.544e-10
4.529e-12
4.532e-10
4.128e-12
4.521e-10
3.801e-12
4.511e-10
3.545e-12
4.502e-10
3.36e-12
4.494e-10
3.243e-12
4.486e-10
3.189e-12
4.478e-10
3.187e-12
4.471e-10
3.219e-12
3.251e-12
9.536e-10
9.187e-11
9.794e-10
2.221e-10
9.994e-10
2.992e-10
1.007e-09
3.339e-10
1.002e-09
3.397e-10
9.871e-10
3.277e-10
9.646e-10
3.061e-10
9.376e-10
2.8e-10
9.084e-10
2.526e-10
8.787e-10
2.258e-10
8.496e-10
2.006e-10
8.219e-10
1.775e-10
7.959e-10
1.564e-10
7.72e-10
1.374e-10
7.503e-10
1.203e-10
7.308e-10
1.049e-10
7.134e-10
9.106e-11
6.981e-10
7.856e-11
6.848e-10
6.723e-11
6.734e-10
5.69e-11
6.638e-10
4.743e-11
6.559e-10
3.869e-11
6.497e-10
3.055e-11
6.45e-10
2.291e-11
6.419e-10
1.567e-11
6.403e-10
8.746e-12
6.402e-10
2.059e-12
6.415e-10
-4.464e-12
6.442e-10
-1.089e-11
6.484e-10
-1.727e-11
6.54e-10
-2.366e-11
6.61e-10
-3.011e-11
6.695e-10
-3.666e-11
6.796e-10
-4.334e-11
6.912e-10
-5.018e-11
7.044e-10
-5.72e-11
7.192e-10
-6.442e-11
7.357e-10
-7.183e-11
7.539e-10
-7.942e-11
7.738e-10
-8.718e-11
7.955e-10
-9.507e-11
8.19e-10
-1.03e-10
8.443e-10
-1.11e-10
8.713e-10
-1.189e-10
9.001e-10
-1.266e-10
9.306e-10
-1.34e-10
9.625e-10
-1.41e-10
9.959e-10
-1.473e-10
1.031e-09
-1.527e-10
1.066e-09
-1.572e-10
1.103e-09
-1.603e-10
1.139e-09
-1.62e-10
1.176e-09
-1.62e-10
1.212e-09
-1.601e-10
1.248e-09
-1.56e-10
1.282e-09
-1.497e-10
1.314e-09
-1.411e-10
1.344e-09
-1.3e-10
1.37e-09
-1.166e-10
1.393e-09
-1.01e-10
1.412e-09
-8.34e-11
1.427e-09
-6.417e-11
1.437e-09
-4.371e-11
1.442e-09
-2.248e-11
1.443e-09
-9.69e-13
1.438e-09
2.032e-11
1.429e-09
4.094e-11
1.415e-09
6.047e-11
1.397e-09
7.859e-11
1.376e-09
9.503e-11
1.351e-09
1.096e-10
1.323e-09
1.222e-10
1.293e-09
1.328e-10
1.261e-09
1.413e-10
1.228e-09
1.478e-10
1.193e-09
1.524e-10
1.158e-09
1.552e-10
1.122e-09
1.563e-10
1.087e-09
1.559e-10
1.052e-09
1.541e-10
1.018e-09
1.512e-10
9.842e-10
1.472e-10
9.517e-10
1.424e-10
9.205e-10
1.369e-10
8.905e-10
1.31e-10
8.62e-10
1.246e-10
8.35e-10
1.18e-10
8.094e-10
1.113e-10
7.854e-10
1.045e-10
7.629e-10
9.778e-11
7.418e-10
9.118e-11
7.222e-10
8.476e-11
7.04e-10
7.856e-11
6.872e-10
7.261e-11
6.716e-10
6.694e-11
6.572e-10
6.157e-11
6.44e-10
5.65e-11
6.319e-10
5.174e-11
6.208e-10
4.728e-11
6.106e-10
4.313e-11
6.014e-10
3.928e-11
5.929e-10
3.571e-11
5.852e-10
3.241e-11
5.783e-10
2.937e-11
5.719e-10
2.657e-11
5.662e-10
2.401e-11
5.61e-10
2.166e-11
5.563e-10
1.952e-11
5.521e-10
1.756e-11
5.483e-10
1.579e-11
5.449e-10
1.417e-11
5.418e-10
1.271e-11
5.39e-10
1.14e-11
5.365e-10
1.021e-11
5.343e-10
9.145e-12
5.323e-10
8.197e-12
5.305e-10
7.358e-12
5.289e-10
6.622e-12
5.274e-10
5.984e-12
5.261e-10
5.441e-12
5.249e-10
4.989e-12
5.238e-10
4.627e-12
5.228e-10
4.349e-12
5.219e-10
4.154e-12
5.211e-10
4.033e-12
5.203e-10
3.977e-12
5.195e-10
3.968e-12
3.977e-12
9.498e-10
7.962e-11
9.724e-10
1.995e-10
9.937e-10
2.779e-10
1.007e-09
3.203e-10
1.011e-09
3.358e-10
1.006e-09
3.33e-10
9.934e-10
3.187e-10
9.755e-10
2.978e-10
9.543e-10
2.738e-10
9.312e-10
2.489e-10
9.076e-10
2.243e-10
8.842e-10
2.008e-10
8.617e-10
1.789e-10
8.405e-10
1.586e-10
8.209e-10
1.399e-10
8.029e-10
1.229e-10
7.867e-10
1.073e-10
7.723e-10
9.298e-11
7.597e-10
7.988e-11
7.487e-10
6.782e-11
7.395e-10
5.665e-11
7.319e-10
4.626e-11
7.26e-10
3.651e-11
7.216e-10
2.731e-11
7.187e-10
1.854e-11
7.173e-10
1.012e-11
7.175e-10
1.945e-12
7.19e-10
-6.051e-12
7.221e-10
-1.395e-11
7.266e-10
-2.181e-11
7.327e-10
-2.969e-11
7.402e-10
-3.766e-11
7.493e-10
-4.576e-11
7.6e-10
-5.402e-11
7.723e-10
-6.248e-11
7.863e-10
-7.117e-11
8.02e-10
-8.01e-11
8.194e-10
-8.927e-11
8.387e-10
-9.867e-11
8.597e-10
-1.083e-10
8.827e-10
-1.18e-10
9.075e-10
-1.279e-10
9.343e-10
-1.377e-10
9.629e-10
-1.475e-10
9.933e-10
-1.571e-10
1.026e-09
-1.662e-10
1.059e-09
-1.748e-10
1.095e-09
-1.827e-10
1.132e-09
-1.895e-10
1.169e-09
-1.95e-10
1.208e-09
-1.99e-10
1.247e-09
-2.012e-10
1.286e-09
-2.012e-10
1.325e-09
-1.989e-10
1.363e-09
-1.94e-10
1.4e-09
-1.862e-10
1.434e-09
-1.755e-10
1.466e-09
-1.619e-10
1.495e-09
-1.452e-10
1.52e-09
-1.258e-10
1.54e-09
-1.04e-10
1.556e-09
-8.001e-11
1.567e-09
-5.45e-11
1.572e-09
-2.803e-11
1.573e-09
-1.216e-12
1.568e-09
2.531e-11
1.558e-09
5.096e-11
1.543e-09
7.525e-11
1.524e-09
9.774e-11
1.5e-09
1.181e-10
1.474e-09
1.362e-10
1.444e-09
1.518e-10
1.412e-09
1.649e-10
1.378e-09
1.754e-10
1.342e-09
1.835e-10
1.305e-09
1.892e-10
1.268e-09
1.926e-10
1.23e-09
1.94e-10
1.193e-09
1.935e-10
1.155e-09
1.913e-10
1.119e-09
1.877e-10
1.083e-09
1.828e-10
1.049e-09
1.769e-10
1.016e-09
1.701e-10
9.839e-10
1.627e-10
9.536e-10
1.548e-10
9.249e-10
1.467e-10
8.979e-10
1.384e-10
8.724e-10
1.3e-10
8.485e-10
1.217e-10
8.261e-10
1.135e-10
8.053e-10
1.056e-10
7.86e-10
9.789e-11
7.681e-10
9.052e-11
7.515e-10
8.35e-11
7.363e-10
7.684e-11
7.222e-10
7.055e-11
7.093e-10
6.464e-11
6.975e-10
5.912e-11
6.866e-10
5.396e-11
6.768e-10
4.917e-11
6.677e-10
4.472e-11
6.595e-10
4.062e-11
6.521e-10
3.683e-11
6.453e-10
3.335e-11
6.391e-10
3.015e-11
6.336e-10
2.723e-11
6.285e-10
2.455e-11
6.24e-10
2.211e-11
6.199e-10
1.989e-11
6.162e-10
1.787e-11
6.129e-10
1.604e-11
6.099e-10
1.438e-11
6.072e-10
1.289e-11
6.048e-10
1.156e-11
6.026e-10
1.036e-11
6.007e-10
9.299e-12
5.989e-10
8.364e-12
5.974e-10
7.55e-12
5.96e-10
6.849e-12
5.947e-10
6.259e-12
5.935e-10
5.775e-12
5.925e-10
5.392e-12
5.915e-10
5.105e-12
5.907e-10
4.908e-12
5.899e-10
4.788e-12
5.891e-10
4.732e-12
4.718e-12
9.471e-10
6.998e-11
9.667e-10
1.799e-10
9.877e-10
2.57e-10
1.004e-09
3.038e-10
1.014e-09
3.262e-10
1.016e-09
3.309e-10
1.011e-09
3.233e-10
1.001e-09
3.078e-10
9.873e-10
2.878e-10
9.707e-10
2.654e-10
9.527e-10
2.423e-10
9.341e-10
2.194e-10
9.157e-10
1.974e-10
8.978e-10
1.765e-10
8.808e-10
1.569e-10
8.65e-10
1.386e-10
8.506e-10
1.217e-10
8.376e-10
1.06e-10
8.261e-10
9.138e-11
8.161e-10
7.78e-11
8.077e-10
6.512e-11
8.007e-10
5.321e-11
7.953e-10
4.197e-11
7.913e-10
3.128e-11
7.888e-10
2.104e-11
7.878e-10
1.115e-11
7.882e-10
1.517e-12
7.901e-10
-7.94e-12
7.934e-10
-1.73e-11
7.983e-10
-2.665e-11
8.046e-10
-3.604e-11
8.125e-10
-4.555e-11
8.22e-10
-5.521e-11
8.33e-10
-6.509e-11
8.458e-10
-7.521e-11
8.602e-10
-8.561e-11
8.764e-10
-9.629e-11
8.944e-10
-1.073e-10
9.142e-10
-1.185e-10
9.36e-10
-1.3e-10
9.596e-10
-1.417e-10
9.853e-10
-1.535e-10
1.013e-09
-1.653e-10
1.042e-09
-1.771e-10
1.074e-09
-1.885e-10
1.107e-09
-1.996e-10
1.142e-09
-2.099e-10
1.179e-09
-2.194e-10
1.217e-09
-2.276e-10
1.257e-09
-2.344e-10
1.297e-09
-2.393e-10
1.338e-09
-2.42e-10
1.379e-09
-2.423e-10
1.419e-09
-2.396e-10
1.459e-09
-2.338e-10
1.498e-09
-2.247e-10
1.534e-09
-2.119e-10
1.568e-09
-1.955e-10
1.598e-09
-1.756e-10
1.624e-09
-1.522e-10
1.646e-09
-1.258e-10
1.663e-09
-9.68e-11
1.674e-09
-6.591e-11
1.68e-09
-3.384e-11
1.68e-09
-1.386e-12
1.675e-09
3.069e-11
1.664e-09
6.168e-11
1.649e-09
9.096e-11
1.628e-09
1.181e-10
1.604e-09
1.426e-10
1.576e-09
1.643e-10
1.545e-09
1.83e-10
1.511e-09
1.986e-10
1.475e-09
2.112e-10
1.438e-09
2.209e-10
1.399e-09
2.277e-10
1.36e-09
2.317e-10
1.321e-09
2.334e-10
1.282e-09
2.327e-10
1.243e-09
2.3e-10
1.205e-09
2.256e-10
1.168e-09
2.197e-10
1.132e-09
2.126e-10
1.098e-09
2.045e-10
1.065e-09
1.956e-10
1.034e-09
1.862e-10
1.004e-09
1.764e-10
9.759e-10
1.664e-10
9.495e-10
1.564e-10
9.248e-10
1.464e-10
9.017e-10
1.366e-10
8.802e-10
1.271e-10
8.602e-10
1.179e-10
8.416e-10
1.091e-10
8.245e-10
1.006e-10
8.087e-10
9.265e-11
7.941e-10
8.51e-11
7.808e-10
7.802e-11
7.685e-10
7.138e-11
7.573e-10
6.519e-11
7.47e-10
5.943e-11
7.376e-10
5.409e-11
7.291e-10
4.915e-11
7.213e-10
4.46e-11
7.143e-10
4.041e-11
7.079e-10
3.656e-11
7.021e-10
3.303e-11
6.968e-10
2.98e-11
6.921e-10
2.685e-11
6.878e-10
2.417e-11
6.839e-10
2.173e-11
6.805e-10
1.952e-11
6.773e-10
1.751e-11
6.745e-10
1.571e-11
6.72e-10
1.408e-11
6.697e-10
1.263e-11
6.677e-10
1.133e-11
6.659e-10
1.019e-11
6.642e-10
9.185e-12
6.628e-10
8.317e-12
6.614e-10
7.578e-12
6.602e-10
6.962e-12
6.592e-10
6.463e-12
6.582e-10
6.076e-12
6.573e-10
5.793e-12
6.565e-10
5.605e-12
6.557e-10
5.499e-12
5.459e-12
9.453e-10
6.217e-11
9.623e-10
1.629e-10
9.822e-10
2.372e-10
1e-09
2.86e-10
1.013e-09
3.132e-10
1.02e-09
3.237e-10
1.022e-09
3.218e-10
1.018e-09
3.113e-10
1.011e-09
2.953e-10
1e-09
2.759e-10
9.875e-10
2.549e-10
9.737e-10
2.332e-10
9.594e-10
2.117e-10
9.451e-10
1.908e-10
9.312e-10
1.708e-10
9.18e-10
1.518e-10
9.058e-10
1.339e-10
8.946e-10
1.171e-10
8.846e-10
1.014e-10
8.759e-10
8.653e-11
8.684e-10
7.254e-11
8.623e-10
5.93e-11
8.576e-10
4.67e-11
8.542e-10
3.465e-11
8.522e-10
2.304e-11
8.516e-10
1.177e-11
8.524e-10
7.438e-13
8.546e-10
-1.012e-11
8.582e-10
-2.091e-11
8.632e-10
-3.17e-11
8.698e-10
-4.258e-11
8.778e-10
-5.36e-11
8.874e-10
-6.482e-11
8.986e-10
-7.63e-11
9.115e-10
-8.807e-11
9.261e-10
-1.002e-10
9.424e-10
-1.126e-10
9.605e-10
-1.254e-10
9.805e-10
-1.385e-10
1.002e-09
-1.519e-10
1.026e-09
-1.656e-10
1.052e-09
-1.794e-10
1.08e-09
-1.932e-10
1.11e-09
-2.069e-10
1.142e-09
-2.204e-10
1.175e-09
-2.333e-10
1.211e-09
-2.455e-10
1.248e-09
-2.567e-10
1.287e-09
-2.665e-10
1.328e-09
-2.746e-10
1.369e-09
-2.805e-10
1.411e-09
-2.84e-10
1.453e-09
-2.845e-10
1.495e-09
-2.816e-10
1.536e-09
-2.751e-10
1.576e-09
-2.645e-10
1.614e-09
-2.498e-10
1.649e-09
-2.307e-10
1.681e-09
-2.073e-10
1.708e-09
-1.798e-10
1.731e-09
-1.486e-10
1.749e-09
-1.143e-10
1.761e-09
-7.779e-11
1.767e-09
-3.983e-11
1.767e-09
-1.418e-12
1.761e-09
3.649e-11
1.749e-09
7.304e-11
1.733e-09
1.075e-10
1.712e-09
1.393e-10
1.686e-09
1.68e-10
1.657e-09
1.934e-10
1.625e-09
2.153e-10
1.59e-09
2.335e-10
1.553e-09
2.482e-10
1.514e-09
2.593e-10
1.475e-09
2.672e-10
1.435e-09
2.719e-10
1.394e-09
2.736e-10
1.354e-09
2.728e-10
1.315e-09
2.696e-10
1.276e-09
2.644e-10
1.238e-09
2.574e-10
1.202e-09
2.49e-10
1.167e-09
2.394e-10
1.134e-09
2.29e-10
1.102e-09
2.179e-10
1.072e-09
2.065e-10
1.043e-09
1.948e-10
1.017e-09
1.831e-10
9.917e-10
1.714e-10
9.684e-10
1.6e-10
9.466e-10
1.488e-10
9.264e-10
1.381e-10
9.077e-10
1.278e-10
8.904e-10
1.179e-10
8.744e-10
1.086e-10
8.597e-10
9.981e-11
8.462e-10
9.154e-11
8.338e-10
8.378e-11
8.224e-10
7.655e-11
8.12e-10
6.982e-11
8.025e-10
6.357e-11
7.939e-10
5.78e-11
7.86e-10
5.247e-11
7.789e-10
4.756e-11
7.724e-10
4.305e-11
7.665e-10
3.892e-11
7.611e-10
3.514e-11
7.563e-10
3.168e-11
7.52e-10
2.853e-11
7.48e-10
2.566e-11
7.445e-10
2.306e-11
7.413e-10
2.071e-11
7.384e-10
1.858e-11
7.358e-10
1.666e-11
7.335e-10
1.494e-11
7.315e-10
1.341e-11
7.296e-10
1.205e-11
7.279e-10
1.085e-11
7.264e-10
9.808e-12
7.251e-10
8.913e-12
7.239e-10
8.159e-12
7.228e-10
7.538e-12
7.219e-10
7.045e-12
7.21e-10
6.672e-12
7.202e-10
6.411e-12
7.194e-10
6.253e-12
6.186e-12
9.44e-10
5.568e-11
9.589e-10
1.48e-10
9.774e-10
2.187e-10
9.955e-10
2.679e-10
1.011e-09
2.981e-10
1.021e-09
3.129e-10
1.027e-09
3.157e-10
1.029e-09
3.097e-10
1.027e-09
2.975e-10
1.022e-09
2.812e-10
1.014e-09
2.625e-10
1.005e-09
2.424e-10
9.946e-10
2.218e-10
9.84e-10
2.014e-10
9.733e-10
1.815e-10
9.629e-10
1.622e-10
9.53e-10
1.438e-10
9.439e-10
1.263e-10
9.356e-10
1.096e-10
9.283e-10
9.379e-11
9.222e-10
7.873e-11
9.171e-10
6.436e-11
9.132e-10
5.059e-11
9.105e-10
3.732e-11
9.091e-10
2.447e-11
9.089e-10
1.193e-11
9.101e-10
-3.804e-13
9.125e-10
-1.256e-11
9.163e-10
-2.47e-11
9.215e-10
-3.687e-11
9.281e-10
-4.916e-11
9.361e-10
-6.164e-11
9.456e-10
-7.436e-11
9.567e-10
-8.74e-11
9.694e-10
-1.008e-10
9.838e-10
-1.145e-10
9.999e-10
-1.287e-10
1.018e-09
-1.433e-10
1.037e-09
-1.582e-10
1.059e-09
-1.735e-10
1.083e-09
-1.891e-10
1.108e-09
-2.049e-10
1.136e-09
-2.207e-10
1.165e-09
-2.365e-10
1.197e-09
-2.52e-10
1.231e-09
-2.669e-10
1.266e-09
-2.81e-10
1.303e-09
-2.94e-10
1.342e-09
-3.054e-10
1.383e-09
-3.149e-10
1.424e-09
-3.22e-10
1.466e-09
-3.263e-10
1.509e-09
-3.272e-10
1.552e-09
-3.243e-10
1.594e-09
-3.172e-10
1.635e-09
-3.054e-10
1.674e-09
-2.886e-10
1.71e-09
-2.668e-10
1.743e-09
-2.4e-10
1.771e-09
-2.083e-10
1.795e-09
-1.722e-10
1.813e-09
-1.325e-10
1.825e-09
-9e-11
1.831e-09
-4.586e-11
1.831e-09
-1.238e-12
1.825e-09
4.272e-11
1.813e-09
8.499e-11
1.795e-09
1.247e-10
1.773e-09
1.613e-10
1.747e-09
1.943e-10
1.717e-09
2.233e-10
1.684e-09
2.483e-10
1.649e-09
2.69e-10
1.611e-09
2.857e-10
1.572e-09
2.984e-10
1.532e-09
3.072e-10
1.492e-09
3.124e-10
1.451e-09
3.142e-10
1.411e-09
3.131e-10
1.371e-09
3.093e-10
1.332e-09
3.032e-10
1.295e-09
2.95e-10
1.258e-09
2.853e-10
1.223e-09
2.743e-10
1.19e-09
2.623e-10
1.159e-09
2.495e-10
1.129e-09
2.364e-10
1.101e-09
2.229e-10
1.074e-09
2.095e-10
1.049e-09
1.962e-10
1.026e-09
1.831e-10
1.005e-09
1.703e-10
9.847e-10
1.581e-10
9.663e-10
1.463e-10
9.492e-10
1.35e-10
9.334e-10
1.244e-10
9.189e-10
1.143e-10
9.055e-10
1.049e-10
8.933e-10
9.603e-11
8.821e-10
8.776e-11
8.718e-10
8.008e-11
8.624e-10
7.294e-11
8.539e-10
6.635e-11
8.461e-10
6.025e-11
8.39e-10
5.464e-11
8.326e-10
4.949e-11
8.267e-10
4.475e-11
8.215e-10
4.042e-11
8.167e-10
3.647e-11
8.123e-10
3.286e-11
8.084e-10
2.957e-11
8.049e-10
2.658e-11
8.017e-10
2.388e-11
7.989e-10
2.143e-11
7.963e-10
1.922e-11
7.94e-10
1.724e-11
7.92e-10
1.547e-11
7.901e-10
1.389e-11
7.885e-10
1.25e-11
7.87e-10
1.128e-11
7.857e-10
1.023e-11
7.845e-10
9.336e-12
7.834e-10
8.591e-12
7.825e-10
7.99e-12
7.816e-10
7.525e-12
7.809e-10
7.19e-12
7.801e-10
6.979e-12
6.886e-12
9.43e-10
5.014e-11
9.562e-10
1.347e-10
9.734e-10
2.015e-10
9.913e-10
2.5e-10
1.007e-09
2.819e-10
1.021e-09
2.998e-10
1.03e-09
3.063e-10
1.036e-09
3.04e-10
1.038e-09
2.953e-10
1.037e-09
2.82e-10
1.034e-09
2.656e-10
1.029e-09
2.474e-10
1.023e-09
2.281e-10
1.016e-09
2.085e-10
1.008e-09
1.89e-10
1e-09
1.698e-10
9.931e-10
1.512e-10
9.861e-10
1.333e-10
9.797e-10
1.16e-10
9.741e-10
9.946e-11
9.692e-10
8.356e-11
9.653e-10
6.828e-11
9.624e-10
5.353e-11
9.605e-10
3.923e-11
9.596e-10
2.529e-11
9.599e-10
1.164e-11
9.614e-10
-1.837e-12
9.641e-10
-1.522e-11
9.679e-10
-2.859e-11
9.731e-10
-4.204e-11
9.796e-10
-5.565e-11
9.874e-10
-6.949e-11
9.967e-10
-8.363e-11
1.007e-09
-9.814e-11
1.02e-09
-1.13e-10
1.034e-09
-1.284e-10
1.049e-09
-1.442e-10
1.066e-09
-1.605e-10
1.085e-09
-1.772e-10
1.106e-09
-1.944e-10
1.129e-09
-2.119e-10
1.154e-09
-2.296e-10
1.18e-09
-2.474e-10
1.209e-09
-2.652e-10
1.24e-09
-2.827e-10
1.272e-09
-2.996e-10
1.307e-09
-3.157e-10
1.344e-09
-3.305e-10
1.382e-09
-3.437e-10
1.422e-09
-3.547e-10
1.463e-09
-3.631e-10
1.505e-09
-3.684e-10
1.547e-09
-3.699e-10
1.59e-09
-3.671e-10
1.632e-09
-3.595e-10
1.674e-09
-3.466e-10