/*--------------------------------*- C++ -*----------------------------------*\
  =========                 |
  \\      /  F ield         | OpenFOAM: The Open Source CFD Toolbox
   \\    /   O peration     | Website:  https://openfoam.org
    \\  /    A nd           | Version:  7
     \\/     M anipulation  |
\*---------------------------------------------------------------------------*/
FoamFile
{
    version     2.0;
    format      ascii;
    class       volVectorField;
    location    "2219.9994734367051";
    object      U;
}
// * * * * * * * * * * * * * * * * * * * * * * * * * * * * * * * * * * * * * //

dimensions      [0 1 -1 0 0 0 0];

internalField   nonuniform List<vector> 
4096
(
(0.001039 0.0001611 0)
(0.0007463 0.0001314 0)
(0.0005302 8.473e-05 0)
(0.0003919 5.358e-05 0)
(0.0003036 3.467e-05 0)
(0.0002457 2.329e-05 0)
(0.0002061 1.634e-05 0)
(0.0001778 1.195e-05 0)
(0.0001568 9.069e-06 0)
(0.0001406 7.082e-06 0)
(0.0001279 5.657e-06 0)
(0.0001176 4.596e-06 0)
(0.0001092 3.782e-06 0)
(0.0001023 3.142e-06 0)
(9.654e-05 2.627e-06 0)
(9.171e-05 2.206e-06 0)
(8.765e-05 1.855e-06 0)
(8.423e-05 1.559e-06 0)
(8.137e-05 1.305e-06 0)
(7.898e-05 1.084e-06 0)
(7.701e-05 8.908e-07 0)
(7.54e-05 7.185e-07 0)
(7.412e-05 5.63e-07 0)
(7.313e-05 4.21e-07 0)
(7.242e-05 2.894e-07 0)
(7.197e-05 1.657e-07 0)
(7.175e-05 4.801e-08 0)
(7.177e-05 -6.563e-08 0)
(7.201e-05 -1.768e-07 0)
(7.248e-05 -2.868e-07 0)
(7.316e-05 -3.969e-07 0)
(7.406e-05 -5.082e-07 0)
(7.519e-05 -6.216e-07 0)
(7.655e-05 -7.379e-07 0)
(7.815e-05 -8.579e-07 0)
(7.999e-05 -9.819e-07 0)
(8.208e-05 -1.11e-06 0)
(8.444e-05 -1.244e-06 0)
(8.706e-05 -1.381e-06 0)
(8.997e-05 -1.524e-06 0)
(9.316e-05 -1.669e-06 0)
(9.665e-05 -1.818e-06 0)
(0.0001004 -1.969e-06 0)
(0.0001045 -2.12e-06 0)
(0.0001089 -2.269e-06 0)
(0.0001136 -2.413e-06 0)
(0.0001186 -2.551e-06 0)
(0.0001238 -2.677e-06 0)
(0.0001293 -2.79e-06 0)
(0.0001349 -2.883e-06 0)
(0.0001408 -2.954e-06 0)
(0.0001467 -2.997e-06 0)
(0.0001527 -3.007e-06 0)
(0.0001587 -2.98e-06 0)
(0.0001646 -2.913e-06 0)
(0.0001703 -2.801e-06 0)
(0.0001758 -2.643e-06 0)
(0.0001808 -2.439e-06 0)
(0.0001855 -2.188e-06 0)
(0.0001895 -1.893e-06 0)
(0.000193 -1.56e-06 0)
(0.0001958 -1.195e-06 0)
(0.0001978 -8.058e-07 0)
(0.000199 -4.017e-07 0)
(0.0001994 7.384e-09 0)
(0.0001989 4.117e-07 0)
(0.0001977 8.02e-07 0)
(0.0001958 1.17e-06 0)
(0.0001931 1.51e-06 0)
(0.0001897 1.815e-06 0)
(0.0001858 2.084e-06 0)
(0.0001815 2.312e-06 0)
(0.0001766 2.501e-06 0)
(0.0001715 2.649e-06 0)
(0.0001661 2.759e-06 0)
(0.0001605 2.831e-06 0)
(0.0001548 2.869e-06 0)
(0.000149 2.875e-06 0)
(0.0001433 2.853e-06 0)
(0.0001377 2.806e-06 0)
(0.0001321 2.737e-06 0)
(0.0001267 2.651e-06 0)
(0.0001215 2.55e-06 0)
(0.0001165 2.439e-06 0)
(0.0001118 2.319e-06 0)
(0.0001073 2.193e-06 0)
(0.000103 2.065e-06 0)
(9.901e-05 1.935e-06 0)
(9.527e-05 1.807e-06 0)
(9.178e-05 1.68e-06 0)
(8.855e-05 1.557e-06 0)
(8.555e-05 1.438e-06 0)
(8.279e-05 1.325e-06 0)
(8.025e-05 1.217e-06 0)
(7.791e-05 1.114e-06 0)
(7.578e-05 1.018e-06 0)
(7.383e-05 9.285e-07 0)
(7.206e-05 8.447e-07 0)
(7.045e-05 7.669e-07 0)
(6.899e-05 6.949e-07 0)
(6.766e-05 6.285e-07 0)
(6.647e-05 5.675e-07 0)
(6.539e-05 5.115e-07 0)
(6.442e-05 4.602e-07 0)
(6.354e-05 4.135e-07 0)
(6.276e-05 3.708e-07 0)
(6.206e-05 3.321e-07 0)
(6.143e-05 2.97e-07 0)
(6.087e-05 2.652e-07 0)
(6.036e-05 2.364e-07 0)
(5.992e-05 2.105e-07 0)
(5.952e-05 1.872e-07 0)
(5.917e-05 1.664e-07 0)
(5.885e-05 1.478e-07 0)
(5.857e-05 1.313e-07 0)
(5.832e-05 1.169e-07 0)
(5.81e-05 1.043e-07 0)
(5.791e-05 9.369e-08 0)
(5.773e-05 8.495e-08 0)
(5.756e-05 7.818e-08 0)
(5.741e-05 7.358e-08 0)
(5.727e-05 7.148e-08 0)
(5.712e-05 7.251e-08 0)
(5.697e-05 7.788e-08 0)
(5.68e-05 8.984e-08 0)
(5.66e-05 1.121e-07 0)
(5.634e-05 1.49e-07 0)
(5.6e-05 1.936e-07 0)
(0.001209 0.0003128 0)
(0.001154 0.0003282 0)
(0.00101 0.000248 0)
(0.0008613 0.0001771 0)
(0.0007345 0.0001262 0)
(0.0006326 9.148e-05 0)
(0.0005525 6.794e-05 0)
(0.0004893 5.18e-05 0)
(0.0004391 4.046e-05 0)
(0.0003987 3.225e-05 0)
(0.0003658 2.614e-05 0)
(0.0003387 2.147e-05 0)
(0.0003161 1.781e-05 0)
(0.0002973 1.489e-05 0)
(0.0002814 1.251e-05 0)
(0.000268 1.055e-05 0)
(0.0002567 8.901e-06 0)
(0.0002471 7.5e-06 0)
(0.000239 6.294e-06 0)
(0.0002323 5.242e-06 0)
(0.0002267 4.315e-06 0)
(0.0002221 3.487e-06 0)
(0.0002184 2.739e-06 0)
(0.0002156 2.053e-06 0)
(0.0002136 1.417e-06 0)
(0.0002122 8.191e-07 0)
(0.0002116 2.494e-07 0)
(0.0002116 -3.005e-07 0)
(0.0002123 -8.38e-07 0)
(0.0002135 -1.37e-06 0)
(0.0002155 -1.901e-06 0)
(0.000218 -2.437e-06 0)
(0.0002211 -2.983e-06 0)
(0.0002249 -3.541e-06 0)
(0.0002294 -4.116e-06 0)
(0.0002346 -4.709e-06 0)
(0.0002404 -5.321e-06 0)
(0.000247 -5.954e-06 0)
(0.0002543 -6.608e-06 0)
(0.0002624 -7.28e-06 0)
(0.0002712 -7.969e-06 0)
(0.0002809 -8.669e-06 0)
(0.0002914 -9.375e-06 0)
(0.0003026 -1.008e-05 0)
(0.0003147 -1.077e-05 0)
(0.0003276 -1.144e-05 0)
(0.0003411 -1.208e-05 0)
(0.0003554 -1.266e-05 0)
(0.0003703 -1.317e-05 0)
(0.0003857 -1.359e-05 0)
(0.0004016 -1.391e-05 0)
(0.0004177 -1.409e-05 0)
(0.0004339 -1.412e-05 0)
(0.00045 -1.398e-05 0)
(0.0004658 -1.364e-05 0)
(0.0004811 -1.311e-05 0)
(0.0004957 -1.236e-05 0)
(0.0005093 -1.139e-05 0)
(0.0005216 -1.021e-05 0)
(0.0005325 -8.837e-06 0)
(0.0005417 -7.285e-06 0)
(0.0005491 -5.585e-06 0)
(0.0005545 -3.776e-06 0)
(0.0005577 -1.898e-06 0)
(0.0005588 2.997e-09 0)
(0.0005578 1.884e-06 0)
(0.0005546 3.702e-06 0)
(0.0005494 5.421e-06 0)
(0.0005424 7.01e-06 0)
(0.0005336 8.446e-06 0)
(0.0005232 9.71e-06 0)
(0.0005115 1.079e-05 0)
(0.0004986 1.169e-05 0)
(0.0004848 1.24e-05 0)
(0.0004703 1.293e-05 0)
(0.0004553 1.329e-05 0)
(0.0004399 1.349e-05 0)
(0.0004244 1.354e-05 0)
(0.0004088 1.345e-05 0)
(0.0003934 1.325e-05 0)
(0.0003783 1.295e-05 0)
(0.0003636 1.256e-05 0)
(0.0003494 1.21e-05 0)
(0.0003356 1.159e-05 0)
(0.0003225 1.103e-05 0)
(0.0003101 1.045e-05 0)
(0.0002983 9.854e-06 0)
(0.0002872 9.25e-06 0)
(0.0002768 8.647e-06 0)
(0.000267 8.054e-06 0)
(0.000258 7.475e-06 0)
(0.0002496 6.915e-06 0)
(0.0002418 6.378e-06 0)
(0.0002347 5.866e-06 0)
(0.0002281 5.381e-06 0)
(0.000222 4.924e-06 0)
(0.0002165 4.496e-06 0)
(0.0002115 4.096e-06 0)
(0.0002069 3.724e-06 0)
(0.0002027 3.38e-06 0)
(0.0001989 3.061e-06 0)
(0.0001955 2.768e-06 0)
(0.0001924 2.498e-06 0)
(0.0001895 2.252e-06 0)
(0.000187 2.026e-06 0)
(0.0001847 1.82e-06 0)
(0.0001827 1.633e-06 0)
(0.0001809 1.462e-06 0)
(0.0001792 1.308e-06 0)
(0.0001777 1.168e-06 0)
(0.0001764 1.042e-06 0)
(0.0001752 9.289e-07 0)
(0.0001742 8.272e-07 0)
(0.0001733 7.365e-07 0)
(0.0001724 6.559e-07 0)
(0.0001717 5.851e-07 0)
(0.000171 5.235e-07 0)
(0.0001704 4.71e-07 0)
(0.0001699 4.276e-07 0)
(0.0001694 3.935e-07 0)
(0.0001689 3.694e-07 0)
(0.0001685 3.564e-07 0)
(0.0001681 3.564e-07 0)
(0.0001676 3.726e-07 0)
(0.0001672 4.103e-07 0)
(0.0001667 4.764e-07 0)
(0.0001662 5.747e-07 0)
(0.0001656 6.772e-07 0)
(0.001226 0.0002775 0)
(0.001243 0.0004026 0)
(0.001194 0.0003664 0)
(0.001102 0.0002983 0)
(0.0009997 0.0002346 0)
(0.0009015 0.0001831 0)
(0.0008141 0.0001438 0)
(0.000739 0.0001143 0)
(0.0006752 9.197e-05 0)
(0.0006214 7.496e-05 0)
(0.000576 6.177e-05 0)
(0.0005375 5.137e-05 0)
(0.0005049 4.303e-05 0)
(0.0004772 3.625e-05 0)
(0.0004536 3.065e-05 0)
(0.0004334 2.596e-05 0)
(0.0004162 2.2e-05 0)
(0.0004016 1.86e-05 0)
(0.0003892 1.565e-05 0)
(0.0003788 1.307e-05 0)
(0.0003701 1.078e-05 0)
(0.000363 8.73e-06 0)
(0.0003573 6.869e-06 0)
(0.0003529 5.159e-06 0)
(0.0003497 3.57e-06 0)
(0.0003476 2.073e-06 0)
(0.0003466 6.454e-07 0)
(0.0003466 -7.335e-07 0)
(0.0003476 -2.081e-06 0)
(0.0003496 -3.414e-06 0)
(0.0003526 -4.745e-06 0)
(0.0003566 -6.087e-06 0)
(0.0003615 -7.451e-06 0)
(0.0003675 -8.844e-06 0)
(0.0003745 -1.028e-05 0)
(0.0003825 -1.175e-05 0)
(0.0003917 -1.327e-05 0)
(0.000402 -1.484e-05 0)
(0.0004134 -1.645e-05 0)
(0.000426 -1.811e-05 0)
(0.0004398 -1.981e-05 0)
(0.0004548 -2.153e-05 0)
(0.0004711 -2.326e-05 0)
(0.0004886 -2.498e-05 0)
(0.0005073 -2.667e-05 0)
(0.0005272 -2.83e-05 0)
(0.0005482 -2.983e-05 0)
(0.0005702 -3.123e-05 0)
(0.0005932 -3.246e-05 0)
(0.000617 -3.347e-05 0)
(0.0006413 -3.42e-05 0)
(0.000666 -3.462e-05 0)
(0.0006909 -3.465e-05 0)
(0.0007156 -3.427e-05 0)
(0.0007399 -3.343e-05 0)
(0.0007633 -3.209e-05 0)
(0.0007856 -3.023e-05 0)
(0.0008064 -2.786e-05 0)
(0.0008252 -2.497e-05 0)
(0.0008419 -2.161e-05 0)
(0.000856 -1.782e-05 0)
(0.0008672 -1.367e-05 0)
(0.0008755 -9.265e-06 0)
(0.0008805 -4.691e-06 0)
(0.0008822 -5.755e-08 0)
(0.0008807 4.528e-06 0)
(0.0008759 8.967e-06 0)
(0.0008681 1.317e-05 0)
(0.0008574 1.706e-05 0)
(0.000844 2.058e-05 0)
(0.0008282 2.37e-05 0)
(0.0008104 2.637e-05 0)
(0.0007907 2.86e-05 0)
(0.0007697 3.037e-05 0)
(0.0007474 3.171e-05 0)
(0.0007244 3.262e-05 0)
(0.0007008 3.314e-05 0)
(0.0006769 3.33e-05 0)
(0.000653 3.313e-05 0)
(0.0006293 3.267e-05 0)
(0.0006059 3.196e-05 0)
(0.0005832 3.104e-05 0)
(0.0005611 2.994e-05 0)
(0.0005399 2.87e-05 0)
(0.0005195 2.737e-05 0)
(0.0005001 2.596e-05 0)
(0.0004818 2.45e-05 0)
(0.0004644 2.303e-05 0)
(0.0004482 2.155e-05 0)
(0.000433 2.01e-05 0)
(0.0004188 1.867e-05 0)
(0.0004056 1.73e-05 0)
(0.0003934 1.597e-05 0)
(0.0003821 1.471e-05 0)
(0.0003717 1.351e-05 0)
(0.0003622 1.238e-05 0)
(0.0003534 1.132e-05 0)
(0.0003454 1.032e-05 0)
(0.0003381 9.396e-06 0)
(0.0003315 8.537e-06 0)
(0.0003254 7.742e-06 0)
(0.0003199 7.009e-06 0)
(0.000315 6.335e-06 0)
(0.0003105 5.717e-06 0)
(0.0003064 5.151e-06 0)
(0.0003028 4.634e-06 0)
(0.0002995 4.162e-06 0)
(0.0002965 3.734e-06 0)
(0.0002938 3.345e-06 0)
(0.0002914 2.992e-06 0)
(0.0002893 2.674e-06 0)
(0.0002874 2.387e-06 0)
(0.0002857 2.129e-06 0)
(0.0002842 1.899e-06 0)
(0.0002828 1.694e-06 0)
(0.0002816 1.514e-06 0)
(0.0002805 1.357e-06 0)
(0.0002795 1.222e-06 0)
(0.0002786 1.11e-06 0)
(0.0002778 1.02e-06 0)
(0.000277 9.537e-07 0)
(0.0002763 9.131e-07 0)
(0.0002756 9.005e-07 0)
(0.000275 9.197e-07 0)
(0.0002743 9.753e-07 0)
(0.0002736 1.071e-06 0)
(0.0002729 1.198e-06 0)
(0.0002723 1.31e-06 0)
(0.001224 0.0002275 0)
(0.00126 0.0004003 0)
(0.001258 0.0004193 0)
(0.001216 0.000379 0)
(0.001149 0.000323 0)
(0.001073 0.0002687 0)
(0.0009971 0.0002217 0)
(0.0009257 0.000183 0)
(0.000861 0.0001517 0)
(0.0008037 0.0001264 0)
(0.0007534 0.000106 0)
(0.0007095 8.94e-05 0)
(0.0006714 7.571e-05 0)
(0.0006383 6.434e-05 0)
(0.0006097 5.479e-05 0)
(0.000585 4.669e-05 0)
(0.0005637 3.975e-05 0)
(0.0005455 3.374e-05 0)
(0.0005299 2.849e-05 0)
(0.0005167 2.386e-05 0)
(0.0005056 1.973e-05 0)
(0.0004965 1.6e-05 0)
(0.0004892 1.261e-05 0)
(0.0004836 9.48e-06 0)
(0.0004795 6.562e-06 0)
(0.0004768 3.808e-06 0)
(0.0004756 1.176e-06 0)
(0.0004757 -1.37e-06 0)
(0.000477 -3.86e-06 0)
(0.0004797 -6.323e-06 0)
(0.0004837 -8.782e-06 0)
(0.0004889 -1.126e-05 0)
(0.0004955 -1.378e-05 0)
(0.0005033 -1.635e-05 0)
(0.0005125 -1.898e-05 0)
(0.0005231 -2.169e-05 0)
(0.0005351 -2.448e-05 0)
(0.0005486 -2.736e-05 0)
(0.0005636 -3.031e-05 0)
(0.0005801 -3.334e-05 0)
(0.0005981 -3.643e-05 0)
(0.0006178 -3.956e-05 0)
(0.000639 -4.271e-05 0)
(0.0006618 -4.583e-05 0)
(0.0006861 -4.889e-05 0)
(0.000712 -5.183e-05 0)
(0.0007393 -5.46e-05 0)
(0.0007679 -5.712e-05 0)
(0.0007976 -5.931e-05 0)
(0.0008284 -6.11e-05 0)
(0.0008599 -6.24e-05 0)
(0.0008918 -6.31e-05 0)
(0.0009239 -6.313e-05 0)
(0.0009558 -6.24e-05 0)
(0.0009871 -6.083e-05 0)
(0.001017 -5.837e-05 0)
(0.001046 -5.498e-05 0)
(0.001073 -5.064e-05 0)
(0.001097 -4.539e-05 0)
(0.001119 -3.928e-05 0)
(0.001137 -3.24e-05 0)
(0.001151 -2.489e-05 0)
(0.001162 -1.689e-05 0)
(0.001168 -8.601e-06 0)
(0.001171 -2.001e-07 0)
(0.001169 8.118e-06 0)
(0.001163 1.617e-05 0)
(0.001153 2.381e-05 0)
(0.001139 3.089e-05 0)
(0.001122 3.731e-05 0)
(0.001102 4.299e-05 0)
(0.001079 4.788e-05 0)
(0.001053 5.196e-05 0)
(0.001026 5.523e-05 0)
(0.0009976 5.771e-05 0)
(0.0009679 5.943e-05 0)
(0.0009374 6.043e-05 0)
(0.0009065 6.077e-05 0)
(0.0008756 6.051e-05 0)
(0.0008449 5.973e-05 0)
(0.0008146 5.848e-05 0)
(0.0007851 5.684e-05 0)
(0.0007564 5.488e-05 0)
(0.0007287 5.267e-05 0)
(0.0007022 5.027e-05 0)
(0.0006769 4.772e-05 0)
(0.0006529 4.509e-05 0)
(0.0006303 4.242e-05 0)
(0.0006089 3.975e-05 0)
(0.000589 3.71e-05 0)
(0.0005703 3.451e-05 0)
(0.000553 3.2e-05 0)
(0.0005369 2.958e-05 0)
(0.000522 2.727e-05 0)
(0.0005082 2.507e-05 0)
(0.0004956 2.299e-05 0)
(0.000484 2.104e-05 0)
(0.0004734 1.921e-05 0)
(0.0004637 1.751e-05 0)
(0.0004548 1.593e-05 0)
(0.0004468 1.446e-05 0)
(0.0004395 1.311e-05 0)
(0.0004328 1.186e-05 0)
(0.0004268 1.071e-05 0)
(0.0004213 9.663e-06 0)
(0.0004164 8.704e-06 0)
(0.000412 7.828e-06 0)
(0.000408 7.03e-06 0)
(0.0004044 6.306e-06 0)
(0.0004011 5.649e-06 0)
(0.0003982 5.055e-06 0)
(0.0003956 4.518e-06 0)
(0.0003933 4.037e-06 0)
(0.0003912 3.605e-06 0)
(0.0003894 3.221e-06 0)
(0.0003877 2.881e-06 0)
(0.0003862 2.584e-06 0)
(0.0003849 2.328e-06 0)
(0.0003836 2.113e-06 0)
(0.0003825 1.938e-06 0)
(0.0003815 1.804e-06 0)
(0.0003806 1.713e-06 0)
(0.0003797 1.667e-06 0)
(0.0003788 1.669e-06 0)
(0.000378 1.719e-06 0)
(0.0003772 1.816e-06 0)
(0.0003764 1.94e-06 0)
(0.0003756 2.039e-06 0)
(0.001219 0.0001846 0)
(0.001255 0.0003713 0)
(0.001275 0.0004302 0)
(0.001264 0.0004212 0)
(0.001229 0.0003829 0)
(0.001178 0.0003357 0)
(0.00112 0.0002891 0)
(0.00106 0.0002469 0)
(0.001002 0.0002103 0)
(0.0009479 0.0001792 0)
(0.0008986 0.0001529 0)
(0.0008542 0.0001308 0)
(0.0008145 0.0001121 0)
(0.0007794 9.614e-05 0)
(0.0007485 8.251e-05 0)
(0.0007214 7.077e-05 0)
(0.0006978 6.057e-05 0)
(0.0006773 5.165e-05 0)
(0.0006597 4.378e-05 0)
(0.0006447 3.677e-05 0)
(0.0006321 3.047e-05 0)
(0.0006217 2.476e-05 0)
(0.0006133 1.953e-05 0)
(0.0006068 1.469e-05 0)
(0.0006022 1.015e-05 0)
(0.0005992 5.858e-06 0)
(0.0005978 1.743e-06 0)
(0.000598 -2.244e-06 0)
(0.0005998 -6.15e-06 0)
(0.0006031 -1.002e-05 0)
(0.0006079 -1.388e-05 0)
(0.0006143 -1.777e-05 0)
(0.0006222 -2.172e-05 0)
(0.0006317 -2.575e-05 0)
(0.0006428 -2.988e-05 0)
(0.0006555 -3.412e-05 0)
(0.00067 -3.849e-05 0)
(0.0006861 -4.298e-05 0)
(0.0007041 -4.759e-05 0)
(0.0007238 -5.231e-05 0)
(0.0007454 -5.712e-05 0)
(0.0007689 -6.198e-05 0)
(0.0007942 -6.686e-05 0)
(0.0008214 -7.169e-05 0)
(0.0008505 -7.642e-05 0)
(0.0008813 -8.097e-05 0)
(0.0009138 -8.523e-05 0)
(0.0009478 -8.911e-05 0)
(0.0009832 -9.248e-05 0)
(0.00102 -9.521e-05 0)
(0.001057 -9.718e-05 0)
(0.001095 -9.823e-05 0)
(0.001133 -9.823e-05 0)
(0.001171 -9.706e-05 0)
(0.001208 -9.459e-05 0)
(0.001244 -9.074e-05 0)
(0.001278 -8.545e-05 0)
(0.00131 -7.871e-05 0)
(0.001339 -7.055e-05 0)
(0.001364 -6.106e-05 0)
(0.001386 -5.039e-05 0)
(0.001403 -3.873e-05 0)
(0.001416 -2.633e-05 0)
(0.001424 -1.346e-05 0)
(0.001427 -4.29e-07 0)
(0.001424 1.248e-05 0)
(0.001417 2.498e-05 0)
(0.001405 3.684e-05 0)
(0.001389 4.784e-05 0)
(0.001369 5.782e-05 0)
(0.001345 6.667e-05 0)
(0.001318 7.43e-05 0)
(0.001288 8.069e-05 0)
(0.001256 8.582e-05 0)
(0.001222 8.973e-05 0)
(0.001186 9.245e-05 0)
(0.00115 9.407e-05 0)
(0.001113 9.467e-05 0)
(0.001077 9.433e-05 0)
(0.00104 9.317e-05 0)
(0.001004 9.129e-05 0)
(0.0009689 8.881e-05 0)
(0.0009347 8.581e-05 0)
(0.0009017 8.242e-05 0)
(0.00087 7.872e-05 0)
(0.0008398 7.48e-05 0)
(0.000811 7.074e-05 0)
(0.0007839 6.66e-05 0)
(0.0007583 6.246e-05 0)
(0.0007343 5.835e-05 0)
(0.0007119 5.433e-05 0)
(0.000691 5.042e-05 0)
(0.0006716 4.665e-05 0)
(0.0006537 4.304e-05 0)
(0.0006371 3.961e-05 0)
(0.0006218 3.636e-05 0)
(0.0006078 3.331e-05 0)
(0.0005949 3.044e-05 0)
(0.0005831 2.777e-05 0)
(0.0005723 2.528e-05 0)
(0.0005625 2.298e-05 0)
(0.0005536 2.085e-05 0)
(0.0005455 1.888e-05 0)
(0.0005381 1.708e-05 0)
(0.0005314 1.542e-05 0)
(0.0005254 1.39e-05 0)
(0.00052 1.252e-05 0)
(0.000515 1.125e-05 0)
(0.0005106 1.01e-05 0)
(0.0005066 9.062e-06 0)
(0.0005031 8.118e-06 0)
(0.0004998 7.266e-06 0)
(0.000497 6.498e-06 0)
(0.0004944 5.81e-06 0)
(0.0004921 5.196e-06 0)
(0.00049 4.652e-06 0)
(0.0004881 4.175e-06 0)
(0.0004864 3.761e-06 0)
(0.0004849 3.409e-06 0)
(0.0004836 3.119e-06 0)
(0.0004823 2.89e-06 0)
(0.0004812 2.722e-06 0)
(0.0004801 2.618e-06 0)
(0.0004791 2.576e-06 0)
(0.0004781 2.596e-06 0)
(0.0004772 2.668e-06 0)
(0.0004763 2.768e-06 0)
(0.0004755 2.846e-06 0)
(0.001214 0.000152 0)
(0.001246 0.0003355 0)
(0.001274 0.0004183 0)
(0.001282 0.0004356 0)
(0.001269 0.0004171 0)
(0.001239 0.000382 0)
(0.001199 0.0003411 0)
(0.001154 0.0003002 0)
(0.001106 0.0002622 0)
(0.001059 0.0002281 0)
(0.001015 0.000198 0)
(0.0009733 0.0001717 0)
(0.0009352 0.0001488 0)
(0.0009007 0.0001289 0)
(0.0008698 0.0001116 0)
(0.0008423 9.634e-05 0)
(0.000818 8.293e-05 0)
(0.0007967 7.105e-05 0)
(0.0007782 6.045e-05 0)
(0.0007624 5.093e-05 0)
(0.000749 4.231e-05 0)
(0.0007379 3.444e-05 0)
(0.0007289 2.719e-05 0)
(0.000722 2.043e-05 0)
(0.000717 1.408e-05 0)
(0.0007139 8.039e-06 0)
(0.0007126 2.235e-06 0)
(0.0007131 -3.401e-06 0)
(0.0007152 -8.934e-06 0)
(0.0007191 -1.442e-05 0)
(0.0007247 -1.99e-05 0)
(0.000732 -2.543e-05 0)
(0.0007411 -3.103e-05 0)
(0.0007519 -3.675e-05 0)
(0.0007645 -4.261e-05 0)
(0.000779 -4.863e-05 0)
(0.0007954 -5.481e-05 0)
(0.0008138 -6.117e-05 0)
(0.0008341 -6.769e-05 0)
(0.0008565 -7.436e-05 0)
(0.000881 -8.114e-05 0)
(0.0009076 -8.8e-05 0)
(0.0009362 -9.486e-05 0)
(0.000967 -0.0001017 0)
(0.0009998 -0.0001083 0)
(0.001035 -0.0001147 0)
(0.001071 -0.0001207 0)
(0.00111 -0.0001261 0)
(0.00115 -0.0001308 0)
(0.001191 -0.0001346 0)
(0.001233 -0.0001374 0)
(0.001276 -0.0001388 0)
(0.001319 -0.0001388 0)
(0.001362 -0.0001371 0)
(0.001404 -0.0001336 0)
(0.001444 -0.0001282 0)
(0.001483 -0.0001207 0)
(0.001519 -0.0001112 0)
(0.001552 -9.97e-05 0)
(0.001581 -8.631e-05 0)
(0.001605 -7.124e-05 0)
(0.001625 -5.479e-05 0)
(0.001639 -3.729e-05 0)
(0.001648 -1.913e-05 0)
(0.001651 -7.282e-07 0)
(0.001649 1.749e-05 0)
(0.001641 3.514e-05 0)
(0.001627 5.188e-05 0)
(0.001609 6.741e-05 0)
(0.001586 8.151e-05 0)
(0.001559 9.401e-05 0)
(0.001528 0.0001048 0)
(0.001495 0.0001139 0)
(0.001458 0.0001211 0)
(0.00142 0.0001267 0)
(0.00138 0.0001306 0)
(0.001339 0.000133 0)
(0.001298 0.0001339 0)
(0.001256 0.0001335 0)
(0.001215 0.0001319 0)
(0.001174 0.0001293 0)
(0.001134 0.0001258 0)
(0.001096 0.0001217 0)
(0.001058 0.0001169 0)
(0.001022 0.0001118 0)
(0.0009881 0.0001063 0)
(0.0009556 0.0001006 0)
(0.0009247 9.475e-05 0)
(0.0008957 8.892e-05 0)
(0.0008684 8.313e-05 0)
(0.0008429 7.746e-05 0)
(0.0008192 7.194e-05 0)
(0.0007971 6.661e-05 0)
(0.0007766 6.151e-05 0)
(0.0007577 5.666e-05 0)
(0.0007402 5.206e-05 0)
(0.0007241 4.772e-05 0)
(0.0007094 4.366e-05 0)
(0.0006959 3.986e-05 0)
(0.0006835 3.632e-05 0)
(0.0006723 3.304e-05 0)
(0.000662 3e-05 0)
(0.0006526 2.72e-05 0)
(0.0006441 2.462e-05 0)
(0.0006364 2.225e-05 0)
(0.0006295 2.008e-05 0)
(0.0006232 1.809e-05 0)
(0.0006175 1.628e-05 0)
(0.0006123 1.464e-05 0)
(0.0006077 1.314e-05 0)
(0.0006036 1.178e-05 0)
(0.0005998 1.056e-05 0)
(0.0005965 9.449e-06 0)
(0.0005934 8.456e-06 0)
(0.0005907 7.569e-06 0)
(0.0005883 6.78e-06 0)
(0.0005861 6.086e-06 0)
(0.0005842 5.481e-06 0)
(0.0005824 4.962e-06 0)
(0.0005808 4.528e-06 0)
(0.0005794 4.176e-06 0)
(0.0005781 3.906e-06 0)
(0.0005768 3.718e-06 0)
(0.0005757 3.608e-06 0)
(0.0005747 3.572e-06 0)
(0.0005737 3.598e-06 0)
(0.0005727 3.66e-06 0)
(0.0005718 3.714e-06 0)
(0.00121 0.0001279 0)
(0.001237 0.0003008 0)
(0.001266 0.0003958 0)
(0.001284 0.0004323 0)
(0.001286 0.0004316 0)
(0.001273 0.0004098 0)
(0.001249 0.0003774 0)
(0.001217 0.0003411 0)
(0.001181 0.0003047 0)
(0.001144 0.0002701 0)
(0.001106 0.0002382 0)
(0.00107 0.0002094 0)
(0.001035 0.0001836 0)
(0.001004 0.0001606 0)
(0.0009743 0.0001401 0)
(0.0009479 0.0001218 0)
(0.0009243 0.0001054 0)
(0.0009034 9.076e-05 0)
(0.0008851 7.753e-05 0)
(0.0008692 6.553e-05 0)
(0.0008558 5.457e-05 0)
(0.0008446 4.448e-05 0)
(0.0008356 3.512e-05 0)
(0.0008286 2.636e-05 0)
(0.0008237 1.807e-05 0)
(0.0008207 1.017e-05 0)
(0.0008195 2.542e-06 0)
(0.0008203 -4.885e-06 0)
(0.0008229 -1.219e-05 0)
(0.0008273 -1.944e-05 0)
(0.0008335 -2.67e-05 0)
(0.0008416 -3.403e-05 0)
(0.0008516 -4.146e-05 0)
(0.0008634 -4.904e-05 0)
(0.0008773 -5.681e-05 0)
(0.0008931 -6.478e-05 0)
(0.0009111 -7.298e-05 0)
(0.0009311 -8.139e-05 0)
(0.0009533 -9.002e-05 0)
(0.0009777 -9.883e-05 0)
(0.001004 -0.0001078 0)
(0.001033 -0.0001168 0)
(0.001065 -0.0001259 0)
(0.001098 -0.0001349 0)
(0.001134 -0.0001437 0)
(0.001172 -0.0001521 0)
(0.001212 -0.0001599 0)
(0.001253 -0.0001671 0)
(0.001297 -0.0001733 0)
(0.001342 -0.0001784 0)
(0.001388 -0.000182 0)
(0.001435 -0.0001839 0)
(0.001482 -0.0001839 0)
(0.001529 -0.0001817 0)
(0.001575 -0.000177 0)
(0.001619 -0.0001699 0)
(0.001661 -0.00016 0)
(0.001701 -0.0001474 0)
(0.001737 -0.0001322 0)
(0.001769 -0.0001145 0)
(0.001796 -9.454e-05 0)
(0.001817 -7.274e-05 0)
(0.001833 -4.953e-05 0)
(0.001843 -2.546e-05 0)
(0.001846 -1.066e-06 0)
(0.001844 2.308e-05 0)
(0.001835 4.647e-05 0)
(0.00182 6.863e-05 0)
(0.0018 8.919e-05 0)
(0.001775 0.0001079 0)
(0.001745 0.0001244 0)
(0.001711 0.0001387 0)
(0.001674 0.0001507 0)
(0.001635 0.0001604 0)
(0.001593 0.0001677 0)
(0.001549 0.000173 0)
(0.001505 0.0001761 0)
(0.001459 0.0001774 0)
(0.001414 0.0001769 0)
(0.001369 0.0001748 0)
(0.001325 0.0001715 0)
(0.001281 0.000167 0)
(0.001239 0.0001615 0)
(0.001198 0.0001553 0)
(0.001159 0.0001485 0)
(0.001122 0.0001412 0)
(0.001086 0.0001337 0)
(0.001052 0.0001261 0)
(0.001021 0.0001184 0)
(0.0009909 0.0001107 0)
(0.000963 0.0001032 0)
(0.000937 9.594e-05 0)
(0.0009128 8.89e-05 0)
(0.0008904 8.215e-05 0)
(0.0008696 7.571e-05 0)
(0.0008504 6.962e-05 0)
(0.0008328 6.387e-05 0)
(0.0008166 5.847e-05 0)
(0.0008017 5.342e-05 0)
(0.0007881 4.871e-05 0)
(0.0007757 4.434e-05 0)
(0.0007644 4.03e-05 0)
(0.000754 3.656e-05 0)
(0.0007446 3.312e-05 0)
(0.0007361 2.996e-05 0)
(0.0007284 2.706e-05 0)
(0.0007214 2.441e-05 0)
(0.0007151 2.198e-05 0)
(0.0007094 1.978e-05 0)
(0.0007042 1.777e-05 0)
(0.0006996 1.595e-05 0)
(0.0006954 1.43e-05 0)
(0.0006917 1.281e-05 0)
(0.0006883 1.147e-05 0)
(0.0006853 1.028e-05 0)
(0.0006826 9.21e-06 0)
(0.0006802 8.267e-06 0)
(0.000678 7.441e-06 0)
(0.000676 6.729e-06 0)
(0.0006742 6.124e-06 0)
(0.0006726 5.626e-06 0)
(0.0006712 5.23e-06 0)
(0.0006699 4.934e-06 0)
(0.0006686 4.734e-06 0)
(0.0006675 4.622e-06 0)
(0.0006665 4.585e-06 0)
(0.0006655 4.6e-06 0)
(0.0006645 4.626e-06 0)
(0.001208 0.0001098 0)
(0.00123 0.0002698 0)
(0.001258 0.0003694 0)
(0.001281 0.0004187 0)
(0.001292 0.0004323 0)
(0.001291 0.0004228 0)
(0.00128 0.0003999 0)
(0.00126 0.0003698 0)
(0.001235 0.0003369 0)
(0.001207 0.0003038 0)
(0.001177 0.000272 0)
(0.001147 0.0002421 0)
(0.001117 0.0002146 0)
(0.001089 0.0001894 0)
(0.001063 0.0001665 0)
(0.001039 0.0001458 0)
(0.001017 0.0001269 0)
(0.0009978 0.0001098 0)
(0.0009805 9.415e-05 0)
(0.0009654 7.982e-05 0)
(0.0009525 6.661e-05 0)
(0.0009417 5.437e-05 0)
(0.0009331 4.292e-05 0)
(0.0009264 3.214e-05 0)
(0.0009218 2.19e-05 0)
(0.0009191 1.207e-05 0)
(0.0009183 2.562e-06 0)
(0.0009194 -6.729e-06 0)
(0.0009223 -1.589e-05 0)
(0.0009272 -2.501e-05 0)
(0.000934 -3.414e-05 0)
(0.0009427 -4.337e-05 0)
(0.0009533 -5.274e-05 0)
(0.000966 -6.231e-05 0)
(0.0009807 -7.211e-05 0)
(0.0009975 -8.216e-05 0)
(0.001016 -9.249e-05 0)
(0.001038 -0.0001031 0)
(0.001061 -0.000114 0)
(0.001087 -0.0001251 0)
(0.001115 -0.0001364 0)
(0.001146 -0.0001478 0)
(0.001179 -0.0001592 0)
(0.001214 -0.0001705 0)
(0.001252 -0.0001816 0)
(0.001292 -0.0001922 0)
(0.001334 -0.0002021 0)
(0.001379 -0.0002111 0)
(0.001425 -0.000219 0)
(0.001473 -0.0002254 0)
(0.001522 -0.00023 0)
(0.001571 -0.0002325 0)
(0.001622 -0.0002325 0)
(0.001671 -0.0002298 0)
(0.001721 -0.000224 0)
(0.001768 -0.000215 0)
(0.001814 -0.0002026 0)
(0.001856 -0.0001868 0)
(0.001895 -0.0001676 0)
(0.001929 -0.0001452 0)
(0.001958 -0.0001199 0)
(0.001981 -9.228e-05 0)
(0.001998 -6.285e-05 0)
(0.002009 -3.232e-05 0)
(0.002013 -1.398e-06 0)
(0.00201 2.92e-05 0)
(0.002 5.881e-05 0)
(0.001984 8.686e-05 0)
(0.001962 0.0001129 0)
(0.001935 0.0001364 0)
(0.001904 0.0001573 0)
(0.001868 0.0001754 0)
(0.001828 0.0001905 0)
(0.001786 0.0002027 0)
(0.001741 0.000212 0)
(0.001694 0.0002186 0)
(0.001647 0.0002226 0)
(0.001599 0.0002242 0)
(0.001551 0.0002236 0)
(0.001503 0.0002211 0)
(0.001455 0.0002168 0)
(0.001409 0.0002112 0)
(0.001365 0.0002043 0)
(0.001321 0.0001965 0)
(0.00128 0.0001879 0)
(0.00124 0.0001788 0)
(0.001202 0.0001694 0)
(0.001167 0.0001598 0)
(0.001133 0.0001501 0)
(0.001101 0.0001405 0)
(0.001072 0.000131 0)
(0.001044 0.0001218 0)
(0.001018 0.0001129 0)
(0.0009946 0.0001044 0)
(0.0009725 9.628e-05 0)
(0.0009522 8.858e-05 0)
(0.0009334 8.131e-05 0)
(0.0009162 7.448e-05 0)
(0.0009003 6.81e-05 0)
(0.0008858 6.214e-05 0)
(0.0008726 5.66e-05 0)
(0.0008605 5.148e-05 0)
(0.0008494 4.674e-05 0)
(0.0008394 4.237e-05 0)
(0.0008303 3.835e-05 0)
(0.000822 3.466e-05 0)
(0.0008145 3.129e-05 0)
(0.0008077 2.82e-05 0)
(0.0008016 2.539e-05 0)
(0.0007961 2.283e-05 0)
(0.0007911 2.051e-05 0)
(0.0007866 1.84e-05 0)
(0.0007826 1.65e-05 0)
(0.0007789 1.479e-05 0)
(0.0007757 1.325e-05 0)
(0.0007727 1.188e-05 0)
(0.0007701 1.066e-05 0)
(0.0007678 9.591e-06 0)
(0.0007656 8.662e-06 0)
(0.0007637 7.866e-06 0)
(0.000762 7.199e-06 0)
(0.0007605 6.657e-06 0)
(0.0007591 6.234e-06 0)
(0.0007578 5.926e-06 0)
(0.0007566 5.722e-06 0)
(0.0007555 5.61e-06 0)
(0.0007545 5.568e-06 0)
(0.0007536 5.565e-06 0)
(0.001206 9.574e-05 0)
(0.001225 0.0002428 0)
(0.001251 0.0003423 0)
(0.001275 0.0003994 0)
(0.001291 0.0004237 0)
(0.001299 0.0004249 0)
(0.001297 0.0004108 0)
(0.001288 0.0003876 0)
(0.001273 0.0003594 0)
(0.001253 0.0003291 0)
(0.001231 0.0002986 0)
(0.001208 0.000269 0)
(0.001184 0.0002408 0)
(0.001161 0.0002144 0)
(0.001138 0.00019 0)
(0.001117 0.0001674 0)
(0.001098 0.0001465 0)
(0.00108 0.0001273 0)
(0.001065 0.0001096 0)
(0.001051 9.319e-05 0)
(0.001039 7.793e-05 0)
(0.001029 6.366e-05 0)
(0.001021 5.023e-05 0)
(0.001015 3.75e-05 0)
(0.001011 2.533e-05 0)
(0.001009 1.361e-05 0)
(0.001009 2.215e-06 0)
(0.00101 -8.954e-06 0)
(0.001013 -2e-05 0)
(0.001019 -3.101e-05 0)
(0.001026 -4.207e-05 0)
(0.001035 -5.325e-05 0)
(0.001046 -6.462e-05 0)
(0.001059 -7.623e-05 0)
(0.001074 -8.813e-05 0)
(0.001092 -0.0001003 0)
(0.001111 -0.0001129 0)
(0.001133 -0.0001258 0)
(0.001158 -0.000139 0)
(0.001184 -0.0001525 0)
(0.001213 -0.0001662 0)
(0.001245 -0.0001801 0)
(0.001279 -0.000194 0)
(0.001315 -0.0002077 0)
(0.001354 -0.0002212 0)
(0.001396 -0.0002341 0)
(0.00144 -0.0002462 0)
(0.001486 -0.0002573 0)
(0.001534 -0.0002669 0)
(0.001583 -0.0002748 0)
(0.001634 -0.0002805 0)
(0.001686 -0.0002837 0)
(0.001738 -0.0002838 0)
(0.001791 -0.0002807 0)
(0.001842 -0.0002738 0)
(0.001892 -0.000263 0)
(0.00194 -0.000248 0)
(0.001985 -0.0002287 0)
(0.002026 -0.0002053 0)
(0.002062 -0.0001779 0)
(0.002093 -0.000147 0)
(0.002118 -0.0001132 0)
(0.002136 -7.706e-05 0)
(0.002147 -3.96e-05 0)
(0.002151 -1.665e-06 0)
(0.002147 3.584e-05 0)
(0.002137 7.209e-05 0)
(0.00212 0.0001064 0)
(0.002097 0.0001381 0)
(0.002069 0.0001669 0)
(0.002035 0.0001923 0)
(0.001997 0.0002143 0)
(0.001956 0.0002327 0)
(0.001911 0.0002475 0)
(0.001864 0.0002588 0)
(0.001816 0.0002668 0)
(0.001766 0.0002716 0)
(0.001716 0.0002735 0)
(0.001666 0.0002728 0)
(0.001616 0.0002697 0)
(0.001567 0.0002645 0)
(0.001519 0.0002576 0)
(0.001472 0.0002493 0)
(0.001427 0.0002397 0)
(0.001384 0.0002293 0)
(0.001343 0.0002183 0)
(0.001304 0.0002068 0)
(0.001267 0.000195 0)
(0.001232 0.0001833 0)
(0.0012 0.0001716 0)
(0.001169 0.0001601 0)
(0.00114 0.0001489 0)
(0.001114 0.0001381 0)
(0.001089 0.0001277 0)
(0.001066 0.0001178 0)
(0.001045 0.0001085 0)
(0.001026 9.962e-05 0)
(0.001008 9.13e-05 0)
(0.0009915 8.352e-05 0)
(0.0009765 7.625e-05 0)
(0.0009627 6.95e-05 0)
(0.0009502 6.324e-05 0)
(0.0009387 5.745e-05 0)
(0.0009283 5.212e-05 0)
(0.0009188 4.72e-05 0)
(0.0009102 4.269e-05 0)
(0.0009024 3.856e-05 0)
(0.0008953 3.478e-05 0)
(0.0008889 3.134e-05 0)
(0.0008831 2.82e-05 0)
(0.0008779 2.534e-05 0)
(0.0008732 2.276e-05 0)
(0.000869 2.042e-05 0)
(0.0008652 1.831e-05 0)
(0.0008618 1.641e-05 0)
(0.0008587 1.471e-05 0)
(0.0008559 1.32e-05 0)
(0.0008535 1.187e-05 0)
(0.0008513 1.071e-05 0)
(0.0008493 9.707e-06 0)
(0.0008475 8.856e-06 0)
(0.0008459 8.151e-06 0)
(0.0008444 7.587e-06 0)
(0.0008431 7.156e-06 0)
(0.0008419 6.849e-06 0)
(0.0008408 6.652e-06 0)
(0.0008398 6.548e-06 0)
(0.0008389 6.513e-06 0)
(0.001205 8.458e-05 0)
(0.001221 0.0002194 0)
(0.001244 0.0003163 0)
(0.001269 0.0003774 0)
(0.001288 0.0004093 0)
(0.001301 0.0004189 0)
(0.001307 0.0004129 0)
(0.001305 0.0003963 0)
(0.001298 0.0003732 0)
(0.001287 0.0003465 0)
(0.001272 0.0003182 0)
(0.001255 0.0002897 0)
(0.001237 0.0002618 0)
(0.001219 0.000235 0)
(0.001201 0.0002097 0)
(0.001184 0.0001859 0)
(0.001167 0.0001636 0)
(0.001152 0.0001428 0)
(0.001139 0.0001234 0)
(0.001127 0.0001052 0)
(0.001116 8.81e-05 0)
(0.001108 7.201e-05 0)
(0.001101 5.675e-05 0)
(0.001096 4.219e-05 0)
(0.001092 2.821e-05 0)
(0.00109 1.466e-05 0)
(0.001091 1.447e-06 0)
(0.001092 -1.156e-05 0)
(0.001096 -2.446e-05 0)
(0.001102 -3.735e-05 0)
(0.001109 -5.032e-05 0)
(0.001118 -6.345e-05 0)
(0.00113 -7.682e-05 0)
(0.001143 -9.049e-05 0)
(0.001158 -0.0001045 0)
(0.001176 -0.0001189 0)
(0.001196 -0.0001337 0)
(0.001218 -0.0001489 0)
(0.001242 -0.0001645 0)
(0.001269 -0.0001804 0)
(0.001298 -0.0001966 0)
(0.00133 -0.000213 0)
(0.001365 -0.0002295 0)
(0.001402 -0.0002458 0)
(0.001441 -0.0002617 0)
(0.001483 -0.0002771 0)
(0.001527 -0.0002915 0)
(0.001574 -0.0003047 0)
(0.001623 -0.0003162 0)
(0.001674 -0.0003257 0)
(0.001726 -0.0003327 0)
(0.001779 -0.0003366 0)
(0.001833 -0.0003371 0)
(0.001887 -0.0003336 0)
(0.00194 -0.0003257 0)
(0.001992 -0.0003131 0)
(0.002042 -0.0002955 0)
(0.002088 -0.0002728 0)
(0.002131 -0.000245 0)
(0.002169 -0.0002125 0)
(0.002201 -0.0001756 0)
(0.002227 -0.0001351 0)
(0.002246 -9.197e-05 0)
(0.002257 -4.715e-05 0)
(0.002261 -1.795e-06 0)
(0.002257 4.3e-05 0)
(0.002246 8.622e-05 0)
(0.002229 0.000127 0)
(0.002204 0.0001647 0)
(0.002175 0.0001988 0)
(0.00214 0.0002289 0)
(0.0021 0.0002549 0)
(0.002057 0.0002766 0)
(0.002011 0.000294 0)
(0.001963 0.0003073 0)
(0.001913 0.0003167 0)
(0.001862 0.0003223 0)
(0.001811 0.0003245 0)
(0.001759 0.0003235 0)
(0.001708 0.0003198 0)
(0.001658 0.0003136 0)
(0.001609 0.0003054 0)