/*--------------------------------*- C++ -*----------------------------------*\
  =========                 |
  \\      /  F ield         | OpenFOAM: The Open Source CFD Toolbox
   \\    /   O peration     | Website:  https://openfoam.org
    \\  /    A nd           | Version:  7
     \\/     M anipulation  |
\*---------------------------------------------------------------------------*/
FoamFile
{
    version     2.0;
    format      ascii;
    class       volScalarField;
    location    "2219.9994734367051";
    object      Y.K;
}
// * * * * * * * * * * * * * * * * * * * * * * * * * * * * * * * * * * * * * //

dimensions      [0 0 0 0 0 0 0];

internalField   nonuniform List<scalar> 
4096
(
6.692e-74
5.943e-72
-1.948e-72
6.93e-72
-4.941e-73
-1.638e-72
6.55e-73
2.334e-73
6.806e-73
-3.29e-72
3.482e-71
-6.136e-70
9.471e-69
-1.304e-67
1.77e-66
-2.238e-65
2.696e-64
-3.133e-63
3.392e-62
-3.585e-61
3.628e-60
-3.514e-59
3.291e-58
-2.958e-57
2.559e-56
-2.111e-55
1.666e-54
-1.218e-53
8.501e-53
-5.84e-52
3.93e-51
-2.579e-50
1.645e-49
-1.017e-48
6.083e-48
-3.528e-47
1.997e-46
-1.115e-45
6.219e-45
-3.469e-44
1.87e-43
-9.054e-43
3.162e-42
2.607e-42
-2.179e-40
2.531e-39
-2.31e-38
1.636e-37
-1.059e-36
5.812e-36
-2.764e-35
1.158e-34
-3.936e-34
1.219e-33
-1.838e-33
4.375e-33
6.443e-32
1.387e-31
1.321e-31
1.724e-29
4.283e-30
6.556e-28
-5.895e-29
6.719e-27
2.607e-26
4.408e-26
3.628e-25
1.348e-24
2.659e-24
2.054e-23
5.735e-23
1.506e-22
1.092e-21
2.89e-21
9.25e-21
1.312e-19
1.993e-18
5.255e-18
1.024e-17
1.775e-17
2.895e-17
4.541e-17
6.923e-17
1.032e-16
1.509e-16
2.17e-16
3.072e-16
4.291e-16
5.916e-16
8.061e-16
1.086e-15
1.449e-15
1.914e-15
2.505e-15
3.252e-15
4.188e-15
5.354e-15
6.798e-15
8.574e-15
1.075e-14
1.34e-14
1.661e-14
2.049e-14
2.516e-14
3.074e-14
3.741e-14
4.533e-14
5.472e-14
6.581e-14
7.888e-14
9.422e-14
1.122e-13
1.332e-13
1.576e-13
1.861e-13
2.191e-13
2.572e-13
3.012e-13
3.52e-13
4.103e-13
4.771e-13
5.534e-13
6.403e-13
7.384e-13
8.474e-13
9.651e-13
1.083e-12
1.176e-12
-1.982e-71
1.043e-70
-1.315e-70
1.58e-71
7.943e-71
-6.213e-71
6.312e-72
1.377e-71
4.348e-71
-1.867e-70
1.878e-69
-3.464e-68
5.23e-67
-7.444e-66
9.985e-65
-1.265e-63
1.518e-62
-1.732e-61
1.887e-60
-1.971e-59
1.978e-58
-1.912e-57
1.78e-56
-1.595e-55
1.373e-54
-1.129e-53
8.868e-53
-6.468e-52
4.519e-51
-3.106e-50
2.091e-49
-1.372e-48
8.751e-48
-5.406e-47
3.23e-46
-1.87e-45
1.054e-44
-5.856e-44
3.243e-43
-1.796e-42
9.728e-42
-4.761e-41
1.816e-40
-8.115e-41
-9.17e-39
1.165e-37
-1.089e-36
7.762e-36
-5.011e-35
2.762e-34
-1.318e-33
5.643e-33
-1.926e-32
6.194e-32
-8.625e-32
2.508e-31
3.667e-30
7.765e-30
2.187e-29
8.268e-28
1.398e-27
3.259e-26
1.129e-26
3.489e-25
1.331e-24
2.646e-24
1.837e-23
6.6e-23
1.409e-22
9.289e-22
2.613e-21
6.519e-21
4.094e-20
1.068e-19
2.535e-19
1.608e-18
4.173e-18
8.227e-18
1.444e-17
2.375e-17
3.747e-17
5.736e-17
8.575e-17
1.257e-16
1.81e-16
2.568e-16
3.593e-16
4.963e-16
6.775e-16
9.148e-16
1.223e-15
1.619e-15
2.124e-15
2.764e-15
3.568e-15
4.573e-15
5.821e-15
7.361e-15
9.252e-15
1.156e-14
1.437e-14
1.777e-14
2.187e-14
2.679e-14
3.268e-14
3.969e-14
4.802e-14
5.789e-14
6.954e-14
8.324e-14
9.933e-14
1.182e-13
1.401e-13
1.657e-13
1.955e-13
2.3e-13
2.698e-13
3.158e-13
3.688e-13
4.297e-13
4.995e-13
5.793e-13
6.702e-13
7.733e-13
8.894e-13
1.018e-12
1.155e-12
1.287e-12
4.459e-70
-3.099e-69
7.649e-69
-9.859e-69
6.409e-69
-1.033e-69
-1.078e-69
4.387e-70
2.706e-69
-1.029e-68
9.816e-68
-1.861e-66
2.813e-65
-4.001e-64
5.353e-63
-6.752e-62
8.059e-61
-9.142e-60
9.899e-59
-1.027e-57
1.025e-56
-9.848e-56
9.12e-55
-8.133e-54
6.969e-53
-5.711e-52
4.468e-51
-3.254e-50
2.278e-49
-1.568e-48
1.057e-47
-6.948e-47
4.435e-46
-2.742e-45
1.638e-44
-9.463e-44
5.316e-43
-2.932e-42
1.609e-41
-8.846e-41
4.8e-40
-2.418e-39
1.043e-38
-1.967e-38
-2.912e-37
4.512e-36
-4.485e-35
3.26e-34
-2.163e-33
1.214e-32
-5.863e-32
2.583e-31
-8.897e-31
3.078e-30
-3.579e-30
1.495e-29
2.12e-28
4.421e-28
2.124e-27
3.799e-26
1.374e-25
1.583e-24
1.454e-24
1.867e-23
6.502e-23
1.574e-22
9.282e-22
3.13e-21
7.121e-21
3.916e-20
1.079e-19
2.509e-19
1.193e-18
2.947e-18
5.614e-18
9.81e-18
1.628e-17
2.599e-17
4.023e-17
6.068e-17
8.952e-17
1.295e-16
1.843e-16
2.582e-16
3.569e-16
4.873e-16
6.577e-16
8.786e-16
1.163e-15
1.525e-15
1.984e-15
2.562e-15
3.286e-15
4.186e-15
5.301e-15
6.674e-15
8.357e-15
1.041e-14
1.291e-14
1.593e-14
1.957e-14
2.395e-14
2.919e-14
3.545e-14
4.289e-14
5.171e-14
6.214e-14
7.444e-14
8.889e-14
1.058e-13
1.257e-13
1.488e-13
1.757e-13
2.07e-13
2.433e-13
2.852e-13
3.335e-13
3.891e-13
4.53e-13
5.263e-13
6.102e-13
7.059e-13
8.149e-13
9.387e-13
1.079e-12
1.237e-12
1.414e-12
1.616e-12
-7.38e-69
5.856e-68
-2.027e-67
4.199e-67
-5.469e-67
4.458e-67
-2.047e-67
4.42e-68
1.468e-67
-5.516e-67
4.844e-66
-9.478e-65
1.431e-63
-2.027e-62
2.696e-61
-3.375e-60
3.994e-59
-4.488e-58
4.815e-57
-4.952e-56
4.898e-55
-4.67e-54
4.294e-53
-3.806e-52
3.244e-51
-2.648e-50
2.064e-49
-1.503e-48
1.055e-47
-7.289e-47
4.927e-46
-3.247e-45
2.078e-44
-1.288e-43
7.7e-43
-4.445e-42
2.486e-41
-1.359e-40
7.366e-40
-4.006e-39
2.178e-38
-1.141e-37
5.147e-37
-1.932e-36
-3.165e-36
1.323e-34
-1.512e-33
1.154e-32
-8.077e-32
4.701e-31
-2.315e-30
1.073e-29
-3.735e-29
1.443e-28
-1.007e-28
8.707e-28
1.086e-26
2.842e-26
1.702e-25
1.682e-24
1.06e-23
7.247e-23
1.246e-22
9.639e-22
3.207e-21
8.342e-21
4.248e-20
1.3e-19
3.048e-19
1.254e-18
3.177e-18
6.256e-18
1.121e-17
1.897e-17
3.073e-17
4.809e-17
7.308e-17
1.083e-16
1.569e-16
2.229e-16
3.11e-16
4.271e-16
5.779e-16
7.719e-16
1.019e-15
1.331e-15
1.723e-15
2.211e-15
2.816e-15
3.563e-15
4.48e-15
5.601e-15
6.968e-15
8.628e-15
1.064e-14
1.306e-14
1.598e-14
1.949e-14
2.368e-14
2.869e-14
3.465e-14
4.172e-14
5.01e-14
6.001e-14
7.168e-14
8.54e-14
1.015e-13
1.204e-13
1.424e-13
1.68e-13
1.978e-13
2.324e-13
2.725e-13
3.188e-13
3.722e-13
4.336e-13
5.042e-13
5.851e-13
6.776e-13
7.833e-13
9.037e-13
1.041e-12
1.196e-12
1.372e-12
1.571e-12
1.796e-12
2.051e-12
2.379e-12
1.064e-67
-9.184e-67
3.935e-66
-1.09e-65
2.037e-65
-2.61e-65
2.214e-65
-1.045e-65
9.23e-66
-2.876e-65
2.314e-64
-4.595e-63
6.893e-62
-9.676e-61
1.272e-59
-1.572e-58
1.834e-57
-2.031e-56
2.149e-55
-2.181e-54
2.131e-53
-2.01e-52
1.83e-51
-1.609e-50
1.363e-49
-1.107e-48
8.605e-48
-6.27e-47
4.424e-46
-3.069e-45
2.084e-44
-1.38e-43
8.878e-43
-5.524e-42
3.315e-41
-1.915e-40
1.068e-39
-5.777e-39
3.078e-38
-1.643e-37
8.883e-37
-4.798e-36
2.382e-35
-1.368e-34
2.506e-34
1.537e-33
-3.584e-32
3.198e-31
-2.468e-30
1.546e-29
-7.757e-29
3.93e-28
-1.362e-27
6.214e-27
7.494e-28
5.218e-26
4.482e-25
1.849e-24
1.191e-23
9.656e-23
6.309e-22
2.983e-21
8.122e-21
4.48e-20
1.396e-19
3.726e-19
1.485e-18
3.946e-18
8.228e-18
1.554e-17
2.756e-17
4.657e-17
7.554e-17
1.182e-16
1.793e-16
2.642e-16
3.796e-16
5.327e-16
7.32e-16
9.872e-16
1.309e-15
1.71e-15
2.205e-15
2.809e-15
3.544e-15
4.431e-15
5.497e-15
6.775e-15
8.302e-15
1.012e-14
1.229e-14
1.487e-14
1.793e-14
2.156e-14
2.585e-14
3.093e-14
3.693e-14
4.401e-14
5.234e-14
6.215e-14
7.367e-14
8.718e-14
1.03e-13
1.215e-13
1.431e-13
1.682e-13
1.975e-13
2.315e-13
2.708e-13
3.164e-13
3.69e-13
4.296e-13
4.994e-13
5.795e-13
6.715e-13
7.767e-13
8.969e-13
1.034e-12
1.19e-12
1.367e-12
1.569e-12
1.796e-12
2.054e-12
2.344e-12
2.67e-12
3.037e-12
3.453e-12
4.028e-12
-1.425e-66
1.299e-65
-6.46e-65
2.202e-64
-5.306e-64
9.172e-64
-1.108e-63
8.263e-64
3.02e-64
-1.902e-63
1.161e-62
-2.124e-61
3.144e-60
-4.336e-59
5.588e-58
-6.758e-57
7.713e-56
-8.364e-55
8.67e-54
-8.636e-53
8.297e-52
-7.709e-51
6.932e-50
-6.03e-49
5.066e-48
-4.095e-47
3.174e-46
-2.318e-45
1.646e-44
-1.15e-43
7.867e-43
-5.249e-42
3.402e-41
-2.133e-40
1.288e-39
-7.476e-39
4.165e-38
-2.233e-37
1.166e-36
-6.036e-36
3.179e-35
-1.723e-34
9.332e-34
-5.242e-33
2.236e-32
-6.682e-32
-1.482e-31
3.778e-30
-5.387e-29
4.114e-28
-2.025e-27
1.22e-26
-3.943e-26
2.382e-25
2.84e-25
3.031e-24
2.185e-23
1.238e-22
8.144e-22
5.425e-21
3.311e-20
1.305e-19
3.884e-19
1.599e-18
4.649e-18
1.068e-17
2.207e-17
4.259e-17
7.763e-17
1.347e-16
2.235e-16
3.561e-16
5.465e-16
8.108e-16
1.166e-15
1.629e-15
2.22e-15
2.954e-15
3.852e-15
4.932e-15
6.213e-15
7.718e-15
9.474e-15
1.151e-14
1.386e-14
1.658e-14
1.971e-14
2.332e-14
2.748e-14
3.229e-14
3.785e-14
4.429e-14
5.175e-14
6.04e-14
7.044e-14
8.21e-14
9.565e-14
1.114e-13
1.297e-13
1.509e-13
1.755e-13
2.04e-13
2.371e-13
2.754e-13
3.197e-13
3.708e-13
4.298e-13
4.977e-13
5.759e-13
6.657e-13
7.687e-13
8.867e-13
1.022e-12
1.176e-12
1.352e-12
1.552e-12
1.779e-12
2.037e-12
2.329e-12
2.66e-12
3.033e-12
3.453e-12
3.925e-12
4.455e-12
5.049e-12
5.713e-12
6.459e-12
7.542e-12
1.826e-65
-1.728e-64
9.582e-64
-3.825e-63
1.123e-62
-2.449e-62
3.881e-62
-3.967e-62
2.667e-62
-2.031e-62
5.634e-61
-9.253e-60
1.348e-58
-1.806e-57
2.257e-56
-2.643e-55
2.921e-54
-3.073e-53
3.097e-52
-3.007e-51
2.825e-50
-2.575e-49
2.278e-48
-1.956e-47
1.628e-46
-1.308e-45
1.012e-44
-7.427e-44
5.322e-43
-3.753e-42
2.593e-41
-1.749e-40
1.147e-39
-7.279e-39
4.45e-38
-2.609e-37
1.463e-36
-7.82e-36
4.006e-35
-1.992e-34
9.899e-34
-5.097e-33
2.784e-32
-1.816e-31
9.67e-31
-5.295e-30
2.314e-29
-7.642e-29
-2.672e-28
4.761e-27
-2.912e-26
2.884e-25
-6.485e-25
7.888e-24
1.77e-23
1.552e-22
1.181e-21
7.846e-21
5.21e-20
2.575e-19
1.275e-18
4.248e-18
1.126e-17
2.674e-17
5.876e-17
1.207e-16
2.336e-16
4.272e-16
7.417e-16
1.227e-15
1.939e-15
2.94e-15
4.289e-15
6.04e-15
8.239e-15
1.092e-14
1.409e-14
1.778e-14
2.197e-14
2.668e-14
3.19e-14
3.766e-14
4.398e-14
5.092e-14
5.854e-14
6.693e-14
7.622e-14
8.655e-14
9.809e-14
1.11e-13
1.257e-13
1.422e-13
1.61e-13
1.824e-13
2.069e-13
2.349e-13
2.67e-13
3.038e-13
3.461e-13
3.946e-13
4.504e-13
5.145e-13
5.88e-13
6.724e-13
7.692e-13
8.802e-13
1.007e-12
1.152e-12
1.318e-12
1.508e-12
1.724e-12
1.97e-12
2.25e-12
2.567e-12
2.927e-12
3.335e-12
3.796e-12
4.316e-12
4.903e-12
5.563e-12
6.304e-12
7.136e-12
8.066e-12
9.106e-12
1.027e-11
1.156e-11
1.299e-11
1.514e-11
-2.271e-64
2.206e-63
-1.328e-62
6.012e-62
-2.073e-61
5.485e-61
-1.092e-60
1.497e-60
-2.102e-61
-4.894e-60
3.265e-59
-3.926e-58
5.37e-57
-6.876e-56
8.204e-55
-9.173e-54
9.7e-53
-9.789e-52
9.502e-51
-8.927e-50
8.15e-49
-7.25e-48
6.29e-47
-5.32e-46
4.381e-45
-3.502e-44
2.708e-43
-2.002e-42
1.452e-41
-1.037e-40
7.267e-40
-4.977e-39
3.318e-38
-2.144e-37
1.337e-36
-7.994e-36
4.567e-35
-2.47e-34
1.262e-33
-6.088e-33
2.806e-32
-1.266e-31
6.199e-31
-4.193e-30
2.372e-29
-1.672e-28
1.038e-27
-6.079e-27
1.857e-26
-3.318e-27
1.493e-25
2.093e-24
3.788e-24
2.249e-22
1.304e-21
8.456e-21
6.619e-20
3.797e-19
2.071e-18
7.634e-18
2.26e-17
5.983e-17
1.458e-16
3.302e-16
6.978e-16
1.381e-15
2.57e-15
4.511e-15
7.496e-15
1.183e-14
1.782e-14
2.569e-14
3.558e-14
4.752e-14
6.14e-14
7.703e-14
9.415e-14
1.124e-13
1.316e-13
1.515e-13
1.718e-13
1.927e-13
2.141e-13
2.362e-13
2.592e-13
2.835e-13
3.093e-13
3.372e-13
3.676e-13
4.011e-13
4.383e-13
4.799e-13
5.267e-13
5.795e-13
6.393e-13
7.073e-13
7.846e-13
8.726e-13
9.73e-13
1.087e-12
1.218e-12
1.367e-12
1.537e-12
1.73e-12
1.951e-12
2.202e-12
2.488e-12
2.813e-12
3.182e-12
3.601e-12
4.075e-12
4.612e-12
5.22e-12
5.906e-12
6.68e-12
7.552e-12
8.534e-12
9.636e-12
1.087e-11
1.226e-11
1.381e-11
1.553e-11
1.746e-11
1.96e-11
2.198e-11
2.462e-11
2.751e-11
3.196e-11
2.754e-63
-2.723e-62
1.749e-61
-8.775e-61
3.468e-60
-1.085e-59
2.645e-59
-4.703e-59
5.044e-59
-6.805e-59
7.814e-58
-1.413e-56
1.927e-55
-2.32e-54
2.593e-53
-2.718e-52
2.705e-51
-2.585e-50
2.391e-49
-2.155e-48
1.9e-47
-1.642e-46
1.393e-45
-1.159e-44
9.445e-44
-7.517e-43
5.825e-42
-4.356e-41
3.211e-40
-2.333e-39
1.666e-38
-1.165e-37
7.947e-37
-5.27e-36
3.383e-35
-2.089e-34
1.237e-33
-6.925e-33
3.654e-32
-1.792e-31
8.089e-31
-3.253e-30
1.354e-29
-5.492e-29
1.826e-28
-1.232e-27
8.986e-27
-5.667e-26
2.793e-25
-2.905e-25
2.417e-23
-1.674e-23
8.22e-22
8.356e-21
6.013e-20
4.217e-19
2.643e-18
1.104e-17
3.74e-17
1.133e-16
3.149e-16
8.069e-16
1.913e-15
4.21e-15
8.616e-15
1.646e-14
2.944e-14
4.951e-14
7.86e-14
1.182e-13
1.693e-13
2.316e-13
3.041e-13
3.845e-13
4.701e-13
5.577e-13
6.446e-13
7.283e-13
8.069e-13
8.798e-13
9.47e-13
1.009e-12
1.067e-12
1.123e-12
1.177e-12
1.232e-12
1.289e-12
1.35e-12
1.417e-12
1.492e-12
1.576e-12
1.671e-12
1.779e-12
1.902e-12
2.043e-12
2.204e-12
2.387e-12
2.597e-12
2.836e-12
3.108e-12
3.418e-12
3.77e-12
4.17e-12
4.625e-12
5.141e-12
5.726e-12
6.388e-12
7.137e-12
7.983e-12
8.939e-12
1.002e-11
1.123e-11
1.26e-11
1.413e-11
1.586e-11
1.779e-11
1.995e-11
2.237e-11
2.508e-11
2.809e-11
3.144e-11
3.517e-11
3.93e-11
4.389e-11
4.895e-11
5.455e-11
6.062e-11
7.013e-11
-3.246e-62
3.248e-61
-2.197e-60
1.202e-59
-5.347e-59
1.942e-58
-5.687e-58
1.273e-57
-1.332e-57
-4.291e-57
4.869e-56
-5.299e-55
6.088e-54
-6.591e-53
6.699e-52
-6.421e-51
5.893e-50
-5.244e-49
4.566e-48
-3.913e-47
3.312e-46
-2.773e-45
2.297e-44
-1.881e-43
1.519e-42
-1.208e-41
9.415e-41
-7.175e-40
5.407e-39
-4.022e-38
2.945e-37
-2.119e-36
1.493e-35
-1.026e-34
6.866e-34
-4.448e-33
2.789e-32
-1.653e-31
9.351e-31
-4.942e-30
2.425e-29
-1.061e-28
4.733e-28
-1.406e-27
1.707e-27
5.43e-27
-1.212e-25
1.492e-24
-7.912e-24
7.947e-23
2.51e-22
1.1e-21
4.704e-20
3.403e-19
2.443e-18
1.188e-17
4.712e-17
1.675e-16
5.438e-16
1.619e-15
4.425e-15
1.112e-14
2.576e-14
5.507e-14
1.09e-13
2.004e-13
3.439e-13
5.527e-13
8.362e-13
1.196e-12
1.625e-12
2.106e-12
2.616e-12
3.127e-12
3.613e-12
4.049e-12
4.423e-12
4.723e-12
4.951e-12
5.117e-12
5.23e-12
5.301e-12
5.342e-12
5.364e-12
5.379e-12
5.396e-12
5.422e-12
5.465e-12
5.53e-12
5.622e-12
5.745e-12
5.907e-12
6.111e-12
6.358e-12
6.655e-12
7.008e-12
7.421e-12
7.902e-12
8.458e-12
9.097e-12
9.829e-12
1.066e-11
1.162e-11
1.269e-11
1.392e-11
1.53e-11
1.686e-11
1.862e-11
2.061e-11
2.284e-11
2.534e-11
2.815e-11
3.13e-11
3.483e-11
3.877e-11
4.317e-11
4.807e-11
5.353e-11
5.96e-11
6.634e-11
7.38e-11
8.207e-11
9.121e-11
1.013e-10
1.124e-10
1.246e-10
1.377e-10
1.586e-10
3.683e-61
-3.711e-60
2.618e-59
-1.543e-58
7.628e-58
-3.176e-57
1.107e-56
-3.153e-56
6.908e-56
-1.692e-55
9.801e-55
-1.29e-53
1.488e-52
-1.417e-51
1.253e-50
-1.054e-49
8.638e-49
-6.992e-48
5.637e-47
-4.547e-46
3.678e-45
-2.983e-44
2.422e-43
-1.963e-42
1.585e-41
-1.269e-40
1.005e-39
-7.917e-39
6.172e-38
-4.757e-37
3.619e-36
-2.713e-35
2.001e-34
-1.448e-33
1.026e-32
-7.091e-32
4.797e-31
-3.061e-30
1.905e-29
-1.109e-28
6.175e-28
-3.257e-27
1.605e-26
-7.214e-26
2.868e-25
-8.822e-25
1.041e-24
1.366e-23
-1.273e-22
2.155e-21
1.515e-21
1.528e-19
1.52e-18
8.829e-18
4.195e-17
1.786e-16
6.926e-16
2.452e-15
7.922e-15
2.337e-14
6.298e-14
1.552e-13
3.502e-13
7.259e-13
1.385e-12
2.446e-12
4.013e-12
6.148e-12
8.842e-12
1.199e-11
1.543e-11
1.89e-11
2.219e-11
2.503e-11
2.731e-11
2.885e-11
2.979e-11
3.003e-11
2.981e-11
2.927e-11
2.846e-11
2.748e-11
2.642e-11
2.536e-11
2.436e-11
2.345e-11
2.267e-11
2.202e-11
2.152e-11
2.118e-11
2.095e-11
2.097e-11
2.11e-11
2.139e-11
2.185e-11
2.249e-11
2.331e-11
2.433e-11
2.556e-11
2.701e-11
2.87e-11
3.065e-11
3.29e-11
3.546e-11
3.837e-11
4.166e-11
4.538e-11
4.957e-11
5.428e-11
5.957e-11
6.549e-11
7.21e-11
7.949e-11
8.773e-11
9.691e-11
1.071e-10
1.184e-10
1.31e-10
1.449e-10
1.603e-10
1.773e-10
1.96e-10
2.166e-10
2.393e-10
2.641e-10
2.914e-10
3.204e-10
3.67e-10
-3.955e-60
3.996e-59
-2.917e-58
1.834e-57
-9.959e-57
4.693e-56
-1.91e-55
6.49e-55
-1.619e-54
-1.16e-54
3.524e-53
-3.335e-52
2.653e-51
-1.767e-50
1.172e-49
-7.636e-49
4.973e-48
-3.292e-47
2.261e-46
-1.643e-45
1.272e-44
-1.041e-43
8.843e-43
-7.64e-42
6.613e-41
-5.681e-40
4.823e-39
-4.026e-38
3.282e-37
-2.623e-36
2.064e-35
-1.599e-34
1.217e-33
-9.101e-33
6.675e-32
-4.791e-31
3.361e-30
-2.293e-29
1.535e-28
-9.944e-28
6.307e-27
-3.874e-26
2.3e-25
-1.316e-24
7.259e-24
-3.843e-23
1.964e-22
-8.977e-22
5.604e-21
2.658e-20
4.002e-19
3.919e-18
2.451e-17
1.282e-16
6.041e-16
2.591e-15
1.011e-14
3.583e-14
1.153e-13
3.369e-13
8.933e-13
2.153e-12
4.724e-12
9.466e-12
1.736e-11
2.934e-11
4.588e-11
6.681e-11
9.107e-11
1.168e-10
1.421e-10
1.643e-10
1.821e-10
1.932e-10
1.989e-10
1.975e-10
1.928e-10
1.847e-10
1.742e-10
1.624e-10
1.502e-10
1.383e-10
1.271e-10
1.169e-10
1.077e-10
9.98e-11
9.3e-11
8.729e-11
8.258e-11
7.881e-11
7.588e-11
7.375e-11
7.237e-11
7.154e-11
7.165e-11
7.219e-11
7.335e-11
7.514e-11
7.756e-11
8.062e-11
8.435e-11
8.879e-11
9.399e-11
1e-10
1.069e-10
1.147e-10
1.236e-10
1.336e-10
1.449e-10
1.575e-10
1.716e-10
1.874e-10
2.049e-10
2.244e-10
2.461e-10
2.701e-10
2.966e-10
3.259e-10
3.583e-10
3.94e-10
4.332e-10
4.763e-10
5.236e-10
5.753e-10
6.319e-10
6.937e-10
7.591e-10
8.646e-10
3.924e-59
-3.955e-58
2.966e-57
-1.972e-56
1.166e-55
-6.183e-55
2.966e-54
-1.294e-53
5.144e-53
-1.844e-52
5.644e-52
-1.122e-51
-5.09e-51
7.832e-50
-8.249e-49
7.76e-48
-6.793e-47
5.648e-46
-4.487e-45
3.416e-44
-2.499e-43
1.76e-42
-1.195e-41
7.844e-41
-4.981e-40
3.066e-39
-1.829e-38
1.065e-37
-6.318e-37
3.899e-36
-2.391e-35
1.356e-34
-7.25e-34
3.711e-33
-1.236e-32
-1.041e-33
6.008e-31
-8.304e-30
8.244e-29
-7.232e-28
5.741e-27
-4.268e-26
3.025e-25
-2e-24
1.304e-23
-7.783e-23
5.15e-22
-1.557e-21
9.337e-20
1.223e-18
9.274e-18
5.899e-17
3.397e-16
1.784e-15
8.528e-15
3.699e-14
1.453e-13
5.154e-13
1.65e-12
4.764e-12
1.241e-11
2.918e-11
6.208e-11
1.198e-10
2.106e-10
3.392e-10
5.04e-10
6.951e-10
8.955e-10
1.085e-09
1.247e-09
1.354e-09
1.415e-09
1.404e-09
1.363e-09
1.288e-09
1.191e-09
1.081e-09
9.68e-10
8.588e-10
7.576e-10
6.667e-10
5.87e-10
5.184e-10
4.601e-10
4.112e-10
3.705e-10
3.368e-10
3.093e-10
2.871e-10
2.693e-10
2.553e-10
2.448e-10
2.371e-10
2.322e-10
2.292e-10
2.294e-10
2.311e-10
2.347e-10
2.403e-10
2.479e-10
2.575e-10
2.692e-10
2.83e-10
2.991e-10
3.176e-10
3.388e-10
3.627e-10
3.897e-10
4.199e-10
4.538e-10
4.915e-10
5.334e-10
5.799e-10
6.314e-10
6.883e-10
7.511e-10
8.203e-10
8.964e-10
9.8e-10
1.072e-09
1.172e-09
1.282e-09
1.401e-09
1.531e-09
1.674e-09
1.823e-09
2.064e-09
-3.44e-58
3.455e-57
-2.643e-56
1.833e-55
-1.155e-54
6.662e-54
-3.544e-53
1.753e-52
-8.142e-52
3.603e-51
-1.57e-50
7.207e-50
-3.94e-49
2.54e-48
-1.954e-47
1.634e-46
-1.346e-45
1.071e-44
-8.183e-44
6.005e-43
-4.239e-42
2.885e-41
-1.894e-40
1.202e-39
-7.375e-39
4.383e-38
-2.532e-37
1.458e-36
-8.784e-36
5.617e-35
-3.69e-34
2.442e-33
-1.674e-32
1.176e-31
-8.39e-31
6.011e-30
-4.287e-29
3.021e-28
-2.092e-27
1.417e-26
-9.359e-26
6.024e-25
-3.733e-24
2.32e-23
-1.305e-22
8.12e-22
-2.872e-21
1.366e-19
1.964e-18
1.645e-17
1.172e-16
7.577e-16
4.47e-15
2.398e-14
1.166e-13
5.116e-13
2.02e-12
7.166e-12
2.279e-11
6.493e-11
1.657e-10
3.793e-10
7.797e-10
1.445e-09
2.421e-09
3.703e-09
5.208e-09
6.782e-09
8.236e-09
9.412e-09
1.021e-08
1.031e-08
1.009e-08
9.556e-09
8.77e-09
7.842e-09
6.867e-09
5.92e-09
5.046e-09
4.272e-09
3.605e-09
3.042e-09
2.575e-09
2.191e-09
1.878e-09
1.624e-09
1.419e-09
1.254e-09
1.121e-09
1.015e-09
9.302e-10
8.63e-10
8.105e-10
7.703e-10
7.407e-10
7.199e-10
7.072e-10
7.017e-10
7.038e-10
7.111e-10
7.243e-10
7.434e-10
7.683e-10
7.992e-10
8.361e-10
8.793e-10
9.292e-10
9.862e-10
1.051e-09
1.123e-09
1.204e-09
1.295e-09
1.395e-09
1.507e-09
1.63e-09
1.766e-09
1.915e-09
2.079e-09
2.259e-09
2.457e-09
2.672e-09
2.907e-09
3.164e-09
3.442e-09
3.745e-09
4.074e-09
4.417e-09
4.976e-09
2.655e-57
-2.65e-56
2.057e-55
-1.478e-54
9.831e-54
-6.09e-53
3.531e-52
-1.923e-51
9.825e-51
-4.646e-50
1.941e-49
-6.086e-49
-4.624e-49
2.481e-47
-3.004e-46
2.839e-45
-2.376e-44
1.849e-43
-1.365e-42
9.674e-42
-6.611e-41
4.369e-40
-2.794e-39
1.726e-38
-1.025e-37
5.793e-37
-3.066e-36
1.51e-35
-7.297e-35
3.439e-34
-1.05e-33
-9.735e-34
5.301e-32
-6.315e-31
5.814e-30
-4.756e-29
3.618e-28
-2.612e-27
1.807e-26
-1.205e-25
7.776e-25
-4.845e-24
2.972e-23
-1.637e-22
1.045e-21
-3.998e-21
1.629e-19
2.588e-18
2.401e-17
1.915e-16
1.393e-15
9.262e-15
5.604e-14
3.07e-13
1.516e-12
6.725e-12
2.669e-11
9.45e-11
2.981e-10
8.362e-10
2.086e-09
4.63e-09
9.161e-09
1.622e-08
2.58e-08
3.731e-08
4.947e-08
6.067e-08
6.932e-08
7.501e-08
7.454e-08
7.179e-08
6.652e-08
5.949e-08
5.165e-08
4.378e-08
3.644e-08
2.993e-08
2.437e-08
1.976e-08
1.601e-08
1.3e-08
1.062e-08
8.742e-09
7.264e-09
6.104e-09
5.192e-09
4.475e-09
3.909e-09
3.462e-09
3.109e-09
2.83e-09
2.611e-09
2.441e-09
2.311e-09
2.214e-09
2.145e-09
2.101e-09
2.076e-09
2.078e-09
2.094e-09
2.127e-09
2.176e-09
2.242e-09
2.325e-09
2.424e-09
2.54e-09
2.675e-09
2.828e-09
3.001e-09
3.196e-09
3.413e-09
3.654e-09
3.921e-09
4.216e-09
4.54e-09
4.897e-09
5.288e-09
5.715e-09
6.183e-09
6.692e-09
7.246e-09
7.848e-09
8.501e-09
9.207e-09
9.974e-09
1.077e-08
1.207e-08
-1.735e-56
1.705e-55
-1.334e-54
9.866e-54
-6.893e-53
4.578e-52
-2.915e-51
1.803e-50
-1.101e-49
6.764e-49
-4.278e-48
2.801e-47
-1.789e-46
1.243e-45
-8.755e-45
6.173e-44
-4.323e-43
2.991e-42
-2.04e-41
1.369e-40
-9.046e-40
5.886e-39
-3.775e-38
2.389e-37
-1.495e-36
9.276e-36
-5.714e-35
3.528e-34
-2.181e-33
1.386e-32
-8.629e-32
5.324e-31
-3.308e-30
2.053e-29
-1.269e-28
7.804e-28
-4.762e-27
2.878e-26
-1.719e-25
1.013e-24
-5.877e-24
3.364e-23
-1.832e-22
1.17e-21
-4.214e-21
1.563e-19
2.745e-18
2.822e-17
2.521e-16
2.063e-15
1.548e-14
1.059e-13
6.563e-13
3.668e-12
1.839e-11
8.231e-11
3.277e-10
1.156e-09
3.609e-09
9.945e-09
2.417e-08
5.182e-08
9.82e-08
1.653e-07
2.483e-07
3.38e-07
4.212e-07
4.855e-07
5.24e-07
5.179e-07
4.928e-07
4.488e-07
3.929e-07
3.326e-07
2.741e-07
2.211e-07
1.756e-07
1.38e-07
1.078e-07
8.411e-08
6.573e-08
5.163e-08
4.088e-08
3.269e-08
2.645e-08
2.168e-08
1.802e-08
1.521e-08
1.302e-08
1.133e-08
1e-08
8.961e-09
8.147e-09
7.511e-09
7.019e-09
6.643e-09
6.363e-09
6.165e-09
6.038e-09
5.96e-09
5.966e-09
6.007e-09
6.094e-09
6.227e-09
6.405e-09
6.629e-09
6.897e-09
7.211e-09
7.574e-09
7.986e-09
8.45e-09
8.969e-09
9.546e-09
1.019e-08
1.089e-08
1.167e-08
1.252e-08
1.345e-08
1.447e-08
1.558e-08
1.678e-08
1.809e-08
1.951e-08
2.104e-08
2.269e-08
2.448e-08
2.633e-08
2.935e-08
7.897e-56
-7.925e-55
6.283e-54
-4.711e-53
3.333e-52
-2.217e-51
1.375e-50
-7.814e-50
3.915e-49
-1.581e-48
4.252e-49
4.241e-47
-5.757e-46
5.729e-45
-4.906e-44
3.843e-43
-2.837e-42
2.005e-41
-1.368e-40
9.066e-40
-5.853e-39
3.687e-38
-2.265e-37
1.356e-36
-7.872e-36
4.398e-35
-2.361e-34
1.222e-33
-5.837e-33
3.354e-32
-1.445e-31
3.065e-31
5.276e-31
-1.631e-29
1.751e-28
-1.489e-27
1.133e-26
-8.049e-26
5.439e-25
-3.53e-24
2.217e-23
-1.336e-22
8.379e-22
-2.55e-21
1.174e-19
2.303e-18
2.629e-17
2.626e-16
2.415e-15
2.042e-14
1.579e-13
1.109e-12
7.035e-12
4.003e-11
2.033e-10
9.163e-10
3.65e-09
1.28e-08
3.942e-08
1.063e-07
2.505e-07
5.161e-07
9.314e-07
1.481e-06
2.091e-06
2.67e-06
3.125e-06
3.397e-06
3.35e-06
3.166e-06
2.851e-06
2.457e-06
2.04e-06
1.643e-06
1.292e-06
9.972e-07
7.6e-07
5.748e-07
4.333e-07
3.269e-07
2.477e-07
1.892e-07
1.459e-07
1.139e-07
9.014e-08
7.241e-08
5.909e-08
4.901e-08
4.132e-08
3.541e-08
3.084e-08
2.73e-08
2.453e-08
2.237e-08
2.069e-08
1.939e-08
1.84e-08
1.767e-08
1.716e-08
1.684e-08
1.666e-08
1.669e-08
1.681e-08
1.706e-08
1.744e-08
1.793e-08
1.854e-08
1.927e-08
2.012e-08
2.11e-08
2.22e-08
2.344e-08
2.482e-08
2.634e-08
2.803e-08
2.988e-08
3.191e-08
3.413e-08
3.654e-08
3.917e-08
4.202e-08
4.511e-08
4.845e-08
5.205e-08
5.592e-08
6.011e-08
6.439e-08
7.143e-08
-4.947e-55
4.348e-54
-3.276e-53
2.54e-52
-1.994e-51
1.568e-50
-1.222e-49
9.357e-49
-7.013e-48
5.138e-47
-3.68e-46
2.581e-45
-1.776e-44
1.202e-43
-8.013e-43
5.274e-42
-3.433e-41
2.213e-40
-1.415e-39
8.984e-39
-5.667e-38
3.555e-37
-2.218e-36
1.377e-35
-8.509e-35
5.232e-34
-3.202e-33
1.95e-32
-1.181e-31
7.107e-31
-4.252e-30
2.528e-29
-1.492e-28
8.744e-28
-5.083e-27
2.93e-26
-1.673e-25
9.458e-25
-5.288e-24
2.923e-23
-1.587e-22
8.798e-22
-3.914e-21
4.835e-20
1.458e-18
1.91e-17
2.136e-16
2.199e-15
2.09e-14
1.823e-13
1.45e-12
1.043e-11
6.751e-11
3.9e-10
1.999e-09
9.036e-09
3.587e-08
1.244e-07
3.759e-07
9.859e-07
2.24e-06
4.405e-06
7.521e-06
1.125e-05
1.485e-05
1.779e-05
1.97e-05
1.946e-05
1.838e-05
1.648e-05
1.408e-05
1.155e-05
9.157e-06
7.067e-06
5.34e-06
3.973e-06
2.926e-06
2.144e-06
1.569e-06
1.153e-06
8.522e-07
6.362e-07
4.807e-07
3.683e-07
2.866e-07
2.267e-07
1.824e-07
1.493e-07
1.244e-07
1.055e-07
9.099e-08
7.978e-08
7.107e-08
6.429e-08
5.901e-08
5.491e-08
5.176e-08
4.939e-08
4.766e-08
4.647e-08
4.575e-08
4.544e-08
4.559e-08
4.603e-08
4.679e-08
4.786e-08
4.924e-08
5.092e-08
5.29e-08
5.52e-08
5.781e-08
6.075e-08
6.404e-08
6.768e-08
7.169e-08
7.61e-08
8.093e-08
8.619e-08
9.192e-08
9.814e-08
1.049e-07
1.122e-07
1.2e-07
1.284e-07
1.375e-07
1.473e-07
1.572e-07
1.736e-07
-2.73e-54
2.646e-53
-2.1e-52
1.622e-51
-1.214e-50
8.807e-50
-6.206e-49
4.26e-48
-2.859e-47
1.883e-46
-1.221e-45
7.819e-45
-4.962e-44
3.128e-43
-1.961e-42
1.225e-41
-7.63e-41
4.742e-40
-2.943e-39
1.825e-38
-1.132e-37
7.018e-37
-4.357e-36
2.711e-35
-1.691e-34
1.06e-33
-6.621e-33
4.123e-32
-2.558e-31
1.582e-30
-9.74e-30
5.974e-29
-3.648e-28
2.217e-27
-1.34e-26
8.055e-26
-4.812e-25
2.855e-24
-1.681e-23
9.84e-23
-5.621e-22
3.516e-21
-1.404e-20
4.724e-19
1.038e-17
1.343e-16
1.543e-15
1.64e-14
1.607e-13
1.442e-12
1.175e-11
8.635e-11
5.675e-10
3.311e-09
1.703e-08
7.674e-08
3.013e-07
1.026e-06
3.014e-06
7.619e-06
1.653e-05
3.074e-05
4.938e-05
6.912e-05
8.525e-05
9.771e-05
9.72e-05
9.251e-05
8.325e-05
7.114e-05
5.817e-05
4.585e-05
3.506e-05
2.618e-05
1.919e-05
1.388e-05
9.959e-06
7.124e-06
5.102e-06
3.673e-06
2.667e-06
1.958e-06
1.458e-06
1.103e-06
8.478e-07
6.636e-07
5.29e-07
4.295e-07
3.551e-07
2.99e-07
2.562e-07
2.233e-07
1.979e-07
1.781e-07
1.626e-07
1.506e-07
1.413e-07
1.343e-07
1.29e-07
1.252e-07
1.229e-07
1.213e-07
1.214e-07
1.221e-07
1.235e-07
1.258e-07
1.289e-07
1.328e-07
1.374e-07
1.428e-07
1.49e-07
1.56e-07
1.637e-07
1.724e-07
1.819e-07
1.924e-07
2.038e-07
2.163e-07
2.298e-07
2.445e-07
2.604e-07
2.775e-07
2.958e-07
3.156e-07
3.367e-07
3.594e-07
3.824e-07
4.202e-07
5.159e-54
-5.098e-53
4.091e-52
-3.171e-51
2.366e-50
-1.701e-49
1.179e-48
-7.897e-48
5.114e-47
-3.21e-46
1.958e-45
-1.164e-44
6.765e-44
-3.866e-43
2.184e-42
-1.229e-41
6.952e-41
-3.993e-40
2.351e-39
-1.429e-38
9.002e-38
-5.859e-37
3.918e-36
-2.672e-35
1.844e-34
-1.282e-33
8.721e-33
-5.832e-32
3.844e-31
-2.502e-30
1.611e-29
-1.027e-28
6.492e-28
-4.07e-27
2.534e-26
-1.566e-25
9.623e-25
-5.875e-24
3.568e-23
-2.139e-22
1.355e-21
-4.478e-21
1.951e-19
4.652e-18
6.563e-17
8.316e-16
9.813e-15
1.074e-13
1.081e-12
9.936e-12
8.267e-11
6.171e-10
4.096e-09
2.397e-08
1.227e-07
5.458e-07
2.096e-06
6.913e-06
1.948e-05
4.681e-05
9.568e-05
0.0001669
0.0002511
0.0003285
0.0003861
0.0004006
0.0003858
0.0003513
0.0003031
0.0002498
0.000198
0.0001519
0.0001134
8.288e-05
5.956e-05
4.231e-05
2.985e-05
2.103e-05
1.485e-05
1.055e-05
7.577e-06
5.51e-06
4.067e-06
3.053e-06
2.332e-06
1.816e-06
1.44e-06
1.165e-06
9.597e-07
8.055e-07
6.883e-07
5.984e-07
5.289e-07
4.749e-07
4.328e-07
3.999e-07
3.744e-07
3.548e-07
3.401e-07
3.294e-07
3.222e-07
3.177e-07
3.163e-07
3.174e-07
3.204e-07
3.255e-07
3.325e-07
3.414e-07
3.522e-07
3.648e-07
3.794e-07
3.959e-07
4.143e-07
4.348e-07
4.573e-07
4.821e-07
5.091e-07
5.385e-07
5.704e-07
6.048e-07
6.42e-07
6.819e-07
7.248e-07
7.706e-07
8.195e-07
8.719e-07
9.248e-07
1.012e-06
-2.211e-53
2.038e-52
-1.571e-51
1.21e-50
-9.234e-50
6.96e-49
-5.169e-48
3.775e-47
-2.708e-46
1.906e-45
-1.317e-44
8.933e-44
-5.956e-43
3.908e-42
-2.526e-41
1.611e-40
-1.016e-39
6.333e-39
-3.912e-38
2.397e-37
-1.458e-36
8.819e-36
-5.303e-35
3.174e-34
-1.892e-33
1.123e-32
-6.632e-32
3.899e-31
-2.284e-30
1.334e-29
-7.766e-29
4.512e-28
-2.616e-27
1.515e-26
-8.759e-26
5.062e-25
-2.925e-24
1.69e-23
-9.746e-23
5.799e-22
-2.569e-21
4.745e-20
1.572e-18
2.474e-17
3.445e-16
4.482e-15
5.436e-14
6.103e-13
6.289e-12
5.896e-11
4.981e-10
3.755e-09
2.499e-08
1.455e-07
7.333e-07
3.177e-06
1.175e-05
3.688e-05
9.783e-05
0.0002193
0.0004159
0.0006775
0.0009518
0.001175
0.00129
0.001261
0.001172
0.001033
0.0008699
0.0007038
0.0005501
0.0004173
0.0003087
0.0002237
0.0001595
0.0001125
7.879e-05
5.513e-05
3.87e-05
2.737e-05
1.956e-05
1.418e-05
1.044e-05
7.819e-06
5.968e-06
4.643e-06
3.684e-06
2.979e-06
2.456e-06
2.063e-06
1.764e-06
1.535e-06
1.357e-06
1.219e-06
1.111e-06
1.027e-06
9.614e-07
9.108e-07
8.726e-07
8.446e-07
8.252e-07
8.134e-07
8.077e-07
8.097e-07
8.161e-07
8.274e-07
8.435e-07
8.642e-07
8.896e-07
9.194e-07
9.538e-07
9.928e-07
1.036e-06
1.085e-06
1.138e-06
1.196e-06
1.26e-06
1.329e-06
1.403e-06
1.483e-06
1.57e-06
1.662e-06
1.761e-06
1.867e-06
1.978e-06
2.098e-06
2.218e-06
2.414e-06
-4.297e-53
4.239e-52
-3.431e-51
2.711e-50
-2.081e-49
1.552e-48
-1.125e-47
7.934e-47
-5.451e-46
3.657e-45
-2.4e-44
1.546e-43
-9.792e-43
6.12e-42
-3.786e-41
2.324e-40
-1.42e-39
8.655e-39
-5.274e-38
3.219e-37
-1.97e-36
1.21e-35
-7.458e-35
4.617e-34
-2.87e-33
1.789e-32
-1.112e-31
6.874e-31
-4.227e-30
2.589e-29
-1.581e-28
9.631e-28
-5.859e-27
3.562e-26
-2.166e-25
1.318e-24
-8.038e-24
4.914e-23
-2.998e-22
1.933e-21
-7.235e-21
2.629e-19
7.006e-18
1.103e-16
1.572e-15
2.097e-14
2.605e-13
2.989e-12
3.139e-11
2.988e-10
2.55e-09
1.929e-08
1.277e-07
7.32e-07
3.589e-06
1.492e-05
5.219e-05
0.0001525
0.0003723
0.0007635
0.00133
0.002039
0.002653
0.003095
0.003088
0.002956
0.002693
0.00235
0.001972
0.001598
0.001254
0.0009557
0.0007103
0.0005169
0.0003699
0.0002615
0.0001836
0.0001287
9.052e-05
6.415e-05
4.597e-05
3.341e-05
2.468e-05
1.856e-05
1.423e-05
1.112e-05
8.859e-06
7.198e-06
5.961e-06
5.028e-06
4.317e-06
3.77e-06
3.346e-06
3.015e-06
2.756e-06
2.553e-06
2.394e-06
2.272e-06
2.179e-06
2.111e-06
2.064e-06
2.035e-06
2.021e-06
2.025e-06
2.04e-06
2.067e-06
2.105e-06
2.154e-06
2.214e-06
2.285e-06
2.366e-06
2.458e-06
2.561e-06
2.675e-06
2.799e-06
2.936e-06
3.084e-06
3.244e-06
3.416e-06
3.601e-06
3.799e-06
4.01e-06
4.235e-06
4.473e-06
4.725e-06
4.992e-06
5.258e-06
5.691e-06
1.176e-52
-1.08e-51
8.293e-51
-6.373e-50
4.856e-49
-3.657e-48
2.716e-47
-1.985e-46
1.426e-45
-1.006e-44
6.97e-44
-4.741e-43
3.168e-42
-2.081e-41
1.345e-40
-8.558e-40
5.369e-39
-3.324e-38
2.033e-37
-1.231e-36
7.373e-36
-4.38e-35
2.582e-34
-1.512e-33
8.801e-33
-5.097e-32
2.936e-31
-1.687e-30
9.679e-30
-5.547e-29
3.18e-28
-1.824e-27
1.049e-26
-6.047e-26
3.5e-25
-2.035e-24
1.191e-23
-6.995e-23
4.254e-22
-1.921e-21
4.62e-20
1.599e-18
2.762e-17
4.276e-16
6.221e-15
8.482e-14
1.075e-12
1.257e-11
1.34e-10
1.29e-09
1.106e-08
8.341e-08
5.455e-07
3.048e-06
1.435e-05
5.635e-05
0.0001827
0.0004864
0.00107
0.001978
0.003174
0.004711
0.005557
0.005896
0.005705
0.005334
0.004873
0.004311
0.003661
0.003009
0.002398
0.001857
0.001402
0.001034
0.0007496
0.000536
0.0003803
0.0002691
0.0001909
0.0001365
9.868e-05
7.237e-05
5.395e-05
4.095e-05
3.168e-05
2.498e-05
2.008e-05
1.646e-05
1.374e-05
1.168e-05