/*--------------------------------*- C++ -*----------------------------------*\
  =========                 |
  \\      /  F ield         | OpenFOAM: The Open Source CFD Toolbox
   \\    /   O peration     | Website:  https://openfoam.org
    \\  /    A nd           | Version:  7
     \\/     M anipulation  |
\*---------------------------------------------------------------------------*/
FoamFile
{
    version     2.0;
    format      ascii;
    class       volScalarField;
    location    "359.999473411202814";
    object      p;
}
// * * * * * * * * * * * * * * * * * * * * * * * * * * * * * * * * * * * * * //

dimensions      [0 2 -2 0 0 0 0];

internalField   nonuniform List<scalar> 
4096
(
0.0006727
0.0005018
0.0004176
0.0003754
0.0003521
0.0003382
0.0003293
0.0003233
0.0003189
0.0003156
0.0003131
0.0003111
0.0003095
0.0003081
0.0003069
0.0003059
0.0003051
0.0003043
0.0003036
0.0003029
0.0003023
0.0003017
0.0003012
0.0003006
0.0003001
0.0002996
0.0002991
0.0002986
0.0002981
0.0002976
0.000297
0.0002964
0.0002958
0.0002952
0.0002944
0.0002937
0.0002928
0.0002918
0.0002908
0.0002896
0.0002882
0.0002867
0.0002849
0.0002829
0.0002807
0.0002782
0.0002753
0.0002721
0.0002685
0.0002645
0.00026
0.000255
0.0002496
0.0002437
0.0002372
0.0002303
0.0002228
0.0002149
0.0002066
0.0001979
0.0001888
0.0001795
0.00017
0.0001604
0.0001507
0.0001411
0.0001317
0.0001225
0.0001135
0.0001049
9.672e-05
8.895e-05
8.163e-05
7.479e-05
6.843e-05
6.256e-05
5.717e-05
5.225e-05
4.778e-05
4.375e-05
4.011e-05
3.686e-05
3.396e-05
3.138e-05
2.909e-05
2.706e-05
2.526e-05
2.367e-05
2.227e-05
2.102e-05
1.99e-05
1.891e-05
1.801e-05
1.72e-05
1.645e-05
1.577e-05
1.514e-05
1.454e-05
1.398e-05
1.345e-05
1.293e-05
1.243e-05
1.194e-05
1.146e-05
1.099e-05
1.052e-05
1.005e-05
9.587e-06
9.122e-06
8.655e-06
8.186e-06
7.715e-06
7.242e-06
6.765e-06
6.285e-06
5.801e-06
5.313e-06
4.822e-06
4.326e-06
3.827e-06
3.324e-06
2.818e-06
2.311e-06
1.805e-06
1.305e-06
8.172e-07
3.609e-07
3.686e-08
0.0005283
0.0004645
0.0004147
0.0003827
0.0003618
0.0003475
0.0003375
0.0003302
0.0003247
0.0003205
0.0003172
0.0003145
0.0003123
0.0003105
0.000309
0.0003076
0.0003065
0.0003054
0.0003045
0.0003037
0.0003029
0.0003021
0.0003014
0.0003008
0.0003001
0.0002995
0.0002988
0.0002982
0.0002975
0.0002969
0.0002962
0.0002954
0.0002947
0.0002939
0.000293
0.0002921
0.000291
0.0002899
0.0002887
0.0002873
0.0002857
0.000284
0.0002821
0.00028
0.0002776
0.0002749
0.0002719
0.0002686
0.0002649
0.0002608
0.0002563
0.0002513
0.0002459
0.0002401
0.0002338
0.000227
0.0002198
0.0002122
0.0002042
0.0001959
0.0001872
0.0001783
0.0001693
0.0001601
0.000151
0.0001418
0.0001328
0.000124
0.0001155
0.0001073
9.939e-05
9.189e-05
8.48e-05
7.814e-05
7.192e-05
6.614e-05
6.081e-05
5.59e-05
5.141e-05
4.732e-05
4.362e-05
4.026e-05
3.725e-05
3.453e-05
3.21e-05
2.992e-05
2.797e-05
2.622e-05
2.465e-05
2.325e-05
2.198e-05
2.083e-05
1.979e-05
1.884e-05
1.797e-05
1.716e-05
1.641e-05
1.57e-05
1.504e-05
1.441e-05
1.38e-05
1.322e-05
1.266e-05
1.211e-05
1.157e-05
1.104e-05
1.052e-05
1.001e-05
9.5e-06
8.993e-06
8.488e-06
7.985e-06
7.483e-06
6.98e-06
6.477e-06
5.973e-06
5.467e-06
4.96e-06
4.452e-06
3.942e-06
3.431e-06
2.919e-06
2.408e-06
1.9e-06
1.397e-06
9.05e-07
4.338e-07
6.705e-08
0.0004448
0.0004231
0.0003977
0.0003769
0.0003614
0.0003497
0.0003407
0.0003337
0.0003282
0.0003237
0.0003201
0.0003171
0.0003146
0.0003125
0.0003107
0.0003091
0.0003077
0.0003065
0.0003054
0.0003043
0.0003034
0.0003025
0.0003017
0.0003008
0.0003001
0.0002993
0.0002985
0.0002977
0.000297
0.0002962
0.0002953
0.0002945
0.0002936
0.0002926
0.0002916
0.0002905
0.0002894
0.0002881
0.0002867
0.0002851
0.0002834
0.0002816
0.0002795
0.0002772
0.0002747
0.0002719
0.0002688
0.0002654
0.0002616
0.0002575
0.000253
0.0002481
0.0002427
0.000237
0.0002308
0.0002242
0.0002172
0.0002099
0.0002022
0.0001941
0.0001858
0.0001773
0.0001687
0.0001599
0.0001511
0.0001424
0.0001338
0.0001254
0.0001172
0.0001093
0.0001017
9.445e-05
8.757e-05
8.108e-05
7.5e-05
6.931e-05
6.404e-05
5.916e-05
5.466e-05
5.055e-05
4.679e-05
4.336e-05
4.025e-05
3.743e-05
3.488e-05
3.258e-05
3.049e-05
2.861e-05
2.69e-05
2.536e-05
2.395e-05
2.267e-05
2.15e-05
2.042e-05
1.943e-05
1.851e-05
1.765e-05
1.684e-05
1.608e-05
1.535e-05
1.466e-05
1.4e-05
1.337e-05
1.275e-05
1.215e-05
1.157e-05
1.1e-05
1.044e-05
9.882e-06
9.336e-06
8.796e-06
8.261e-06
7.729e-06
7.201e-06
6.675e-06
6.15e-06
5.626e-06
5.104e-06
4.582e-06
4.06e-06
3.539e-06
3.019e-06
2.5e-06
1.984e-06
1.472e-06
9.67e-07
4.722e-07
7.185e-08
0.0004
0.000393
0.0003796
0.0003665
0.0003556
0.0003468
0.0003397
0.0003339
0.000329
0.0003248
0.0003214
0.0003184
0.0003159
0.0003137
0.0003118
0.0003101
0.0003086
0.0003072
0.000306
0.0003048
0.0003038
0.0003028
0.0003018
0.0003009
0.0003
0.0002991
0.0002982
0.0002973
0.0002965
0.0002955
0.0002946
0.0002936
0.0002926
0.0002916
0.0002904
0.0002892
0.0002879
0.0002865
0.000285
0.0002833
0.0002815
0.0002795
0.0002773
0.0002749
0.0002723
0.0002694
0.0002663
0.0002628
0.000259
0.0002548
0.0002503
0.0002454
0.0002402
0.0002345
0.0002285
0.000222
0.0002152
0.000208
0.0002005
0.0001928
0.0001847
0.0001765
0.0001682
0.0001597
0.0001513
0.0001429
0.0001346
0.0001264
0.0001185
0.0001108
0.0001035
9.643e-05
8.973e-05
8.338e-05
7.741e-05
7.182e-05
6.66e-05
6.176e-05
5.728e-05
5.315e-05
4.936e-05
4.589e-05
4.272e-05
3.983e-05
3.72e-05
3.48e-05
3.262e-05
3.064e-05
2.882e-05
2.717e-05
2.566e-05
2.427e-05
2.299e-05
2.181e-05
2.072e-05
1.97e-05
1.875e-05
1.785e-05
1.701e-05
1.621e-05
1.544e-05
1.472e-05
1.401e-05
1.334e-05
1.269e-05
1.205e-05
1.143e-05
1.083e-05
1.024e-05
9.656e-06
9.084e-06
8.519e-06
7.961e-06
7.409e-06
6.861e-06
6.317e-06
5.777e-06
5.239e-06
4.704e-06
4.17e-06
3.638e-06
3.108e-06
2.579e-06
2.052e-06
1.528e-06
1.007e-06
4.897e-07
6.792e-08
0.0003731
0.0003721
0.0003652
0.0003566
0.0003488
0.0003423
0.0003367
0.0003321
0.000328
0.0003245
0.0003214
0.0003187
0.0003163
0.0003142
0.0003123
0.0003106
0.000309
0.0003076
0.0003063
0.0003051
0.000304
0.0003029
0.0003019
0.0003008
0.0002999
0.0002989
0.0002979
0.000297
0.000296
0.000295
0.000294
0.0002929
0.0002918
0.0002906
0.0002894
0.0002881
0.0002867
0.0002852
0.0002836
0.0002818
0.0002799
0.0002778
0.0002756
0.0002731
0.0002704
0.0002675
0.0002643
0.0002608
0.0002569
0.0002528
0.0002483
0.0002434
0.0002382
0.0002326
0.0002267
0.0002203
0.0002136
0.0002066
0.0001993
0.0001917
0.0001839
0.0001759
0.0001678
0.0001595
0.0001513
0.0001431
0.0001351
0.0001272
0.0001194
0.000112
0.0001048
9.791e-05
9.134e-05
8.512e-05
7.925e-05
7.373e-05
6.857e-05
6.377e-05
5.931e-05
5.519e-05
5.139e-05
4.79e-05
4.469e-05
4.176e-05
3.907e-05
3.661e-05
3.436e-05
3.23e-05
3.042e-05
2.868e-05
2.709e-05
2.562e-05
2.426e-05
2.3e-05
2.182e-05
2.073e-05
1.97e-05
1.873e-05
1.782e-05
1.695e-05
1.613e-05
1.534e-05
1.459e-05
1.386e-05
1.316e-05
1.248e-05
1.182e-05
1.118e-05
1.056e-05
9.943e-06
9.342e-06
8.752e-06
8.17e-06
7.597e-06
7.03e-06
6.469e-06
5.914e-06
5.362e-06
4.814e-06
4.269e-06
3.726e-06
3.186e-06
2.647e-06
2.109e-06
1.572e-06
1.036e-06
5.004e-07
6.343e-08
0.0003557
0.0003573
0.0003539
0.0003483
0.0003426
0.0003375
0.0003332
0.0003294
0.0003261
0.0003232
0.0003206
0.0003182
0.000316
0.0003141
0.0003123
0.0003107
0.0003091
0.0003077
0.0003064
0.0003052
0.000304
0.0003029
0.0003018
0.0003008
0.0002997
0.0002987
0.0002977
0.0002966
0.0002956
0.0002945
0.0002934
0.0002923
0.0002911
0.0002899
0.0002886
0.0002872
0.0002857
0.0002841
0.0002824
0.0002806
0.0002787
0.0002765
0.0002742
0.0002717
0.000269
0.000266
0.0002628
0.0002592
0.0002554
0.0002513
0.0002468
0.000242
0.0002368
0.0002312
0.0002253
0.0002191
0.0002125
0.0002056
0.0001984
0.000191
0.0001833
0.0001754
0.0001674
0.0001594
0.0001513
0.0001433
0.0001354
0.0001276
0.0001201
0.0001128
0.0001057
9.894e-05
9.249e-05
8.636e-05
8.057e-05
7.512e-05
7.001e-05
6.524e-05
6.081e-05
5.67e-05
5.291e-05
4.941e-05
4.619e-05
4.324e-05
4.052e-05
3.802e-05
3.573e-05
3.362e-05
3.168e-05
2.99e-05
2.824e-05
2.671e-05
2.529e-05
2.397e-05
2.273e-05
2.158e-05
2.049e-05
1.947e-05
1.85e-05
1.758e-05
1.671e-05
1.587e-05
1.507e-05
1.43e-05
1.356e-05
1.285e-05
1.216e-05
1.148e-05
1.083e-05
1.019e-05
9.566e-06
8.953e-06
8.352e-06
7.76e-06
7.177e-06
6.601e-06
6.032e-06
5.469e-06
4.909e-06
4.354e-06
3.802e-06
3.252e-06
2.703e-06
2.156e-06
1.608e-06
1.06e-06
5.09e-07
6.019e-08
0.0003438
0.0003463
0.000345
0.0003414
0.0003372
0.0003332
0.0003297
0.0003267
0.0003239
0.0003215
0.0003193
0.0003172
0.0003153
0.0003136
0.0003119
0.0003104
0.000309
0.0003076
0.0003064
0.0003051
0.000304
0.0003028
0.0003017
0.0003006
0.0002996
0.0002985
0.0002974
0.0002964
0.0002953
0.0002941
0.000293
0.0002918
0.0002906
0.0002893
0.0002879
0.0002865
0.000285
0.0002833
0.0002816
0.0002797
0.0002777
0.0002756
0.0002732
0.0002707
0.0002679
0.000265
0.0002617
0.0002582
0.0002544
0.0002502
0.0002458
0.000241
0.0002358
0.0002303
0.0002245
0.0002183
0.0002118
0.0002049
0.0001978
0.0001904
0.0001829
0.0001751
0.0001672
0.0001592
0.0001513
0.0001433
0.0001355
0.0001279
0.0001204
0.0001132
0.0001063
9.958e-05
9.32e-05
8.714e-05
8.14e-05
7.6e-05
7.094e-05
6.62e-05
6.18e-05
5.772e-05
5.394e-05
5.045e-05
4.724e-05
4.428e-05
4.156e-05
3.905e-05
3.673e-05
3.46e-05
3.263e-05
3.081e-05
2.912e-05
2.755e-05
2.609e-05
2.472e-05
2.344e-05
2.225e-05
2.112e-05
2.005e-05
1.904e-05
1.808e-05
1.717e-05
1.63e-05
1.546e-05
1.466e-05
1.389e-05
1.315e-05
1.243e-05
1.173e-05
1.105e-05
1.039e-05
9.749e-06
9.119e-06
8.501e-06
7.894e-06
7.298e-06
6.71e-06
6.13e-06
5.556e-06
4.988e-06
4.424e-06
3.864e-06
3.306e-06
2.75e-06
2.194e-06
1.638e-06
1.08e-06
5.172e-07
5.889e-08
0.0003352
0.0003379
0.0003378
0.0003356
0.0003326
0.0003295
0.0003266
0.000324
0.0003217
0.0003197
0.0003178
0.000316
0.0003144
0.0003128
0.0003113
0.0003099
0.0003086
0.0003073
0.0003061
0.0003049
0.0003038
0.0003027
0.0003016
0.0003005
0.0002994
0.0002983
0.0002972
0.0002961
0.000295
0.0002938
0.0002927
0.0002914
0.0002902
0.0002888
0.0002875
0.000286
0.0002844
0.0002828
0.000281
0.0002791
0.0002771
0.000275
0.0002726
0.0002701
0.0002673
0.0002643
0.0002611
0.0002576
0.0002538
0.0002497
0.0002453
0.0002405
0.0002353
0.0002299
0.000224
0.0002179
0.0002114
0.0002046
0.0001975
0.0001901
0.0001826
0.0001749
0.000167
0.0001591
0.0001511
0.0001433
0.0001355
0.0001279
0.0001205
0.0001134
0.0001065
9.983e-05
9.35e-05
8.748e-05
8.178e-05
7.642e-05
7.138e-05
6.668e-05
6.231e-05
5.826e-05
5.451e-05
5.104e-05
4.785e-05
4.491e-05
4.219e-05
3.969e-05
3.738e-05
3.524e-05
3.327e-05
3.143e-05
2.973e-05
2.814e-05
2.665e-05
2.526e-05
2.396e-05
2.273e-05
2.157e-05
2.048e-05
1.944e-05
1.845e-05
1.751e-05
1.662e-05
1.576e-05
1.493e-05
1.414e-05
1.337e-05
1.263e-05
1.192e-05
1.122e-05
1.055e-05
9.887e-06
9.244e-06
8.614e-06
7.996e-06
7.39e-06
6.793e-06
6.204e-06
5.623e-06
5.048e-06
4.478e-06
3.911e-06
3.348e-06
2.786e-06
2.225e-06
1.662e-06
1.097e-06
5.259e-07
5.982e-08
0.0003287
0.0003314
0.000332
0.0003308
0.0003286
0.0003262
0.0003238
0.0003216
0.0003197
0.0003179
0.0003162
0.0003147
0.0003133
0.0003119
0.0003106
0.0003093
0.0003081
0.0003069
0.0003058
0.0003046
0.0003035
0.0003024
0.0003013
0.0003003
0.0002992
0.0002981
0.000297
0.0002959
0.0002948
0.0002936
0.0002924
0.0002912
0.0002899
0.0002886
0.0002872
0.0002857
0.0002841
0.0002825
0.0002807
0.0002788
0.0002768
0.0002747
0.0002723
0.0002698
0.0002671
0.0002641
0.0002609
0.0002575
0.0002537
0.0002496
0.0002452
0.0002404
0.0002353
0.0002298
0.000224
0.0002178
0.0002113
0.0002045
0.0001974
0.0001901
0.0001825
0.0001747
0.0001669
0.0001589
0.000151
0.0001431
0.0001353
0.0001277
0.0001204
0.0001132
0.0001063
9.971e-05
9.34e-05
8.739e-05
8.171e-05
7.636e-05
7.136e-05
6.668e-05
6.235e-05
5.833e-05
5.462e-05
5.119e-05
4.804e-05
4.513e-05
4.245e-05
3.997e-05
3.768e-05
3.556e-05
3.36e-05
3.177e-05
3.006e-05
2.847e-05
2.698e-05
2.558e-05
2.427e-05
2.303e-05
2.186e-05
2.075e-05
1.97e-05
1.869e-05
1.774e-05
1.682e-05
1.595e-05
1.511e-05
1.43e-05
1.352e-05
1.277e-05
1.204e-05
1.133e-05
1.065e-05
9.979e-06
9.326e-06
8.688e-06
8.063e-06
7.45e-06
6.847e-06
6.253e-06
5.667e-06
5.088e-06
4.514e-06
3.944e-06
3.378e-06
2.813e-06
2.248e-06
1.682e-06
1.112e-06
5.356e-07
6.322e-08
0.0003236
0.0003262
0.0003272
0.0003266
0.0003252
0.0003233
0.0003213
0.0003195
0.0003178
0.0003162
0.0003148
0.0003134
0.0003122
0.000311
0.0003098
0.0003086
0.0003075
0.0003064
0.0003053
0.0003043
0.0003032
0.0003022
0.0003011
0.0003001
0.000299
0.000298
0.0002969
0.0002958
0.0002947
0.0002935
0.0002923
0.0002911
0.0002898
0.0002885
0.0002871
0.0002856
0.0002841
0.0002824
0.0002807
0.0002788
0.0002768
0.0002747
0.0002724
0.0002699
0.0002673
0.0002643
0.0002612
0.0002578
0.000254
0.00025
0.0002456
0.0002408
0.0002357
0.0002302
0.0002244
0.0002182
0.0002116
0.0002048
0.0001976
0.0001902
0.0001826
0.0001748
0.0001668
0.0001588
0.0001507
0.0001428
0.000135
0.0001273
0.0001199
0.0001128
0.0001058
9.921e-05
9.288e-05
8.686e-05
8.118e-05
7.584e-05
7.085e-05
6.621e-05
6.191e-05
5.794e-05
5.428e-05
5.091e-05
4.781e-05
4.495e-05
4.232e-05
3.989e-05
3.765e-05
3.556e-05
3.363e-05
3.182e-05
3.014e-05
2.856e-05
2.709e-05
2.57e-05
2.439e-05
2.315e-05
2.198e-05
2.086e-05
1.981e-05
1.88e-05
1.784e-05
1.692e-05
1.604e-05
1.519e-05
1.438e-05
1.359e-05
1.283e-05
1.21e-05
1.139e-05
1.069e-05
1.002e-05
9.364e-06
8.723e-06
8.094e-06
7.478e-06
6.873e-06
6.277e-06
5.689e-06
5.108e-06
4.533e-06
3.962e-06
3.395e-06
2.829e-06
2.264e-06
1.696e-06
1.125e-06
5.466e-07
6.925e-08
0.0003196
0.000322
0.0003232
0.0003231
0.0003221
0.0003207
0.0003192
0.0003176
0.0003161
0.0003147
0.0003135
0.0003123
0.0003111
0.00031
0.000309
0.0003079
0.0003069
0.0003059
0.0003049
0.0003039
0.0003029
0.0003019
0.0003009
0.0002999
0.0002989
0.0002979
0.0002968
0.0002957
0.0002946
0.0002935
0.0002923
0.0002911
0.0002899
0.0002885
0.0002872
0.0002857
0.0002842
0.0002826
0.0002809
0.0002791
0.0002771
0.0002751
0.0002728
0.0002704
0.0002678
0.000265
0.0002619
0.0002585
0.0002548
0.0002508
0.0002465
0.0002417
0.0002366
0.0002311
0.0002252
0.000219
0.0002123
0.0002054
0.0001981
0.0001906
0.0001829
0.0001749
0.0001668
0.0001586
0.0001504
0.0001424
0.0001344
0.0001267
0.0001192
0.000112
0.000105
9.829e-05
9.191e-05
8.586e-05
8.016e-05
7.481e-05
6.984e-05
6.523e-05
6.098e-05
5.707e-05
5.348e-05
5.019e-05
4.717e-05
4.439e-05
4.183e-05
3.947e-05
3.728e-05
3.525e-05
3.337e-05
3.161e-05
2.997e-05
2.842e-05
2.697e-05
2.56e-05
2.431e-05
2.309e-05
2.193e-05
2.083e-05
1.978e-05
1.878e-05
1.782e-05
1.691e-05
1.603e-05
1.518e-05
1.437e-05
1.358e-05
1.283e-05
1.209e-05
1.138e-05
1.069e-05
1.001e-05
9.358e-06
8.717e-06
8.089e-06
7.474e-06
6.869e-06
6.274e-06
5.688e-06
5.108e-06
4.534e-06
3.965e-06
3.4e-06
2.836e-06
2.272e-06
1.706e-06
1.136e-06
5.589e-07
7.8e-08
0.0003163
0.0003185
0.0003198
0.00032
0.0003195
0.0003185
0.0003172
0.0003159
0.0003146
0.0003134
0.0003123
0.0003112
0.0003102
0.0003092
0.0003082
0.0003073
0.0003063
0.0003054
0.0003045
0.0003035
0.0003026
0.0003017
0.0003007
0.0002998
0.0002988
0.0002978
0.0002968
0.0002957
0.0002947
0.0002936
0.0002924
0.0002913
0.00029
0.0002888
0.0002874
0.000286
0.0002846
0.000283
0.0002813
0.0002796
0.0002777
0.0002757
0.0002736
0.0002712
0.0002687
0.000266
0.000263
0.0002597
0.0002561
0.0002522
0.0002479
0.0002432
0.0002381
0.0002325
0.0002266
0.0002202
0.0002135
0.0002064
0.000199
0.0001913
0.0001834
0.0001753
0.0001669
0.0001585
0.0001501
0.0001418
0.0001337
0.0001258
0.0001182
0.0001108
0.0001037
9.69e-05
9.044e-05
8.434e-05
7.86e-05
7.326e-05
6.83e-05
6.374e-05
5.956e-05
5.573e-05
5.223e-05
4.904e-05
4.612e-05
4.344e-05
4.097e-05
3.87e-05
3.66e-05
3.465e-05
3.284e-05
3.114e-05
2.955e-05
2.806e-05
2.665e-05
2.532e-05
2.406e-05
2.286e-05
2.173e-05
2.065e-05
1.962e-05
1.863e-05
1.769e-05
1.679e-05
1.592e-05
1.508e-05
1.428e-05
1.35e-05
1.275e-05
1.202e-05
1.131e-05
1.063e-05
9.959e-06
9.307e-06
8.671e-06
8.047e-06
7.436e-06
6.836e-06
6.245e-06
5.663e-06
5.088e-06
4.518e-06
3.954e-06
3.392e-06
2.832e-06
2.273e-06
1.712e-06
1.146e-06
5.729e-07
8.951e-08
0.0003136
0.0003156
0.0003169
0.0003174
0.0003171
0.0003164
0.0003155
0.0003144
0.0003133
0.0003122
0.0003112
0.0003102
0.0003093
0.0003084
0.0003075
0.0003066
0.0003058
0.0003049
0.0003041
0.0003032
0.0003023
0.0003015
0.0003006
0.0002997
0.0002987
0.0002978
0.0002968
0.0002958
0.0002948
0.0002937
0.0002926
0.0002915
0.0002903
0.0002891
0.0002878
0.0002865
0.0002851
0.0002836
0.000282
0.0002804
0.0002786
0.0002767
0.0002746
0.0002724
0.00027
0.0002674
0.0002645
0.0002613
0.0002578
0.000254
0.0002498
0.0002452
0.0002401
0.0002345
0.0002285
0.0002221
0.0002152
0.000208
0.0002004
0.0001924
0.0001843
0.0001759
0.0001672
0.0001584
0.0001497
0.0001411
0.0001326
0.0001245
0.0001167
0.0001091
0.0001019
9.495e-05
8.839e-05
8.223e-05
7.646e-05
7.111e-05
6.62e-05
6.17e-05
5.761e-05
5.389e-05
5.052e-05
4.745e-05
4.466e-05
4.211e-05
3.977e-05
3.761e-05
3.562e-05
3.377e-05
3.204e-05
3.042e-05
2.891e-05
2.748e-05
2.612e-05
2.485e-05
2.363e-05
2.248e-05
2.138e-05
2.033e-05
1.933e-05
1.837e-05
1.745e-05
1.656e-05
1.571e-05
1.489e-05
1.411e-05
1.334e-05
1.26e-05
1.189e-05
1.119e-05
1.052e-05
9.857e-06
9.215e-06
8.586e-06
7.971e-06
7.368e-06
6.775e-06
6.191e-06
5.616e-06
5.048e-06
4.485e-06
3.927e-06
3.373e-06
2.82e-06
2.267e-06
1.713e-06
1.154e-06
5.883e-07
1.037e-07
0.0003113
0.0003132
0.0003145
0.0003151
0.0003151
0.0003146
0.0003139
0.0003131
0.0003121
0.0003112
0.0003103
0.0003094
0.0003085
0.0003077
0.0003069
0.0003061
0.0003053
0.0003045
0.0003037
0.0003029
0.0003021
0.0003013
0.0003005
0.0002996
0.0002987
0.0002978
0.0002969
0.000296
0.000295
0.000294
0.000293
0.0002919
0.0002908
0.0002896
0.0002884
0.0002871
0.0002858
0.0002844
0.0002829
0.0002813
0.0002797
0.0002779
0.000276
0.0002739
0.0002716
0.0002691
0.0002664
0.0002634
0.0002601
0.0002564
0.0002523
0.0002478
0.0002427
0.0002372
0.0002312
0.0002247
0.0002177
0.0002102
0.0002023
0.0001941
0.0001856
0.0001768
0.0001676
0.0001584
0.0001492
0.0001401
0.0001312
0.0001228
0.0001147
0.0001069
9.939e-05
9.231e-05
8.566e-05
7.943e-05
7.365e-05
6.833e-05
6.347e-05
5.908e-05
5.512e-05
5.155e-05
4.834e-05
4.544e-05
4.281e-05
4.042e-05
3.823e-05
3.621e-05
3.435e-05
3.262e-05
3.1e-05
2.948e-05
2.805e-05
2.67e-05
2.542e-05
2.42e-05
2.305e-05
2.194e-05
2.089e-05
1.988e-05
1.892e-05
1.799e-05
1.71e-05
1.625e-05
1.542e-05
1.463e-05
1.386e-05
1.312e-05
1.24e-05
1.17e-05
1.102e-05
1.036e-05
9.711e-06
9.081e-06
8.465e-06
7.862e-06
7.269e-06
6.687e-06
6.114e-06
5.548e-06
4.989e-06
4.436e-06
3.887e-06
3.342e-06
2.798e-06
2.255e-06
1.71e-06
1.161e-06
6.054e-07
1.206e-07
0.0003094
0.0003111
0.0003124
0.0003131
0.0003133
0.0003131
0.0003125
0.0003119
0.0003111
0.0003103
0.0003094
0.0003086
0.0003079
0.0003071
0.0003064
0.0003056
0.0003049
0.0003042
0.0003034
0.0003027
0.0003019
0.0003012
0.0003004
0.0002996
0.0002988
0.000298
0.0002971
0.0002962
0.0002953
0.0002944
0.0002934
0.0002924
0.0002913
0.0002902
0.0002891
0.0002879
0.0002867
0.0002854
0.000284
0.0002826
0.000281
0.0002794
0.0002776
0.0002757
0.0002736
0.0002713
0.0002688
0.000266
0.0002629
0.0002594
0.0002555
0.0002511
0.0002462
0.0002407
0.0002347
0.0002281
0.000221
0.0002134
0.0002052
0.0001966
0.0001877
0.0001784
0.0001685
0.0001584
0.0001485
0.0001387
0.0001292
0.0001203
0.0001119
0.0001038
9.605e-05
8.882e-05
8.21e-05
7.584e-05
7.008e-05
6.482e-05
6.008e-05
5.585e-05
5.207e-05
4.87e-05
4.57e-05
4.3e-05
4.058e-05
3.838e-05
3.637e-05
3.452e-05
3.281e-05
3.122e-05
2.973e-05
2.833e-05
2.7e-05
2.574e-05
2.454e-05
2.34e-05
2.232e-05
2.127e-05
2.028e-05
1.932e-05
1.84e-05
1.752e-05
1.666e-05
1.584e-05
1.505e-05
1.429e-05
1.355e-05
1.283e-05
1.213e-05
1.145e-05
1.079e-05
1.015e-05
9.524e-06
8.911e-06
8.311e-06
7.722e-06
7.143e-06
6.574e-06
6.014e-06
5.461e-06
4.914e-06
4.372e-06
3.835e-06
3.301e-06
2.768e-06
2.237e-06
1.703e-06
1.167e-06
6.238e-07
1.399e-07
0.0003078
0.0003094
0.0003107
0.0003114
0.0003117
0.0003116
0.0003113
0.0003108
0.0003101
0.0003094
0.0003087
0.000308
0.0003073
0.0003066
0.0003059
0.0003052
0.0003046
0.0003039
0.0003032
0.0003025
0.0003018
0.0003011
0.0003004
0.0002997
0.0002989
0.0002981
0.0002973
0.0002965
0.0002957
0.0002948
0.0002939
0.000293
0.000292
0.000291
0.0002899
0.0002889
0.0002877
0.0002865
0.0002853
0.000284
0.0002826
0.0002811
0.0002795
0.0002778
0.0002759
0.0002738
0.0002716
0.000269
0.0002662
0.0002629
0.0002593
0.0002551
0.0002504
0.0002451
0.0002392
0.0002327
0.0002256
0.0002178
0.0002092
0.0002003
0.000191
0.0001809
0.0001698
0.0001586
0.0001477
0.0001368
0.0001263
0.0001167
0.000108
9.954e-05
9.155e-05
8.424e-05
7.754e-05
7.134e-05
6.566e-05
6.054e-05
5.599e-05
5.198e-05
4.845e-05
4.535e-05
4.261e-05
4.017e-05
3.799e-05
3.602e-05
3.423e-05
3.257e-05
3.104e-05
2.961e-05
2.826e-05
2.699e-05
2.578e-05
2.463e-05
2.352e-05
2.247e-05
2.146e-05
2.049e-05
1.955e-05
1.865e-05
1.779e-05
1.695e-05
1.614e-05
1.536e-05
1.461e-05
1.388e-05
1.317e-05
1.248e-05
1.181e-05
1.116e-05
1.053e-05
9.907e-06
9.301e-06
8.708e-06
8.126e-06
7.554e-06
6.993e-06
6.44e-06
5.894e-06
5.355e-06
4.823e-06
4.295e-06
3.771e-06
3.25e-06
2.731e-06
2.213e-06
1.693e-06
1.171e-06
6.436e-07
1.614e-07
0.0003064
0.0003079
0.0003092
0.00031
0.0003104
0.0003104
0.0003102
0.0003098
0.0003093
0.0003087
0.0003081
0.0003075
0.0003068
0.0003062
0.0003056
0.0003049
0.0003043
0.0003037
0.0003031
0.0003024
0.0003018
0.0003011
0.0003005
0.0002998
0.0002991
0.0002984
0.0002976
0.0002969
0.0002961
0.0002953
0.0002945
0.0002936
0.0002927
0.0002918
0.0002909
0.0002899
0.0002889
0.0002878
0.0002867
0.0002855
0.0002843
0.000283
0.0002816
0.0002801
0.0002785
0.0002767
0.0002747
0.0002724
0.0002699
0.000267
0.0002637
0.0002599
0.0002555
0.0002504
0.0002447
0.0002385
0.0002316
0.0002238
0.0002151
0.0002058
0.0001963
0.0001852
0.0001723
0.0001591
0.0001464
0.0001337
0.0001216
0.0001112
0.0001023
9.369e-05
8.553e-05
7.833e-05
7.184e-05
6.581e-05
6.032e-05
5.544e-05
5.118e-05
4.749e-05
4.429e-05
4.152e-05
3.91e-05
3.697e-05
3.508e-05
3.338e-05
3.183e-05
3.04e-05
2.907e-05
2.781e-05
2.663e-05
2.549e-05
2.441e-05
2.338e-05
2.238e-05
2.142e-05
2.049e-05
1.96e-05
1.873e-05
1.79e-05
1.709e-05
1.631e-05
1.555e-05
1.482e-05
1.411e-05
1.342e-05
1.274e-05
1.209e-05
1.145e-05
1.083e-05
1.022e-05
9.629e-06
9.046e-06
8.475e-06
7.915e-06
7.363e-06
6.821e-06
6.285e-06
5.757e-06
5.235e-06
4.718e-06
4.206e-06
3.697e-06
3.191e-06
2.687e-06
2.184e-06
1.68e-06
1.175e-06
6.645e-07
1.848e-07
0.0003053
0.0003067
0.0003079
0.0003087
0.0003092
0.0003093
0.0003092
0.000309
0.0003086
0.0003081
0.0003076
0.000307
0.0003064
0.0003058
0.0003053
0.0003047
0.0003041
0.0003035
0.000303
0.0003024
0.0003018
0.0003012
0.0003006
0.0003
0.0002993
0.0002987
0.000298
0.0002973
0.0002966
0.0002959
0.0002951
0.0002944
0.0002936
0.0002927
0.0002919
0.000291
0.0002901
0.0002892
0.0002882
0.0002872
0.0002862
0.000285
0.0002839
0.0002826
0.0002813
0.0002798
0.0002781
0.0002762
0.0002741
0.0002716
0.0002687
0.0002653
0.0002614
0.0002568
0.0002515
0.0002457
0.0002394
0.0002321
0.0002233
0.0002141
0.0002051
0.0001933
0.0001768
0.0001598
0.0001441
0.0001282
0.0001134
0.0001026
9.414e-05
8.562e-05
7.756e-05
7.085e-05
6.488e-05
5.922e-05
5.404e-05
4.953e-05
4.568e-05
4.241e-05
3.963e-05
3.726e-05
3.523e-05
3.346e-05
3.19e-05
3.05e-05
2.923e-05
2.804e-05
2.693e-05
2.587e-05
2.485e-05
2.387e-05
2.293e-05
2.202e-05
2.113e-05
2.027e-05
1.943e-05
1.862e-05
1.784e-05
1.707e-05
1.633e-05
1.56e-05
1.49e-05
1.422e-05
1.355e-05
1.291e-05
1.227e-05
1.166e-05
1.105e-05
1.046e-05
9.887e-06
9.321e-06
8.766e-06
8.219e-06
7.682e-06
7.153e-06
6.631e-06
6.115e-06
5.606e-06
5.102e-06
4.602e-06
4.107e-06
3.615e-06
3.126e-06
2.638e-06
2.152e-06
1.665e-06
1.177e-06
6.863e-07
2.098e-07
0.0003043
0.0003056
0.0003068
0.0003076
0.0003081
0.0003084
0.0003084
0.0003082
0.0003079
0.0003075
0.0003071
0.0003066
0.0003061
0.0003056
0.000305
0.0003045
0.000304
0.0003035
0.0003029
0.0003024
0.0003018
0.0003013
0.0003007
0.0003002
0.0002996
0.000299
0.0002984
0.0002978
0.0002972
0.0002965
0.0002958
0.0002952
0.0002945
0.0002937
0.000293
0.0002922
0.0002915
0.0002907
0.0002898
0.000289
0.0002881
0.0002872
0.0002863
0.0002853
0.0002842
0.0002831
0.0002818
0.0002803
0.0002786
0.0002766
0.0002743
0.0002714
0.000268
0.000264
0.0002594
0.0002543
0.0002492
0.0002431
0.0002345
0.0002251
0.0002191
0.0002078
0.0001837
0.0001598
0.0001413
0.0001202
0.0001
8.932e-05
8.339e-05
7.498e-05
6.715e-05
6.155e-05
5.668e-05
5.163e-05
4.692e-05
4.292e-05
3.961e-05
3.685e-05
3.457e-05
3.267e-05
3.108e-05
2.972e-05
2.853e-05
2.746e-05
2.648e-05
2.555e-05
2.467e-05
2.382e-05
2.298e-05
2.217e-05
2.137e-05
2.058e-05
1.981e-05
1.905e-05
1.831e-05
1.759e-05
1.688e-05
1.619e-05
1.551e-05
1.485e-05
1.421e-05
1.358e-05
1.296e-05
1.236e-05
1.177e-05
1.119e-05
1.063e-05
1.007e-05
9.528e-06
8.992e-06
8.464e-06
7.945e-06
7.432e-06
6.926e-06
6.427e-06
5.932e-06
5.443e-06
4.958e-06
4.478e-06
4e-06
3.526e-06
3.054e-06
2.584e-06
2.116e-06
1.648e-06
1.179e-06
7.087e-07
2.36e-07
0.0003035
0.0003047
0.0003059
0.0003067
0.0003072
0.0003075
0.0003076
0.0003076
0.0003073
0.000307
0.0003067
0.0003063
0.0003058
0.0003053
0.0003049
0.0003044
0.0003039
0.0003034
0.0003029
0.0003024
0.0003019
0.0003014
0.0003009
0.0003004
0.0002999
0.0002994
0.0002988
0.0002983
0.0002977
0.0002972
0.0002966
0.000296
0.0002954
0.0002948
0.0002941
0.0002935
0.0002929
0.0002922
0.0002915
0.0002908
0.0002902
0.0002895
0.0002888
0.000288
0.0002873
0.0002865
0.0002856
0.0002846
0.0002833
0.0002819
0.0002801
0.0002779
0.0002752
0.0002719
0.000268
0.0002641
0.0002611
0.0002577
0.0002468
0.000234
0.0002361
0.0002393
0.0001753
0.0001523
0.0001496
0.0001232
7.111e-05
7.256e-05
7.498e-05
6.382e-05
5.342e-05
5.046e-05
4.753e-05
4.335e-05
3.921e-05
3.582e-05
3.312e-05
3.096e-05
2.923e-05
2.785e-05
2.675e-05
2.583e-05
2.504e-05
2.432e-05
2.365e-05
2.3e-05
2.235e-05
2.171e-05
2.106e-05
2.041e-05
1.975e-05
1.91e-05
1.844e-05
1.779e-05
1.715e-05
1.652e-05
1.589e-05
1.527e-05
1.467e-05
1.407e-05
1.348e-05
1.291e-05
1.234e-05
1.179e-05
1.124e-05
1.071e-05
1.018e-05
9.663e-06
9.151e-06
8.647e-06
8.149e-06
7.657e-06
7.171e-06
6.69e-06
6.213e-06
5.741e-06
5.273e-06
4.808e-06
4.347e-06
3.888e-06
3.433e-06
2.979e-06
2.528e-06
2.078e-06
1.629e-06
1.18e-06
7.314e-07
2.629e-07
0.0003028
0.000304
0.0003051
0.0003059
0.0003065
0.0003068
0.000307
0.000307
0.0003069
0.0003066
0.0003063
0.000306
0.0003056
0.0003052
0.0003047
0.0003043
0.0003039
0.0003034
0.000303
0.0003025
0.0003021
0.0003016
0.0003012
0.0003007
0.0003003
0.0002998
0.0002993
0.0002988
0.0002983
0.0002979
0.0002974
0.0002969
0.0002963
0.0002958
0.0002953
0.0002948
0.0002943
0.0002937
0.0002932
0.0002927
0.0002922
0.0002917
0.0002912
0.0002908
0.0002903
0.0002899
0.0002894
0.0002888
0.0002881
0.0002872
0.000286
0.0002844
0.0002824
0.0002798
0.0002764
0.0002732
0.0002721
0.0002756
0.0002695
0.0002077
0.0001865
0.0002048
0.0001509
0.0001465
0.0001581
0.0001473
0.0001055
0.0001198
9.966e-05
4.283e-05
3.617e-05
4.051e-05
3.912e-05
3.519e-05
3.129e-05
2.849e-05
2.645e-05
2.491e-05
2.377e-05
2.295e-05
2.236e-05
2.191e-05
2.153e-05
2.118e-05
2.082e-05
2.044e-05
2.003e-05
1.959e-05
1.913e-05
1.863e-05
1.812e-05
1.76e-05
1.706e-05
1.652e-05
1.597e-05
1.542e-05
1.488e-05
1.434e-05
1.38e-05
1.327e-05
1.274e-05
1.222e-05
1.171e-05
1.121e-05
1.071e-05
1.021e-05
9.725e-06
9.243e-06
8.766e-06
8.294e-06
7.826e-06
7.362e-06
6.903e-06
6.447e-06
5.994e-06
5.544e-06
5.098e-06
4.654e-06
4.212e-06
3.773e-06
3.336e-06
2.902e-06
2.469e-06
2.038e-06
1.609e-06
1.181e-06
7.542e-07
2.901e-07
0.0003022
0.0003033
0.0003044
0.0003052
0.0003058
0.0003062
0.0003064
0.0003065
0.0003064
0.0003063
0.000306
0.0003057
0.0003054
0.000305
0.0003047
0.0003043
0.0003039
0.0003035
0.0003031
0.0003027
0.0003023
0.0003019
0.0003014
0.000301
0.0003006
0.0003002
0.0002998
0.0002994
0.000299
0.0002986
0.0002981
0.0002977
0.0002973
0.0002969
0.0002965
0.000296
0.0002956
0.0002953
0.0002949
0.0002945
0.0002942
0.0002939
0.0002937
0.0002935
0.0002933
0.0002932
0.0002931
0.000293
0.0002928
0.0002925
0.0002919
0.0002909
0.0002894
0.0002873
0.0002838
0.0002777
0.0002773
0.0002743
0.0002387
0.0001615
0.0001561
5.77e-05
5.458e-06
0.0001324
0.0001858
0.0002866
0.0002098
0.0001493
0.000141
7.865e-05
4.043e-05
3.812e-05
3.572e-05
2.75e-05
2.323e-05
2.107e-05
1.975e-05
1.887e-05
1.836e-05
1.813e-05
1.807e-05
1.809e-05
1.812e-05
1.812e-05
1.807e-05
1.795e-05
1.777e-05
1.752e-05
1.723e-05
1.689e-05
1.652e-05
1.611e-05
1.569e-05
1.525e-05
1.48e-05
1.434e-05
1.387e-05
1.34e-05
1.294e-05
1.247e-05
1.2e-05
1.154e-05
1.108e-05
1.062e-05
1.017e-05
9.715e-06
9.267e-06
8.821e-06
8.379e-06
7.939e-06
7.502e-06
7.066e-06
6.634e-06
6.203e-06
5.774e-06
5.347e-06
4.922e-06
4.499e-06
4.077e-06
3.657e-06
3.239e-06
2.823e-06
2.41e-06
1.998e-06
1.588e-06
1.181e-06
7.767e-07
3.172e-07
0.0003017
0.0003028
0.0003038
0.0003046
0.0003052
0.0003057
0.0003059
0.0003061
0.0003061
0.000306
0.0003058
0.0003055
0.0003053
0.0003049
0.0003046
0.0003043
0.0003039
0.0003035
0.0003032
0.0003028
0.0003024
0.0003021
0.0003017
0.0003014
0.000301
0.0003007
0.0003003
0.0002999
0.0002996
0.0002992
0.0002989
0.0002986
0.0002982
0.0002979
0.0002976
0.0002973
0.000297
0.0002967
0.0002965
0.0002963
0.0002961
0.000296
0.000296
0.000296
0.0002961
0.0002963
0.0002966
0.0002969
0.0002972
0.0002974
0.0002973
0.000297
0.0002962
0.0002949
0.0002918
0.0002851
0.0002588
0.0002356
7.414e-05
-0.0001952
7.205e-05
7.348e-05
8.078e-05
0.0001326
0.0001767
0.0002196
0.0002205
0.0002302
0.0003958
0.000238
8.124e-05
7.588e-05
2.635e-05
1.729e-05
1.441e-05
1.365e-05
1.33e-05
1.311e-05
1.323e-05
1.358e-05
1.404e-05
1.451e-05
1.493e-05
1.525e-05
1.547e-05
1.559e-05
1.561e-05
1.554e-05
1.541e-05
1.521e-05
1.496e-05
1.468e-05
1.436e-05
1.401e-05
1.365e-05
1.327e-05
1.289e-05
1.249e-05
1.209e-05
1.168e-05
1.128e-05
1.087e-05
1.046e-05
1.005e-05
9.636e-06
9.226e-06
8.816e-06
8.407e-06
7.998e-06
7.59e-06
7.182e-06
6.775e-06
6.369e-06
5.963e-06
5.557e-06
5.153e-06
4.749e-06
4.346e-06
3.944e-06
3.543e-06
3.144e-06
2.746e-06
2.351e-06
1.958e-06
1.568e-06
1.181e-06
7.985e-07
3.438e-07
0.0003013
0.0003024
0.0003033
0.0003041
0.0003048
0.0003052
0.0003055
0.0003057
0.0003057
0.0003057
0.0003056
0.0003054
0.0003052
0.0003049