/*--------------------------------*- C++ -*----------------------------------*\
  =========                 |
  \\      /  F ield         | OpenFOAM: The Open Source CFD Toolbox
   \\    /   O peration     | Website:  https://openfoam.org
    \\  /    A nd           | Version:  7
     \\/     M anipulation  |
\*---------------------------------------------------------------------------*/
FoamFile
{
    version     2.0;
    format      ascii;
    class       surfaceScalarField;
    location    "359.999473411202814";
    object      phi;
}
// * * * * * * * * * * * * * * * * * * * * * * * * * * * * * * * * * * * * * //

dimensions      [0 3 -1 0 0 0 0];

internalField   nonuniform List<scalar> 
8032
(
6.857e-10
2.518e-10
4.804e-10
2.053e-10
3.48e-10
1.324e-10
2.643e-10
8.372e-11
2.101e-10
5.414e-11
1.738e-10
3.634e-11
1.483e-10
2.547e-11
1.297e-10
1.861e-11
1.156e-10
1.408e-11
1.046e-10
1.097e-11
9.591e-11
8.728e-12
8.885e-11
7.058e-12
8.308e-11
5.772e-12
7.832e-11
4.757e-12
7.438e-11
3.937e-12
7.112e-11
3.26e-12
6.843e-11
2.692e-12
6.623e-11
2.206e-12
6.444e-11
1.784e-12
6.303e-11
1.412e-12
6.195e-11
1.079e-12
6.118e-11
7.751e-13
6.068e-11
4.939e-13
6.045e-11
2.295e-13
6.048e-11
-2.299e-14
6.074e-11
-2.678e-13
6.125e-11
-5.086e-13
6.2e-11
-7.485e-13
6.299e-11
-9.903e-13
6.423e-11
-1.236e-12
6.572e-11
-1.489e-12
6.747e-11
-1.75e-12
6.949e-11
-2.021e-12
7.179e-11
-2.303e-12
7.439e-11
-2.597e-12
7.729e-11
-2.903e-12
8.051e-11
-3.223e-12
8.407e-11
-3.555e-12
8.796e-11
-3.898e-12
9.222e-11
-4.251e-12
9.683e-11
-4.611e-12
1.018e-10
-4.976e-12
1.071e-10
-5.341e-12
1.128e-10
-5.701e-12
1.189e-10
-6.051e-12
1.253e-10
-6.382e-12
1.32e-10
-6.688e-12
1.389e-10
-6.96e-12
1.461e-10
-7.187e-12
1.535e-10
-7.36e-12
1.609e-10
-7.469e-12
1.684e-10
-7.503e-12
1.759e-10
-7.453e-12
1.832e-10
-7.309e-12
1.903e-10
-7.065e-12
1.97e-10
-6.714e-12
2.032e-10
-6.254e-12
2.089e-10
-5.685e-12
2.139e-10
-5.009e-12
2.182e-10
-4.235e-12
2.215e-10
-3.373e-12
2.24e-10
-2.44e-12
2.254e-10
-1.453e-12
2.259e-10
-4.371e-13
2.253e-10
5.848e-13
2.237e-10
1.588e-12
2.212e-10
2.548e-12
2.177e-10
3.447e-12
2.134e-10
4.267e-12
2.084e-10
4.997e-12
2.028e-10
5.629e-12
1.967e-10
6.16e-12
1.901e-10
6.589e-12
1.831e-10
6.916e-12
1.76e-10
7.147e-12
1.687e-10
7.287e-12
1.614e-10
7.342e-12
1.541e-10
7.32e-12
1.468e-10
7.229e-12
1.397e-10
7.079e-12
1.329e-10
6.878e-12
1.262e-10
6.635e-12
1.199e-10
6.36e-12
1.138e-10
6.059e-12
1.081e-10
5.741e-12
1.027e-10
5.412e-12
9.758e-11
5.079e-12
9.284e-11
4.745e-12
8.842e-11
4.416e-12
8.433e-11
4.095e-12
8.054e-11
3.784e-12
7.706e-11
3.486e-12
7.385e-11
3.202e-12
7.092e-11
2.933e-12
6.824e-11
2.681e-12
6.58e-11
2.444e-12
6.357e-11
2.223e-12
6.155e-11
2.018e-12
5.973e-11
1.828e-12
5.807e-11
1.653e-12
5.658e-11
1.493e-12
5.523e-11
1.345e-12
5.402e-11
1.21e-12
5.294e-11
1.087e-12
5.196e-11
9.751e-13
5.109e-11
8.733e-13
5.031e-11
7.809e-13
4.961e-11
6.973e-13
4.899e-11
6.217e-13
4.844e-11
5.536e-13
4.794e-11
4.923e-13
4.751e-11
4.373e-13
4.712e-11
3.881e-13
4.677e-11
3.443e-13
4.647e-11
3.056e-13
4.62e-11
2.716e-13
4.595e-11
2.421e-13
4.574e-11
2.171e-13
4.554e-11
1.965e-13
4.536e-11
1.805e-13
4.519e-11
1.695e-13
4.503e-11
1.643e-13
4.486e-11
1.663e-13
4.468e-11
1.783e-13
4.448e-11
2.054e-13
4.422e-11
2.562e-13
4.388e-11
3.403e-13
4.423e-13
9.523e-10
2.37e-10
8.501e-10
3.075e-10
7.275e-10
2.551e-10
6.183e-10
1.929e-10
5.294e-10
1.43e-10
4.594e-10
1.064e-10
4.045e-10
8.041e-11
3.611e-10
6.198e-11
3.264e-10
4.872e-11
2.985e-10
3.895e-11
2.756e-10
3.158e-11
2.568e-10
2.588e-11
2.412e-10
2.138e-11
2.282e-10
1.776e-11
2.173e-10
1.479e-11
2.083e-10
1.23e-11
2.008e-10
1.02e-11
1.946e-10
8.386e-12
1.896e-10
6.802e-12
1.856e-10
5.397e-12
1.825e-10
4.131e-12
1.803e-10
2.975e-12
1.789e-10
1.902e-12
1.783e-10
8.912e-13
1.783e-10
-7.507e-14
1.791e-10
-1.012e-12
1.805e-10
-1.933e-12
1.826e-10
-2.85e-12
1.854e-10
-3.773e-12
1.889e-10
-4.71e-12
1.93e-10
-5.669e-12
1.979e-10
-6.658e-12
2.036e-10
-7.681e-12
2.1e-10
-8.743e-12
2.173e-10
-9.847e-12
2.254e-10
-1.099e-11
2.343e-10
-1.219e-11
2.442e-10
-1.342e-11
2.55e-10
-1.469e-11
2.667e-10
-1.599e-11
2.795e-10
-1.732e-11
2.931e-10
-1.865e-11
3.078e-10
-1.998e-11
3.234e-10
-2.129e-11
3.398e-10
-2.255e-11
3.572e-10
-2.373e-11
3.753e-10
-2.482e-11
3.941e-10
-2.577e-11
4.135e-10
-2.656e-11
4.333e-10
-2.715e-11
4.533e-10
-2.75e-11
4.734e-10
-2.757e-11
4.933e-10
-2.734e-11
5.127e-10
-2.676e-11
5.315e-10
-2.583e-11
5.493e-10
-2.451e-11
5.659e-10
-2.28e-11
5.809e-10
-2.07e-11
5.941e-10
-1.823e-11
6.053e-10
-1.54e-11
6.142e-10
-1.227e-11
6.206e-10
-8.888e-12
6.245e-10
-5.318e-12
6.257e-10
-1.643e-12
6.242e-10
2.053e-12
6.201e-10
5.684e-12
6.135e-10
9.171e-12
6.045e-10
1.244e-11
5.933e-10
1.544e-11
5.802e-10
1.812e-11
5.654e-10
2.046e-11
5.491e-10
2.243e-11
5.316e-10
2.404e-11
5.133e-10
2.529e-11
4.942e-10
2.619e-11
4.747e-10
2.676e-11
4.551e-10
2.702e-11
4.354e-10
2.699e-11
4.159e-10
2.671e-11
3.968e-10
2.622e-11
3.781e-10
2.553e-11
3.601e-10
2.468e-11
3.427e-10
2.371e-11
3.262e-10
2.264e-11
3.104e-10
2.149e-11
2.955e-10
2.031e-11
2.815e-10
1.91e-11
2.684e-10
1.788e-11
2.561e-10
1.668e-11
2.447e-10
1.55e-11
2.341e-10
1.435e-11
2.244e-10
1.325e-11
2.154e-10
1.219e-11
2.071e-10
1.119e-11
1.996e-10
1.025e-11
1.926e-10
9.36e-12
1.863e-10
8.531e-12
1.806e-10
7.759e-12
1.754e-10
7.043e-12
1.707e-10
6.382e-12
1.664e-10
5.772e-12
1.625e-10
5.212e-12
1.59e-10
4.699e-12
1.559e-10
4.229e-12
1.53e-10
3.801e-12
1.505e-10
3.411e-12
1.482e-10
3.056e-12
1.462e-10
2.735e-12
1.444e-10
2.444e-12
1.427e-10
2.181e-12
1.413e-10
1.944e-12
1.4e-10
1.732e-12
1.388e-10
1.541e-12
1.378e-10
1.371e-12
1.369e-10
1.22e-12
1.361e-10
1.087e-12
1.354e-10
9.722e-13
1.347e-10
8.739e-13
1.341e-10
7.923e-13
1.336e-10
7.278e-13
1.331e-10
6.815e-13
1.326e-10
6.551e-13
1.321e-10
6.515e-13
1.316e-10
6.752e-13
1.311e-10
7.331e-13
1.305e-10
8.326e-13
1.298e-10
9.726e-13
1.105e-12
9.779e-10
1.966e-10
9.637e-10
3.217e-10
9.013e-10
3.174e-10
8.213e-10
2.729e-10
7.412e-10
2.231e-10
6.683e-10
1.792e-10
6.052e-10
1.436e-10
5.515e-10
1.157e-10
5.063e-10
9.393e-11
4.683e-10
7.696e-11
4.363e-10
6.356e-11
4.093e-10
5.284e-11
3.866e-10
4.413e-11
3.674e-10
3.697e-11
3.512e-10
3.099e-11
3.375e-10
2.592e-11
3.262e-10
2.158e-11
3.167e-10
1.781e-11
3.091e-10
1.448e-11
3.029e-10
1.151e-11
2.982e-10
8.827e-12
2.949e-10
6.359e-12
2.927e-10
4.062e-12
2.917e-10
1.892e-12
2.918e-10
-1.865e-13
2.93e-10
-2.205e-12
2.953e-10
-4.19e-12
2.986e-10
-6.166e-12
3.029e-10
-8.152e-12
3.084e-10
-1.017e-11
3.15e-10
-1.223e-11
3.227e-10
-1.435e-11
3.315e-10
-1.655e-11
3.416e-10
-1.882e-11
3.529e-10
-2.117e-11
3.656e-10
-2.362e-11
3.795e-10
-2.615e-11
3.949e-10
-2.877e-11
4.116e-10
-3.145e-11
4.298e-10
-3.42e-11
4.495e-10
-3.699e-11
4.707e-10
-3.979e-11
4.932e-10
-4.257e-11
5.173e-10
-4.53e-11
5.426e-10
-4.792e-11
5.693e-10
-5.038e-11
5.971e-10
-5.262e-11
6.259e-10
-5.457e-11
6.555e-10
-5.617e-11
6.857e-10
-5.735e-11
7.162e-10
-5.801e-11
7.467e-10
-5.811e-11
7.769e-10
-5.755e-11
8.065e-10
-5.629e-11
8.349e-10
-5.427e-11
8.619e-10
-5.147e-11
8.869e-10
-4.785e-11
9.096e-10
-4.342e-11
9.296e-10
-3.822e-11
9.465e-10
-3.23e-11
9.6e-10
-2.574e-11
9.698e-10
-1.867e-11
9.757e-10
-1.121e-11
9.775e-10
-3.53e-12
9.754e-10
4.191e-12
9.693e-10
1.178e-11
9.594e-10
1.908e-11
9.459e-10
2.594e-11
9.291e-10
3.223e-11
9.094e-10
3.788e-11
8.87e-10
4.282e-11
8.624e-10
4.702e-11
8.36e-10
5.046e-11
8.081e-10
5.314e-11
7.792e-10
5.51e-11
7.496e-10
5.637e-11
7.197e-10
5.699e-11
6.896e-10
5.701e-11
6.598e-10
5.65e-11
6.305e-10
5.552e-11
6.019e-10
5.414e-11
5.742e-10
5.242e-11
5.475e-10
5.042e-11
5.219e-10
4.821e-11
4.976e-10
4.585e-11
4.745e-10
4.338e-11
4.527e-10
4.085e-11
4.323e-10
3.83e-11
4.132e-10
3.577e-11
3.954e-10
3.328e-11
3.789e-10
3.086e-11
3.636e-10
2.853e-11
3.495e-10
2.63e-11
3.366e-10
2.417e-11
3.246e-10
2.216e-11
3.137e-10
2.027e-11
3.038e-10
1.85e-11
2.947e-10
1.685e-11
2.864e-10
1.532e-11
2.789e-10
1.39e-11
2.721e-10
1.259e-11
2.659e-10
1.138e-11
2.603e-10
1.027e-11
2.553e-10
9.259e-12
2.508e-10
8.333e-12
2.467e-10
7.489e-12
2.43e-10
6.721e-12
2.397e-10
6.023e-12
2.368e-10
5.391e-12
2.341e-10
4.819e-12
2.318e-10
4.303e-12
2.297e-10
3.838e-12
2.278e-10
3.422e-12
2.261e-10
3.05e-12
2.246e-10
2.719e-12
2.233e-10
2.427e-12
2.221e-10
2.173e-12
2.21e-10
1.955e-12
2.2e-10
1.773e-12
2.191e-10
1.626e-12
2.183e-10
1.516e-12
2.175e-10
1.444e-12
2.167e-10
1.415e-12
2.16e-10
1.432e-12
2.152e-10
1.498e-12
2.144e-10
1.615e-12
2.136e-10
1.765e-12
1.887e-12
9.752e-10
1.589e-10
9.931e-10
3.038e-10
9.729e-10
3.376e-10
9.271e-10
3.187e-10
8.694e-10
2.808e-10
8.091e-10
2.396e-10
7.512e-10
2.014e-10
6.983e-10
1.686e-10
6.512e-10
1.41e-10
6.099e-10
1.183e-10
5.739e-10
9.952e-11
5.428e-10
8.394e-11
5.16e-10
7.094e-11
4.93e-10
5.998e-11
4.733e-10
5.065e-11
4.566e-10
4.263e-11
4.425e-10
3.566e-11
4.308e-10
2.954e-11
4.212e-10
2.409e-11
4.135e-10
1.919e-11
4.076e-10
1.472e-11
4.034e-10
1.059e-11
4.007e-10
6.736e-12
3.995e-10
3.077e-12
3.998e-10
-4.372e-13
4.014e-10
-3.857e-12
4.045e-10
-7.225e-12
4.089e-10
-1.058e-11
4.147e-10
-1.395e-11
4.219e-10
-1.738e-11
4.305e-10
-2.088e-11
4.407e-10
-2.447e-11
4.523e-10
-2.818e-11
4.655e-10
-3.202e-11
4.803e-10
-3.6e-11
4.968e-10
-4.012e-11
5.15e-10
-4.438e-11
5.351e-10
-4.877e-11
5.569e-10
-5.328e-11
5.805e-10
-5.787e-11
6.061e-10
-6.252e-11
6.335e-10
-6.719e-11
6.627e-10
-7.181e-11
6.937e-10
-7.633e-11
7.265e-10
-8.066e-11
7.608e-10
-8.471e-11
7.966e-10
-8.84e-11
8.336e-10
-9.159e-11
8.716e-10
-9.419e-11
9.104e-10
-9.607e-11
9.495e-10
-9.711e-11
9.885e-10
-9.718e-11
1.027e-09
-9.618e-11
1.065e-09
-9.402e-11
1.101e-09
-9.059e-11
1.136e-09
-8.586e-11
1.168e-09
-7.98e-11
1.197e-09
-7.24e-11
1.222e-09
-6.372e-11
1.244e-09
-5.386e-11
1.261e-09
-4.295e-11
1.273e-09
-3.117e-11
1.281e-09
-1.877e-11
1.283e-09
-6.008e-12
1.281e-09
6.833e-12
1.273e-09
1.946e-11
1.26e-09
3.161e-11
1.243e-09
4.303e-11
1.222e-09
5.354e-11
1.197e-09
6.298e-11
1.169e-09
7.126e-11
1.137e-09
7.831e-11
1.104e-09
8.411e-11
1.068e-09
8.867e-11
1.031e-09
9.203e-11
9.933e-10
9.424e-11
9.549e-10
9.537e-11
9.164e-10
9.551e-11
8.781e-10
9.476e-11
8.404e-10
9.321e-11
8.036e-10
9.099e-11
7.678e-10
8.82e-11
7.333e-10
8.493e-11
7.002e-10
8.13e-11
6.686e-10
7.74e-11
6.387e-10
7.332e-11
6.104e-10
6.913e-11
5.838e-10
6.489e-11
5.589e-10
6.068e-11
5.357e-10
5.652e-11
5.141e-10
5.248e-11
4.94e-10
4.857e-11
4.755e-10
4.482e-11
4.584e-10
4.124e-11
4.427e-10
3.786e-11
4.283e-10
3.467e-11
4.152e-10
3.168e-11
4.031e-10
2.889e-11
3.921e-10
2.629e-11
3.822e-10
2.388e-11
3.731e-10
2.165e-11
3.649e-10
1.96e-11
3.574e-10
1.772e-11
3.507e-10
1.599e-11
3.446e-10
1.441e-11
3.392e-10
1.296e-11
3.342e-10
1.165e-11
3.298e-10
1.045e-11
3.258e-10
9.367e-12
3.223e-10
8.384e-12
3.191e-10
7.497e-12
3.162e-10
6.697e-12
3.136e-10
5.978e-12
3.114e-10
5.335e-12
3.093e-10
4.763e-12
3.075e-10
4.257e-12
3.058e-10
3.814e-12
3.044e-10
3.432e-12
3.03e-10
3.109e-12
3.018e-10
2.845e-12
3.007e-10
2.639e-12
2.996e-10
2.494e-12
2.986e-10
2.411e-12
2.977e-10
2.392e-12
2.967e-10
2.436e-12
2.958e-10
2.537e-12
2.949e-10
2.668e-12
2.77e-12
9.668e-10
1.296e-10
9.945e-10
2.761e-10
9.981e-10
3.34e-10
9.784e-10
3.384e-10
9.431e-10
3.161e-10
8.995e-10
2.832e-10
8.53e-10
2.479e-10
8.072e-10
2.144e-10
7.639e-10
1.843e-10
7.242e-10
1.58e-10
6.884e-10
1.353e-10
6.566e-10
1.158e-10
6.285e-10
9.9e-11
6.04e-10
8.452e-11
5.827e-10
7.193e-11
5.644e-10
6.093e-11
5.488e-10
5.123e-11
5.358e-10
4.26e-11
5.25e-10
3.484e-11
5.164e-10
2.78e-11
5.098e-10
2.133e-11
5.051e-10
1.531e-11
5.021e-10
9.657e-12
5.01e-10
4.271e-12
5.014e-10
-9.21e-13
5.036e-10
-5.987e-12
5.073e-10
-1.099e-11
5.127e-10
-1.597e-11
5.198e-10
-2.099e-11
5.285e-10
-2.608e-11
5.389e-10
-3.129e-11
5.51e-10
-3.663e-11
5.65e-10
-4.214e-11
5.808e-10
-4.784e-11
5.985e-10
-5.373e-11
6.182e-10
-5.983e-11
6.4e-10
-6.612e-11
6.638e-10
-7.26e-11
6.898e-10
-7.924e-11
7.179e-10
-8.6e-11
7.482e-10
-9.284e-11
7.807e-10
-9.968e-11
8.153e-10
-1.064e-10
8.521e-10
-1.13e-10
8.908e-10
-1.194e-10
9.313e-10
-1.253e-10
9.735e-10
-1.306e-10
1.017e-09
-1.352e-10
1.062e-09
-1.39e-10
1.107e-09
-1.416e-10
1.153e-09
-1.431e-10
1.199e-09
-1.431e-10
1.245e-09
-1.416e-10
1.289e-09
-1.383e-10
1.332e-09
-1.332e-10
1.372e-09
-1.262e-10
1.409e-09
-1.173e-10
1.443e-09
-1.064e-10
1.473e-09
-9.366e-11
1.499e-09
-7.918e-11
1.519e-09
-6.317e-11
1.534e-09
-4.59e-11
1.543e-09
-2.771e-11
1.546e-09
-8.984e-12
1.543e-09
9.856e-12
1.534e-09
2.839e-11
1.519e-09
4.622e-11
1.499e-09
6.3e-11
1.474e-09
7.844e-11
1.445e-09
9.233e-11
1.412e-09
1.045e-10
1.375e-09
1.149e-10
1.335e-09
1.235e-10
1.294e-09
1.303e-10
1.25e-09
1.354e-10
1.206e-09
1.387e-10
1.161e-09
1.405e-10
1.116e-09
1.408e-10
1.071e-09
1.398e-10
1.026e-09
1.377e-10
9.826e-10
1.345e-10
9.403e-10
1.305e-10
8.995e-10
1.258e-10
8.603e-10
1.205e-10
8.229e-10
1.148e-10
7.873e-10
1.089e-10
7.537e-10
1.028e-10
7.22e-10
9.656e-11
6.923e-10
9.038e-11
6.646e-10
8.428e-11
6.387e-10
7.833e-11
6.147e-10
7.257e-11
5.925e-10
6.703e-11
5.72e-10
6.175e-11
5.531e-10
5.674e-11
5.358e-10
5.202e-11
5.199e-10
4.758e-11
5.053e-10
4.343e-11
4.92e-10
3.957e-11
4.799e-10
3.598e-11
4.689e-10
3.266e-11
4.589e-10
2.96e-11
4.499e-10
2.678e-11
4.417e-10
2.419e-11
4.343e-10
2.182e-11
4.276e-10
1.966e-11
4.215e-10
1.768e-11
4.161e-10
1.589e-11
4.112e-10
1.425e-11
4.068e-10
1.277e-11
4.029e-10
1.143e-11
3.994e-10
1.023e-11
3.962e-10
9.139e-12
3.934e-10
8.165e-12
3.908e-10
7.296e-12
3.886e-10
6.527e-12
3.865e-10
5.851e-12
3.847e-10
5.264e-12
3.83e-10
4.763e-12
3.815e-10
4.346e-12
3.802e-10
4.013e-12
3.789e-10
3.763e-12
3.777e-10
3.597e-12
3.766e-10
3.512e-12
3.755e-10
3.504e-12
3.745e-10
3.562e-12
3.735e-10
3.656e-12
3.731e-12
9.592e-10
1.079e-10
9.877e-10
2.477e-10
1.003e-09
3.187e-10
1.001e-09
3.407e-10
9.833e-10
3.335e-10
9.556e-10
3.109e-10
9.219e-10
2.816e-10
8.857e-10
2.506e-10
8.493e-10
2.207e-10
8.143e-10
1.93e-10
7.816e-10
1.68e-10
7.516e-10
1.458e-10
7.245e-10
1.261e-10
7.003e-10
1.087e-10
6.79e-10
9.324e-11
6.604e-10
7.948e-11
6.445e-10
6.717e-11
6.31e-10
5.607e-11
6.199e-10
4.599e-11
6.109e-10
3.674e-11
6.041e-10
2.817e-11
5.992e-10
2.015e-11
5.963e-10
1.256e-11
5.953e-10
5.3e-12
5.961e-10
-1.73e-12
5.987e-10
-8.612e-12
6.032e-10
-1.542e-11
6.094e-10
-2.222e-11
6.175e-10
-2.907e-11
6.275e-10
-3.603e-11
6.393e-10
-4.314e-11
6.531e-10
-5.044e-11
6.689e-10
-5.796e-11
6.868e-10
-6.573e-11
7.069e-10
-7.377e-11
7.291e-10
-8.207e-11
7.536e-10
-9.063e-11
7.805e-10
-9.944e-11
8.097e-10
-1.084e-10
8.413e-10
-1.176e-10
8.753e-10
-1.269e-10
9.118e-10
-1.361e-10
9.506e-10
-1.453e-10
9.917e-10
-1.542e-10
1.035e-09
-1.627e-10
1.08e-09
-1.706e-10
1.127e-09
-1.778e-10
1.176e-09
-1.839e-10
1.226e-09
-1.889e-10
1.277e-09
-1.925e-10
1.328e-09
-1.943e-10
1.379e-09
-1.943e-10
1.43e-09
-1.921e-10
1.479e-09
-1.877e-10
1.527e-09
-1.807e-10
1.572e-09
-1.712e-10
1.614e-09
-1.591e-10
1.652e-09
-1.444e-10
1.685e-09
-1.271e-10
1.714e-09
-1.075e-10
1.736e-09
-8.58e-11
1.753e-09
-6.24e-11
1.763e-09
-3.775e-11
1.766e-09
-1.237e-11
1.763e-09
1.318e-11
1.753e-09
3.83e-11
1.737e-09
6.247e-11
1.714e-09
8.521e-11
1.687e-09
1.061e-10
1.654e-09
1.25e-10
1.617e-09
1.415e-10
1.576e-09
1.557e-10
1.532e-09
1.674e-10
1.486e-09
1.767e-10
1.438e-09
1.836e-10
1.388e-09
1.883e-10
1.338e-09
1.908e-10
1.287e-09
1.913e-10
1.237e-09
1.901e-10
1.187e-09
1.873e-10
1.139e-09
1.831e-10
1.091e-09
1.778e-10
1.046e-09
1.715e-10
1.002e-09
1.645e-10
9.596e-10
1.569e-10
9.197e-10
1.488e-10
8.818e-10
1.406e-10
8.462e-10
1.322e-10
8.127e-10
1.239e-10
7.814e-10
1.156e-10
7.522e-10
1.075e-10
7.25e-10
9.971e-11
6.999e-10
9.219e-11
6.766e-10
8.501e-11
6.552e-10
7.819e-11
6.354e-10
7.174e-11
6.173e-10
6.568e-11
6.008e-10
6.001e-11
5.856e-10
5.472e-11
5.718e-10
4.981e-11
5.592e-10
4.526e-11
5.477e-10
4.105e-11
5.373e-10
3.718e-11
5.279e-10
3.362e-11
5.194e-10
3.036e-11
5.116e-10
2.737e-11
5.047e-10
2.465e-11
4.984e-10
2.216e-11
4.927e-10
1.991e-11
4.877e-10
1.786e-11
4.831e-10
1.6e-11
4.79e-10
1.433e-11
4.753e-10
1.282e-11
4.72e-10
1.146e-11
4.691e-10
1.025e-11
4.664e-10
9.174e-12
4.64e-10
8.226e-12
4.619e-10
7.398e-12
4.6e-10
6.686e-12
4.582e-10
6.086e-12
4.567e-10
5.595e-12
4.552e-10
5.212e-12
4.539e-10
4.933e-12
4.526e-10
4.755e-12
4.515e-10
4.67e-12
4.504e-10
4.663e-12
4.493e-10
4.706e-12
4.752e-12
9.536e-10
9.176e-11
9.796e-10
2.216e-10
9.999e-10
2.984e-10
1.008e-09
3.326e-10
1.004e-09
3.379e-10
9.891e-10
3.255e-10
9.673e-10
3.034e-10
9.411e-10
2.768e-10
9.128e-10
2.49e-10
8.841e-10
2.217e-10
8.561e-10
1.96e-10
8.295e-10
1.723e-10
8.05e-10
1.507e-10
7.826e-10
1.311e-10
7.626e-10
1.133e-10
7.449e-10
9.718e-11
7.295e-10
8.254e-11
7.164e-10
6.916e-11
7.055e-10
5.686e-11
6.968e-10
4.547e-11
6.901e-10
3.482e-11
6.855e-10
2.478e-11
6.829e-10
1.521e-11
6.822e-10
6.006e-12
6.834e-10
-2.944e-12
6.865e-10
-1.174e-11
6.915e-10
-2.046e-11
6.985e-10
-2.918e-11
7.074e-10
-3.799e-11
7.183e-10
-4.694e-11
7.313e-10
-5.61e-11
7.464e-10
-6.549e-11
7.636e-10
-7.518e-11
7.83e-10
-8.518e-11
8.048e-10
-9.551e-11
8.289e-10
-1.062e-10
8.554e-10
-1.172e-10
8.844e-10
-1.285e-10
9.16e-10
-1.4e-10
9.501e-10
-1.518e-10
9.869e-10
-1.636e-10
1.026e-09
-1.754e-10
1.068e-09
-1.871e-10
1.112e-09
-1.984e-10
1.159e-09
-2.093e-10
1.208e-09
-2.194e-10
1.258e-09
-2.285e-10
1.311e-09
-2.364e-10
1.365e-09
-2.427e-10
1.419e-09
-2.471e-10
1.474e-09
-2.495e-10
1.53e-09
-2.494e-10
1.584e-09
-2.466e-10
1.637e-09
-2.408e-10
1.688e-09
-2.319e-10
1.737e-09
-2.197e-10
1.782e-09
-2.042e-10
1.823e-09
-1.853e-10
1.859e-09
-1.632e-10
1.889e-09
-1.38e-10
1.914e-09
-1.103e-10
1.932e-09
-8.026e-11
1.942e-09
-4.863e-11
1.946e-09
-1.605e-11
1.943e-09
1.673e-11
1.932e-09
4.897e-11
1.914e-09
7.996e-11
1.891e-09
1.091e-10
1.861e-09
1.359e-10
1.826e-09
1.601e-10
1.786e-09
1.813e-10
1.742e-09
1.995e-10
1.695e-09
2.145e-10
1.645e-09
2.265e-10
1.593e-09
2.354e-10
1.54e-09
2.415e-10
1.486e-09
2.449e-10
1.432e-09
2.457e-10
1.378e-09
2.443e-10
1.324e-09
2.408e-10
1.272e-09
2.355e-10
1.221e-09
2.288e-10
1.171e-09
2.208e-10
1.124e-09
2.119e-10
1.079e-09
2.022e-10
1.035e-09
1.92e-10
9.945e-10
1.815e-10
9.559e-10
1.708e-10
9.196e-10
1.601e-10
8.856e-10
1.496e-10
8.54e-10
1.392e-10
8.245e-10
1.292e-10
7.971e-10
1.195e-10
7.718e-10
1.103e-10
7.484e-10
1.015e-10
7.269e-10
9.326e-11
7.072e-10
8.545e-11
6.89e-10
7.814e-11
6.724e-10
7.131e-11
6.573e-10
6.497e-11
6.435e-10
5.908e-11
6.309e-10
5.364e-11
6.194e-10
4.862e-11
6.091e-10
4.4e-11
5.996e-10
3.977e-11
5.911e-10
3.589e-11
5.834e-10
3.235e-11
5.765e-10
2.912e-11
5.702e-10
2.617e-11
5.646e-10
2.35e-11
5.595e-10
2.108e-11
5.549e-10
1.889e-11
5.508e-10
1.691e-11
5.472e-10
1.513e-11
5.439e-10
1.354e-11
5.409e-10
1.213e-11
5.383e-10
1.087e-11
5.359e-10
9.776e-12
5.338e-10
8.825e-12
5.318e-10
8.015e-12
5.301e-10
7.34e-12
5.285e-10
6.798e-12
5.27e-10
6.382e-12
5.257e-10
6.088e-12
5.245e-10
5.905e-12
5.233e-10
5.817e-12
5.222e-10
5.799e-12
5.812e-12
9.498e-10
7.944e-11
9.726e-10
1.988e-10
9.943e-10
2.767e-10
1.008e-09
3.185e-10
1.013e-09
3.334e-10
1.008e-09
3.301e-10
9.964e-10
3.152e-10
9.794e-10
2.938e-10
9.591e-10
2.693e-10
9.371e-10
2.437e-10
9.147e-10
2.185e-10
8.926e-10
1.944e-10
8.716e-10
1.717e-10
8.52e-10
1.506e-10
8.341e-10
1.312e-10
8.181e-10
1.132e-10
8.041e-10
9.66e-11
7.92e-10
8.123e-11
7.819e-10
6.692e-11
7.739e-10
5.353e-11
7.678e-10
4.091e-11
7.637e-10
2.891e-11
7.615e-10
1.74e-11
7.612e-10
6.263e-12
7.629e-10
-4.616e-12
7.665e-10
-1.534e-11
7.721e-10
-2.602e-11
7.796e-10
-3.672e-11
7.892e-10
-4.755e-11
8.008e-10
-5.856e-11
8.145e-10
-6.983e-11
8.304e-10
-8.14e-11
8.486e-10
-9.333e-11
8.69e-10
-1.056e-10
8.919e-10
-1.184e-10
9.172e-10
-1.315e-10
9.45e-10
-1.45e-10
9.754e-10
-1.589e-10
1.008e-09
-1.731e-10
1.044e-09
-1.875e-10
1.083e-09
-2.02e-10
1.124e-09
-2.165e-10
1.167e-09
-2.308e-10
1.214e-09
-2.447e-10
1.263e-09
-2.58e-10
1.314e-09
-2.704e-10
1.367e-09
-2.815e-10
1.421e-09
-2.911e-10
1.477e-09
-2.988e-10
1.535e-09
-3.043e-10
1.592e-09
-3.071e-10
1.65e-09
-3.069e-10
1.707e-09
-3.035e-10
1.762e-09
-2.964e-10
1.816e-09
-2.854e-10
1.867e-09
-2.705e-10
1.914e-09
-2.514e-10
1.957e-09
-2.282e-10
1.995e-09
-2.011e-10
2.027e-09
-1.702e-10
2.052e-09
-1.36e-10
2.071e-09
-9.908e-11
2.083e-09
-6.01e-11
2.087e-09
-1.994e-11
2.083e-09
2.047e-11
2.072e-09
6.02e-11
2.053e-09
9.836e-11
2.028e-09
1.342e-10
1.997e-09
1.672e-10
1.96e-09
1.968e-10
1.919e-09
2.229e-10
1.873e-09
2.452e-10
1.824e-09
2.637e-10
1.772e-09
2.785e-10
1.718e-09
2.896e-10
1.662e-09
2.971e-10
1.605e-09
3.013e-10
1.549e-09
3.025e-10
1.492e-09
3.008e-10
1.436e-09
2.967e-10
1.381e-09
2.903e-10
1.328e-09
2.822e-10
1.276e-09
2.725e-10
1.227e-09
2.616e-10
1.179e-09
2.497e-10
1.134e-09
2.373e-10
1.091e-09
2.244e-10
1.051e-09
2.113e-10
1.013e-09
1.982e-10
9.77e-10
1.852e-10
9.437e-10
1.725e-10
9.127e-10
1.602e-10
8.839e-10
1.483e-10
8.572e-10
1.37e-10
8.326e-10
1.262e-10
8.099e-10
1.16e-10
7.89e-10
1.063e-10
7.698e-10
9.731e-11
7.523e-10
8.888e-11
7.362e-10
8.103e-11
7.215e-10
7.374e-11
7.082e-10
6.7e-11
6.96e-10
6.078e-11
6.85e-10
5.506e-11
6.749e-10
4.98e-11
6.658e-10
4.498e-11
6.576e-10
4.057e-11
6.502e-10
3.655e-11
6.435e-10
3.288e-11
6.374e-10
2.955e-11
6.32e-10
2.652e-11
6.271e-10
2.379e-11
6.227e-10
2.131e-11
6.187e-10
1.909e-11
6.152e-10
1.709e-11
6.12e-10
1.531e-11
6.092e-10
1.373e-11
6.066e-10
1.233e-11
6.043e-10
1.112e-11
6.022e-10
1.008e-11
6.004e-10
9.201e-12
5.987e-10
8.479e-12
5.972e-10
7.908e-12
5.958e-10
7.479e-12
5.945e-10
7.182e-12
5.933e-10
7.001e-12
5.922e-10
6.915e-12
6.892e-12
9.472e-10
6.972e-11
9.67e-10
1.79e-10
9.883e-10
2.554e-10
1.005e-09
3.015e-10
1.015e-09
3.233e-10
1.018e-09
3.273e-10
1.014e-09
3.19e-10
1.005e-09
3.029e-10
9.924e-10
2.822e-10
9.77e-10
2.591e-10
9.603e-10
2.352e-10
9.431e-10
2.116e-10
9.261e-10
1.887e-10
9.099e-10
1.669e-10
8.947e-10
1.463e-10
8.81e-10
1.27e-10
8.688e-10
1.088e-10
8.582e-10
9.178e-11
8.494e-10
7.575e-11
8.423e-10
6.058e-11
8.371e-10
4.615e-11
8.337e-10
3.232e-11
8.321e-10
1.898e-11
8.324e-10
5.983e-12
8.345e-10
-6.772e-12
8.386e-10
-1.94e-11
8.446e-10
-3.2e-11
8.525e-10
-4.468e-11
8.625e-10
-5.751e-11
8.745e-10
-7.059e-11
8.887e-10
-8.399e-11
9.05e-10
-9.775e-11
9.237e-10
-1.119e-10
9.446e-10
-1.266e-10
9.68e-10
-1.417e-10
9.938e-10
-1.573e-10
1.022e-09
-1.734e-10
1.053e-09
-1.899e-10
1.087e-09
-2.068e-10
1.123e-09
-2.239e-10
1.163e-09
-2.412e-10
1.204e-09
-2.584e-10
1.249e-09
-2.754e-10
1.296e-09
-2.919e-10
1.346e-09
-3.077e-10
1.398e-09
-3.223e-10
1.452e-09
-3.355e-10
1.508e-09
-3.469e-10
1.565e-09
-3.561e-10
1.623e-09
-3.625e-10
1.682e-09
-3.659e-10
1.741e-09
-3.657e-10
1.799e-09
-3.615e-10
1.855e-09
-3.531e-10
1.91e-09
-3.401e-10
1.962e-09
-3.224e-10
2.01e-09
-2.997e-10
2.054e-09
-2.722e-10
2.093e-09
-2.399e-10
2.126e-09
-2.032e-10
2.153e-09
-1.625e-10
2.172e-09
-1.184e-10
2.184e-09
-7.19e-11
2.188e-09
-2.391e-11
2.184e-09
2.437e-11
2.172e-09
7.179e-11
2.153e-09
1.173e-10
2.128e-09
1.6e-10
2.096e-09
1.991e-10
2.058e-09
2.344e-10
2.016e-09
2.653e-10
1.969e-09
2.919e-10
1.919e-09
3.139e-10
1.866e-09
3.315e-10
1.811e-09
3.447e-10
1.754e-09
3.538e-10
1.697e-09
3.589e-10
1.639e-09
3.604e-10
1.581e-09
3.585e-10
1.524e-09
3.536e-10
1.468e-09
3.462e-10
1.414e-09
3.366e-10
1.361e-09
3.251e-10
1.31e-09
3.122e-10
1.262e-09
2.982e-10
1.216e-09
2.834e-10
1.172e-09
2.681e-10
1.131e-09
2.526e-10
1.092e-09
2.371e-10
1.055e-09
2.217e-10
1.021e-09
2.066e-10
9.895e-10
1.919e-10
9.6e-10
1.778e-10
9.327e-10
1.643e-10
9.074e-10
1.515e-10
8.841e-10
1.393e-10
8.627e-10
1.278e-10
8.43e-10
1.17e-10
8.249e-10
1.07e-10
8.084e-10
9.757e-11
7.932e-10
8.886e-11
7.794e-10
8.08e-11
7.669e-10
7.335e-11
7.555e-10
6.649e-11
7.451e-10
6.018e-11
7.357e-10
5.44e-11
7.271e-10
4.91e-11
7.194e-10
4.427e-11
7.124e-10
3.985e-11
7.061e-10
3.584e-11
7.005e-10
3.22e-11
6.954e-10
2.889e-11
6.908e-10
2.591e-11
6.866e-10
2.321e-11
6.829e-10
2.08e-11
6.796e-10
1.863e-11
6.766e-10
1.671e-11
6.74e-10
1.501e-11
6.716e-10
1.352e-11
6.694e-10
1.223e-11
6.675e-10
1.113e-11
6.657e-10
1.021e-11
6.642e-10
9.473e-12
6.628e-10
8.896e-12
6.615e-10
8.474e-12
6.603e-10
8.192e-12
6.592e-10
8.032e-12
7.971e-12
9.454e-10
6.182e-11
9.627e-10
1.617e-10
9.829e-10
2.352e-10
1.001e-09
2.832e-10
1.015e-09
3.097e-10
1.023e-09
3.194e-10
1.025e-09
3.167e-10
1.022e-09
3.055e-10
1.016e-09
2.887e-10
1.007e-09
2.685e-10
9.953e-10
2.465e-10
9.829e-10
2.24e-10
9.701e-10
2.015e-10
9.575e-10
1.795e-10
9.455e-10
1.583e-10
9.343e-10
1.381e-10
9.243e-10
1.188e-10
9.155e-10
1.005e-10
9.082e-10
8.306e-11
9.024e-10
6.637e-11
8.982e-10
5.035e-11
8.957e-10
3.488e-11
8.948e-10
1.984e-11
8.957e-10
5.123e-12
8.983e-10
-9.4e-12
9.027e-10
-2.384e-11
9.09e-10
-3.829e-11
9.172e-10
-5.287e-11
9.274e-10
-6.767e-11
9.395e-10
-8.276e-11
9.538e-10
-9.824e-11
9.702e-10
-1.142e-10
9.888e-10
-1.306e-10
1.01e-09
-1.475e-10
1.033e-09
-1.65e-10
1.059e-09
-1.831e-10
1.087e-09
-2.017e-10
1.118e-09
-2.208e-10
1.152e-09
-2.403e-10
1.188e-09
-2.602e-10
1.227e-09
-2.801e-10
1.268e-09
-3.001e-10
1.313e-09
-3.197e-10
1.36e-09
-3.388e-10
1.409e-09
-3.57e-10
1.461e-09
-3.74e-10
1.515e-09
-3.893e-10
1.57e-09
-4.025e-10
1.627e-09
-4.131e-10
1.685e-09
-4.206e-10
1.744e-09
-4.244e-10
1.802e-09
-4.242e-10
1.86e-09
-4.194e-10
1.917e-09
-4.097e-10
1.971e-09
-3.947e-10
2.023e-09
-3.742e-10
2.071e-09
-3.48e-10
2.115e-09
-3.161e-10
2.154e-09
-2.788e-10
2.187e-09
-2.363e-10
2.214e-09
-1.891e-10
2.233e-09
-1.379e-10
2.245e-09
-8.372e-11
2.249e-09
-2.783e-11
2.245e-09
2.839e-11
2.233e-09
8.355e-11
2.214e-09
1.364e-10
2.188e-09
1.858e-10
2.156e-09
2.311e-10
2.119e-09
2.718e-10
2.077e-09
3.076e-10
2.03e-09
3.382e-10
1.98e-09
3.637e-10
1.928e-09
3.841e-10
1.873e-09
3.995e-10
1.817e-09
4.101e-10
1.759e-09
4.161e-10
1.702e-09
4.18e-10
1.644e-09
4.159e-10
1.588e-09
4.104e-10
1.532e-09
4.019e-10
1.478e-09
3.908e-10
1.425e-09
3.776e-10
1.375e-09
3.627e-10
1.327e-09
3.465e-10
1.281e-09
3.294e-10
1.237e-09
3.118e-10
1.196e-09
2.938e-10
1.157e-09
2.758e-10
1.121e-09
2.58e-10
1.087e-09
2.406e-10
1.055e-09
2.236e-10
1.025e-09
2.073e-10
9.982e-10
1.916e-10
9.729e-10
1.767e-10
9.496e-10
1.626e-10
9.281e-10
1.493e-10
9.084e-10
1.368e-10
8.902e-10
1.251e-10
8.736e-10
1.142e-10
8.584e-10
1.04e-10
8.446e-10
9.466e-11
8.319e-10
8.599e-11
8.204e-10
7.8e-11
8.1e-10
7.065e-11
8.005e-10
6.39e-11
7.918e-10
5.772e-11
7.84e-10
5.207e-11
7.77e-10
4.691e-11
7.706e-10
4.222e-11
7.648e-10
3.795e-11
7.597e-10
3.408e-11
7.55e-10
3.057e-11
7.508e-10
2.741e-11
7.47e-10
2.456e-11
7.437e-10
2.201e-11
7.406e-10
1.974e-11
7.379e-10
1.772e-11
7.355e-10
1.595e-11
7.333e-10
1.44e-11
7.314e-10
1.308e-11
7.296e-10
1.196e-11
7.281e-10
1.104e-11
7.266e-10
1.031e-11
7.254e-10
9.754e-12
7.242e-10
9.365e-12
7.231e-10
9.129e-12
9.029e-12
9.441e-10
5.523e-11
9.593e-10
1.466e-10
9.781e-10
2.163e-10
9.968e-10
2.646e-10
1.012e-09
2.94e-10
1.024e-09
3.079e-10
1.031e-09
3.098e-10
1.033e-09
3.029e-10
1.032e-09
2.898e-10
1.028e-09
2.726e-10
1.022e-09
2.529e-10
1.014e-09
2.318e-10
1.005e-09
2.101e-10
9.963e-10
1.885e-10
9.875e-10
1.672e-10
9.79e-10
1.465e-10
9.714e-10
1.265e-10
9.646e-10
1.073e-10
9.59e-10
8.869e-11
9.546e-10
7.076e-11
9.515e-10
5.34e-11
9.499e-10
3.65e-11
9.498e-10
1.996e-11
9.512e-10
3.683e-12
9.543e-10
-1.246e-11
9.59e-10
-2.857e-11
9.655e-10
-4.475e-11
9.738e-10
-6.112e-11
9.839e-10
-7.777e-11
9.959e-10
-9.478e-11
1.01e-09
-1.122e-10
1.026e-09
-1.302e-10
1.044e-09
-1.488e-10
1.065e-09
-1.679e-10
1.087e-09
-1.878e-10
1.112e-09
-2.082e-10
1.14e-09
-2.292e-10
1.17e-09
-2.509e-10
1.202e-09
-2.729e-10
1.238e-09
-2.954e-10
1.276e-09
-3.18e-10
1.316e-09
-3.405e-10
1.359e-09
-3.628e-10
1.405e-09
-3.844e-10
1.453e-09
-4.051e-10
1.503e-09
-4.243e-10
1.555e-09
-4.416e-10
1.609e-09
-4.566e-10
1.665e-09
-4.686e-10
1.721e-09
-4.77e-10
1.778e-09
-4.814e-10
1.835e-09
-4.811e-10
1.892e-09
-4.757e-10
1.947e-09
-4.647e-10
2e-09
-4.477e-10
2.05e-09
-4.245e-10
2.097e-09
-3.949e-10
2.139e-09
-3.589e-10
2.177e-09
-3.166e-10
2.21e-09
-2.685e-10
2.235e-09
-2.15e-10
2.254e-09
-1.569e-10
2.266e-09
-9.521e-11
2.27e-09
-3.153e-11
2.266e-09
3.249e-11
2.254e-09
9.521e-11
2.235e-09
1.551e-10
2.21e-09
2.111e-10
2.179e-09
2.622e-10
2.142e-09
3.081e-10
2.102e-09
3.484e-10
2.057e-09
3.831e-10
2.009e-09
4.119e-10
1.958e-09
4.351e-10
1.905e-09
4.526e-10
1.85e-09
4.647e-10
1.794e-09
4.717e-10
1.738e-09
4.739e-10
1.683e-09
4.717e-10
1.627e-09
4.656e-10
1.573e-09
4.56e-10
1.521e-09
4.435e-10
1.469e-09
4.286e-10
1.42e-09
4.118e-10
1.373e-09
3.935e-10
1.329e-09
3.742e-10
1.286e-09
3.542e-10
1.246e-09
3.339e-10
1.208e-09
3.136e-10
1.173e-09
2.934e-10
1.14e-09
2.737e-10
1.109e-09
2.545e-10
1.08e-09
2.36e-10
1.054e-09
2.182e-10
1.029e-09
2.013e-10
1.006e-09
1.853e-10
9.853e-10
1.702e-10
9.66e-10
1.561e-10
9.483e-10
1.428e-10
9.32e-10
1.304e-10
9.171e-10
1.189e-10
9.036e-10
1.083e-10
8.912e-10
9.84e-11
8.799e-10
8.93e-11
8.696e-10
8.093e-11
8.602e-10
7.325e-11
8.517e-10
6.62e-11
8.44e-10
5.976e-11
8.371e-10
5.387e-11
8.308e-10
4.851e-11
8.251e-10
4.363e-11
8.2e-10
3.92e-11
8.154e-10
3.519e-11
8.112e-10
3.156e-11
8.075e-10
2.829e-11
8.041e-10
2.536e-11
8.011e-10
2.274e-11
7.984e-10
2.041e-11
7.96e-10
1.835e-11
7.939e-10
1.655e-11
7.92e-10
1.5e-11
7.903e-10
1.367e-11
7.887e-10
1.257e-11
7.874e-10
1.168e-11
7.861e-10
1.099e-11
7.85e-10
1.05e-11
7.839e-10
1.018e-11
1.005e-11
9.431e-10
4.961e-11
9.566e-10
1.331e-10
9.741e-10
1.988e-10
9.925e-10
2.462e-10
1.009e-09
2.772e-10
1.023e-09
2.941e-10
1.033e-09
2.996e-10
1.04e-09
2.964e-10
1.043e-09
2.866e-10
1.044e-09
2.723e-10
1.042e-09
2.548e-10
1.038e-09
2.354e-10
1.033e-09
2.149e-10
1.028e-09
1.94e-10
1.022e-09
1.73e-10
1.016e-09
1.522e-10
1.011e-09
1.318e-10
1.006e-09
1.12e-10
1.002e-09
9.258e-11
9.993e-10
7.369e-11
9.974e-10
5.525e-11
9.968e-10
3.716e-11
9.974e-10
1.935e-11
9.994e-10
1.703e-12
1.003e-09
-1.587e-11
1.008e-09
-3.348e-11
1.014e-09
-5.123e-11
1.022e-09
-6.923e-11
1.032e-09
-8.758e-11
1.044e-09
-1.064e-10
1.057e-09
-1.257e-10
1.072e-09
-1.456e-10
1.09e-09
-1.661e-10
1.109e-09
-1.874e-10
1.131e-09
-2.093e-10
1.155e-09
-2.32e-10
1.181e-09
-2.553e-10
1.209e-09
-2.793e-10
1.24e-09
-3.038e-10
1.273e-09
-3.287e-10
1.309e-09
-3.538e-10
1.348e-09
-3.789e-10
1.388e-09
-4.036e-10
1.432e-09
-4.276e-10
1.477e-09
-4.506e-10
1.525e-09
-4.72e-10
1.574e-09
-4.913e-10
1.626e-09
-5.079e-10
1.678e-09
-5.212e-10
1.732e-09
-5.306e-10
1.786e-09
-5.354e-10
1.84e-09
-5.35e-10
1.893e-09