/*--------------------------------*- C++ -*----------------------------------*\
  =========                 |
  \\      /  F ield         | OpenFOAM: The Open Source CFD Toolbox
   \\    /   O peration     | Website:  https://openfoam.org
    \\  /    A nd           | Version:  7
     \\/     M anipulation  |
\*---------------------------------------------------------------------------*/
FoamFile
{
    version     2.0;
    format      ascii;
    class       volVectorField;
    location    "359.999473411202814";
    object      U;
}
// * * * * * * * * * * * * * * * * * * * * * * * * * * * * * * * * * * * * * //

dimensions      [0 1 -1 0 0 0 0];

internalField   nonuniform List<vector> 
4096
(
(0.001039 0.0001611 0)
(0.0007463 0.0001314 0)
(0.0005301 8.474e-05 0)
(0.0003918 5.358e-05 0)
(0.0003036 3.465e-05 0)
(0.0002457 2.326e-05 0)
(0.0002061 1.63e-05 0)
(0.0001779 1.191e-05 0)
(0.000157 9.014e-06 0)
(0.000141 7.02e-06 0)
(0.0001283 5.586e-06 0)
(0.0001182 4.517e-06 0)
(0.00011 3.694e-06 0)
(0.0001033 3.045e-06 0)
(9.773e-05 2.519e-06 0)
(9.313e-05 2.086e-06 0)
(8.932e-05 1.723e-06 0)
(8.618e-05 1.412e-06 0)
(8.363e-05 1.142e-06 0)
(8.158e-05 9.039e-07 0)
(7.999e-05 6.905e-07 0)
(7.88e-05 4.96e-07 0)
(7.799e-05 3.161e-07 0)
(7.753e-05 1.469e-07 0)
(7.739e-05 -1.471e-08 0)
(7.758e-05 -1.714e-07 0)
(7.808e-05 -3.255e-07 0)
(7.888e-05 -4.791e-07 0)
(8e-05 -6.338e-07 0)
(8.142e-05 -7.913e-07 0)
(8.316e-05 -9.529e-07 0)
(8.524e-05 -1.12e-06 0)
(8.765e-05 -1.293e-06 0)
(9.042e-05 -1.474e-06 0)
(9.355e-05 -1.662e-06 0)
(9.707e-05 -1.858e-06 0)
(0.000101 -2.063e-06 0)
(0.0001053 -2.275e-06 0)
(0.0001101 -2.495e-06 0)
(0.0001153 -2.72e-06 0)
(0.000121 -2.951e-06 0)
(0.0001271 -3.185e-06 0)
(0.0001337 -3.418e-06 0)
(0.0001408 -3.649e-06 0)
(0.0001483 -3.872e-06 0)
(0.0001563 -4.085e-06 0)
(0.0001646 -4.281e-06 0)
(0.0001734 -4.454e-06 0)
(0.0001824 -4.6e-06 0)
(0.0001917 -4.711e-06 0)
(0.0002012 -4.78e-06 0)
(0.0002108 -4.802e-06 0)
(0.0002204 -4.77e-06 0)
(0.0002298 -4.678e-06 0)
(0.000239 -4.521e-06 0)
(0.0002478 -4.297e-06 0)
(0.0002561 -4.003e-06 0)
(0.0002638 -3.638e-06 0)
(0.0002706 -3.206e-06 0)
(0.0002765 -2.711e-06 0)
(0.0002814 -2.159e-06 0)
(0.0002851 -1.561e-06 0)
(0.0002876 -9.301e-07 0)
(0.0002888 -2.797e-07 0)
(0.0002887 3.742e-07 0)
(0.0002874 1.016e-06 0)
(0.0002847 1.631e-06 0)
(0.0002809 2.206e-06 0)
(0.0002759 2.731e-06 0)
(0.00027 3.198e-06 0)
(0.0002632 3.603e-06 0)
(0.0002557 3.943e-06 0)
(0.0002475 4.217e-06 0)
(0.0002389 4.427e-06 0)
(0.0002299 4.574e-06 0)
(0.0002206 4.664e-06 0)
(0.0002113 4.699e-06 0)
(0.0002019 4.685e-06 0)
(0.0001926 4.627e-06 0)
(0.0001834 4.53e-06 0)
(0.0001745 4.402e-06 0)
(0.0001658 4.247e-06 0)
(0.0001575 4.07e-06 0)
(0.0001496 3.878e-06 0)
(0.000142 3.674e-06 0)
(0.0001349 3.464e-06 0)
(0.0001282 3.25e-06 0)
(0.0001219 3.037e-06 0)
(0.000116 2.826e-06 0)
(0.0001106 2.621e-06 0)
(0.0001055 2.422e-06 0)
(0.0001009 2.231e-06 0)
(9.658e-05 2.049e-06 0)
(9.265e-05 1.877e-06 0)
(8.906e-05 1.716e-06 0)
(8.578e-05 1.564e-06 0)
(8.28e-05 1.423e-06 0)
(8.008e-05 1.292e-06 0)
(7.762e-05 1.17e-06 0)
(7.539e-05 1.058e-06 0)
(7.338e-05 9.553e-07 0)
(7.156e-05 8.609e-07 0)
(6.993e-05 7.746e-07 0)
(6.846e-05 6.958e-07 0)
(6.714e-05 6.241e-07 0)
(6.595e-05 5.589e-07 0)
(6.489e-05 4.998e-07 0)
(6.395e-05 4.463e-07 0)
(6.31e-05 3.979e-07 0)
(6.235e-05 3.543e-07 0)
(6.168e-05 3.151e-07 0)
(6.109e-05 2.799e-07 0)
(6.056e-05 2.484e-07 0)
(6.009e-05 2.204e-07 0)
(5.967e-05 1.956e-07 0)
(5.93e-05 1.738e-07 0)
(5.898e-05 1.55e-07 0)
(5.868e-05 1.389e-07 0)
(5.842e-05 1.258e-07 0)
(5.818e-05 1.155e-07 0)
(5.795e-05 1.085e-07 0)
(5.774e-05 1.052e-07 0)
(5.753e-05 1.065e-07 0)
(5.731e-05 1.141e-07 0)
(5.706e-05 1.315e-07 0)
(5.677e-05 1.64e-07 0)
(5.638e-05 2.178e-07 0)
(5.588e-05 2.83e-07 0)
(0.001209 0.0003128 0)
(0.001154 0.0003282 0)
(0.00101 0.000248 0)
(0.0008613 0.000177 0)
(0.0007345 0.0001262 0)
(0.0006329 9.135e-05 0)
(0.0005529 6.776e-05 0)
(0.0004899 5.158e-05 0)
(0.00044 4.019e-05 0)
(0.0003999 3.195e-05 0)
(0.0003674 2.58e-05 0)
(0.0003407 2.108e-05 0)
(0.0003187 1.738e-05 0)
(0.0003004 1.441e-05 0)
(0.0002851 1.198e-05 0)
(0.0002724 9.961e-06 0)
(0.0002618 8.25e-06 0)
(0.000253 6.779e-06 0)
(0.0002459 5.495e-06 0)
(0.0002401 4.358e-06 0)
(0.0002356 3.335e-06 0)
(0.0002322 2.4e-06 0)
(0.0002299 1.533e-06 0)
(0.0002286 7.173e-07 0)
(0.0002282 -6.276e-08 0)
(0.0002287 -8.192e-07 0)
(0.0002301 -1.563e-06 0)
(0.0002324 -2.303e-06 0)
(0.0002355 -3.048e-06 0)
(0.0002395 -3.805e-06 0)
(0.0002444 -4.581e-06 0)
(0.0002502 -5.381e-06 0)
(0.000257 -6.209e-06 0)
(0.0002647 -7.069e-06 0)
(0.0002735 -7.964e-06 0)
(0.0002833 -8.895e-06 0)
(0.0002942 -9.862e-06 0)
(0.0003063 -1.086e-05 0)
(0.0003195 -1.19e-05 0)
(0.0003339 -1.296e-05 0)
(0.0003496 -1.403e-05 0)
(0.0003665 -1.512e-05 0)
(0.0003846 -1.621e-05 0)
(0.0004039 -1.727e-05 0)
(0.0004244 -1.83e-05 0)
(0.0004461 -1.927e-05 0)
(0.0004688 -2.017e-05 0)
(0.0004925 -2.095e-05 0)
(0.0005169 -2.16e-05 0)
(0.000542 -2.209e-05 0)
(0.0005675 -2.238e-05 0)
(0.0005931 -2.245e-05 0)
(0.0006187 -2.227e-05 0)
(0.0006439 -2.181e-05 0)
(0.0006683 -2.105e-05 0)
(0.0006917 -1.998e-05 0)
(0.0007137 -1.86e-05 0)
(0.0007339 -1.689e-05 0)
(0.000752 -1.487e-05 0)
(0.0007676 -1.257e-05 0)
(0.0007804 -1.001e-05 0)
(0.0007903 -7.25e-06 0)
(0.0007969 -4.334e-06 0)
(0.0008001 -1.331e-06 0)
(0.0007999 1.688e-06 0)
(0.0007964 4.654e-06 0)
(0.0007895 7.5e-06 0)
(0.0007795 1.017e-05 0)
(0.0007666 1.261e-05 0)
(0.0007511 1.48e-05 0)
(0.0007332 1.67e-05 0)
(0.0007133 1.83e-05 0)
(0.0006917 1.961e-05 0)
(0.0006687 2.061e-05 0)
(0.0006448 2.134e-05 0)
(0.0006201 2.179e-05 0)
(0.0005951 2.199e-05 0)
(0.0005699 2.196e-05 0)
(0.0005448 2.172e-05 0)
(0.0005201 2.131e-05 0)
(0.0004959 2.074e-05 0)
(0.0004725 2.004e-05 0)
(0.0004498 1.924e-05 0)
(0.0004281 1.836e-05 0)
(0.0004074 1.743e-05 0)
(0.0003878 1.646e-05 0)
(0.0003693 1.547e-05 0)
(0.0003519 1.448e-05 0)
(0.0003357 1.35e-05 0)
(0.0003205 1.254e-05 0)
(0.0003065 1.161e-05 0)
(0.0002934 1.071e-05 0)
(0.0002814 9.852e-06 0)
(0.0002704 9.04e-06 0)
(0.0002603 8.274e-06 0)
(0.000251 7.554e-06 0)
(0.0002425 6.883e-06 0)
(0.0002348 6.257e-06 0)
(0.0002278 5.678e-06 0)
(0.0002215 5.143e-06 0)
(0.0002157 4.649e-06 0)
(0.0002105 4.197e-06 0)
(0.0002058 3.782e-06 0)
(0.0002015 3.402e-06 0)
(0.0001977 3.057e-06 0)
(0.0001943 2.742e-06 0)
(0.0001912 2.456e-06 0)
(0.0001884 2.197e-06 0)
(0.000186 1.962e-06 0)
(0.0001838 1.75e-06 0)
(0.0001818 1.559e-06 0)
(0.00018 1.388e-06 0)
(0.0001785 1.235e-06 0)
(0.0001771 1.098e-06 0)
(0.0001758 9.764e-07 0)
(0.0001747 8.698e-07 0)
(0.0001737 7.772e-07 0)
(0.0001728 6.982e-07 0)
(0.000172 6.328e-07 0)
(0.0001713 5.813e-07 0)
(0.0001706 5.447e-07 0)
(0.00017 5.244e-07 0)
(0.0001694 5.234e-07 0)
(0.0001687 5.463e-07 0)
(0.0001681 6.006e-07 0)
(0.0001674 6.969e-07 0)
(0.0001666 8.403e-07 0)
(0.0001658 9.901e-07 0)
(0.001226 0.0002775 0)
(0.001243 0.0004027 0)
(0.001194 0.0003664 0)
(0.001103 0.0002981 0)
(0.001 0.0002343 0)
(0.0009021 0.0001828 0)
(0.000815 0.0001434 0)
(0.0007403 0.0001137 0)
(0.000677 9.13e-05 0)
(0.0006237 7.418e-05 0)
(0.0005789 6.089e-05 0)
(0.0005412 5.038e-05 0)
(0.0005094 4.193e-05 0)
(0.0004825 3.503e-05 0)
(0.0004598 2.93e-05 0)
(0.0004408 2.447e-05 0)
(0.0004248 2.034e-05 0)
(0.0004114 1.676e-05 0)
(0.0004005 1.362e-05 0)
(0.0003917 1.082e-05 0)
(0.0003848 8.293e-06 0)
(0.0003796 5.974e-06 0)
(0.000376 3.817e-06 0)
(0.000374 1.781e-06 0)
(0.0003734 -1.674e-07 0)
(0.0003743 -2.059e-06 0)
(0.0003765 -3.919e-06 0)
(0.00038 -5.77e-06 0)
(0.000385 -7.632e-06 0)
(0.0003913 -9.522e-06 0)
(0.000399 -1.146e-05 0)
(0.0004081 -1.345e-05 0)
(0.0004187 -1.55e-05 0)
(0.0004308 -1.764e-05 0)
(0.0004445 -1.985e-05 0)
(0.0004598 -2.215e-05 0)
(0.0004768 -2.454e-05 0)
(0.0004956 -2.7e-05 0)
(0.0005162 -2.953e-05 0)
(0.0005385 -3.213e-05 0)
(0.0005628 -3.476e-05 0)
(0.0005889 -3.74e-05 0)
(0.0006169 -4.004e-05 0)
(0.0006467 -4.261e-05 0)
(0.0006783 -4.51e-05 0)
(0.0007116 -4.743e-05 0)
(0.0007465 -4.956e-05 0)
(0.0007827 -5.142e-05 0)
(0.0008201 -5.295e-05 0)
(0.0008583 -5.408e-05 0)
(0.0008972 -5.473e-05 0)
(0.0009363 -5.483e-05 0)
(0.0009751 -5.433e-05 0)
(0.001013 -5.316e-05 0)
(0.00105 -5.127e-05 0)
(0.001086 -4.862e-05 0)
(0.001119 -4.521e-05 0)
(0.00115 -4.104e-05 0)
(0.001177 -3.613e-05 0)
(0.001201 -3.053e-05 0)
(0.00122 -2.433e-05 0)
(0.001235 -1.763e-05 0)
(0.001245 -1.058e-05 0)
(0.00125 -3.311e-06 0)
(0.00125 3.996e-06 0)
(0.001245 1.118e-05 0)
(0.001234 1.808e-05 0)
(0.001219 2.456e-05 0)
(0.0012 3.051e-05 0)
(0.001177 3.584e-05 0)
(0.00115 4.05e-05 0)
(0.00112 4.445e-05 0)
(0.001087 4.768e-05 0)
(0.001052 5.02e-05 0)
(0.001016 5.203e-05 0)
(0.0009785 5.32e-05 0)
(0.0009403 5.376e-05 0)
(0.0009019 5.376e-05 0)
(0.0008637 5.326e-05 0)
(0.0008258 5.231e-05 0)
(0.0007888 5.099e-05 0)
(0.0007527 4.934e-05 0)
(0.0007179 4.744e-05 0)
(0.0006844 4.534e-05 0)
(0.0006525 4.31e-05 0)
(0.0006221 4.076e-05 0)
(0.0005934 3.836e-05 0)
(0.0005664 3.596e-05 0)
(0.0005411 3.357e-05 0)
(0.0005175 3.122e-05 0)
(0.0004956 2.894e-05 0)
(0.0004752 2.674e-05 0)
(0.0004564 2.463e-05 0)
(0.0004391 2.263e-05 0)
(0.0004232 2.074e-05 0)
(0.0004086 1.896e-05 0)
(0.0003952 1.73e-05 0)
(0.000383 1.575e-05 0)
(0.0003719 1.431e-05 0)
(0.0003618 1.298e-05 0)
(0.0003526 1.175e-05 0)
(0.0003443 1.062e-05 0)
(0.0003368 9.582e-06 0)
(0.00033 8.632e-06 0)
(0.0003239 7.766e-06 0)
(0.0003184 6.976e-06 0)
(0.0003134 6.257e-06 0)
(0.000309 5.605e-06 0)
(0.000305 5.014e-06 0)
(0.0003014 4.48e-06 0)
(0.0002982 3.998e-06 0)
(0.0002953 3.565e-06 0)
(0.0002928 3.176e-06 0)
(0.0002905 2.829e-06 0)
(0.0002885 2.521e-06 0)
(0.0002867 2.25e-06 0)
(0.000285 2.013e-06 0)
(0.0002836 1.811e-06 0)
(0.0002823 1.642e-06 0)
(0.0002811 1.506e-06 0)
(0.0002799 1.406e-06 0)
(0.0002789 1.344e-06 0)
(0.0002779 1.323e-06 0)
(0.0002769 1.349e-06 0)
(0.000276 1.428e-06 0)
(0.000275 1.566e-06 0)
(0.000274 1.752e-06 0)
(0.000273 1.915e-06 0)
(0.001224 0.0002275 0)
(0.00126 0.0004003 0)
(0.001258 0.0004192 0)
(0.001216 0.0003787 0)
(0.00115 0.0003225 0)
(0.001074 0.000268 0)
(0.0009986 0.0002208 0)
(0.0009277 0.0001819 0)
(0.0008637 0.0001504 0)
(0.0008071 0.000125 0)
(0.0007576 0.0001044 0)
(0.0007147 8.754e-05 0)
(0.0006776 7.365e-05 0)
(0.0006457 6.205e-05 0)
(0.0006184 5.225e-05 0)
(0.0005952 4.388e-05 0)
(0.0005755 3.664e-05 0)
(0.0005589 3.03e-05 0)
(0.0005453 2.469e-05 0)
(0.0005342 1.965e-05 0)
(0.0005255 1.507e-05 0)
(0.0005191 1.085e-05 0)
(0.0005146 6.911e-06 0)
(0.0005122 3.18e-06 0)
(0.0005116 -3.992e-07 0)
(0.0005128 -3.879e-06 0)
(0.0005158 -7.305e-06 0)
(0.0005205 -1.072e-05 0)
(0.0005271 -1.415e-05 0)
(0.0005354 -1.763e-05 0)
(0.0005456 -2.119e-05 0)
(0.0005576 -2.485e-05 0)
(0.0005715 -2.863e-05 0)
(0.0005874 -3.254e-05 0)
(0.0006053 -3.659e-05 0)
(0.0006254 -4.079e-05 0)
(0.0006476 -4.514e-05 0)
(0.0006721 -4.962e-05 0)
(0.0006988 -5.423e-05 0)
(0.0007279 -5.893e-05 0)
(0.0007594 -6.369e-05 0)
(0.0007933 -6.847e-05 0)
(0.0008296 -7.321e-05 0)
(0.0008681 -7.784e-05 0)
(0.0009089 -8.229e-05 0)
(0.0009519 -8.646e-05 0)
(0.0009968 -9.025e-05 0)
(0.001043 -9.355e-05 0)
(0.001091 -9.623e-05 0)
(0.00114 -9.819e-05 0)
(0.00119 -9.928e-05 0)
(0.00124 -9.938e-05 0)
(0.00129 -9.839e-05 0)
(0.001339 -9.62e-05 0)
(0.001386 -9.272e-05 0)
(0.001432 -8.789e-05 0)
(0.001474 -8.169e-05 0)
(0.001513 -7.413e-05 0)
(0.001548 -6.524e-05 0)
(0.001578 -5.514e-05 0)
(0.001603 -4.396e-05 0)
(0.001622 -3.19e-05 0)
(0.001635 -1.919e-05 0)
(0.001641 -6.104e-06 0)
(0.001641 7.056e-06 0)
(0.001634 2e-05 0)
(0.001621 3.244e-05 0)
(0.001602 4.414e-05 0)
(0.001578 5.49e-05 0)
(0.001548 6.455e-05 0)
(0.001514 7.301e-05 0)
(0.001476 8.021e-05 0)
(0.001434 8.612e-05 0)
(0.00139 9.076e-05 0)
(0.001343 9.417e-05 0)
(0.001296 9.639e-05 0)
(0.001247 9.751e-05 0)
(0.001198 9.761e-05 0)
(0.001148 9.68e-05 0)
(0.0011 9.519e-05 0)
(0.001052 9.288e-05 0)
(0.001006 8.999e-05 0)
(0.0009607 8.663e-05 0)
(0.0009174 8.289e-05 0)
(0.0008761 7.888e-05 0)
(0.0008367 7.468e-05 0)
(0.0007994 7.038e-05 0)
(0.0007643 6.604e-05 0)
(0.0007314 6.172e-05 0)
(0.0007005 5.748e-05 0)
(0.0006718 5.334e-05 0)
(0.0006452 4.934e-05 0)
(0.0006205 4.551e-05 0)
(0.0005977 4.187e-05 0)
(0.0005767 3.841e-05 0)
(0.0005575 3.516e-05 0)
(0.0005398 3.211e-05 0)
(0.0005237 2.927e-05 0)
(0.000509 2.663e-05 0)
(0.0004956 2.418e-05 0)
(0.0004834 2.191e-05 0)
(0.0004723 1.983e-05 0)
(0.0004623 1.791e-05 0)
(0.0004532 1.616e-05 0)
(0.000445 1.455e-05 0)
(0.0004376 1.309e-05 0)
(0.000431 1.176e-05 0)
(0.000425 1.054e-05 0)
(0.0004196 9.445e-06 0)
(0.0004148 8.45e-06 0)
(0.0004104 7.552e-06 0)
(0.0004066 6.742e-06 0)
(0.0004031 6.016e-06 0)
(0.0004 5.366e-06 0)
(0.0003972 4.788e-06 0)
(0.0003948 4.278e-06 0)
(0.0003925 3.832e-06 0)
(0.0003905 3.448e-06 0)
(0.0003887 3.124e-06 0)
(0.0003871 2.861e-06 0)
(0.0003856 2.659e-06 0)
(0.0003842 2.52e-06 0)
(0.0003829 2.449e-06 0)
(0.0003816 2.447e-06 0)
(0.0003804 2.518e-06 0)
(0.0003792 2.657e-06 0)
(0.0003781 2.837e-06 0)
(0.0003769 2.981e-06 0)
(0.001219 0.0001846 0)
(0.001255 0.0003712 0)
(0.001275 0.0004298 0)
(0.001265 0.0004206 0)
(0.00123 0.0003821 0)
(0.001179 0.0003345 0)
(0.001122 0.0002876 0)
(0.001063 0.0002451 0)
(0.001005 0.0002082 0)
(0.0009524 0.0001768 0)
(0.0009041 0.0001503 0)
(0.0008608 0.0001278 0)
(0.0008225 0.0001088 0)
(0.0007888 9.248e-05 0)
(0.0007595 7.846e-05 0)
(0.0007341 6.628e-05 0)
(0.0007124 5.561e-05 0)
(0.0006941 4.617e-05 0)
(0.0006789 3.772e-05 0)
(0.0006665 3.007e-05 0)
(0.0006568 2.307e-05 0)
(0.0006495 1.658e-05 0)
(0.0006446 1.049e-05 0)
(0.000642 4.703e-06 0)
(0.0006415 -8.693e-07 0)
(0.0006432 -6.3e-06 0)
(0.000647 -1.166e-05 0)
(0.0006528 -1.699e-05 0)
(0.0006608 -2.236e-05 0)
(0.0006709 -2.781e-05 0)
(0.0006831 -3.338e-05 0)
(0.0006975 -3.91e-05 0)
(0.0007143 -4.501e-05 0)
(0.0007333 -5.111e-05 0)
(0.0007548 -5.743e-05 0)
(0.0007787 -6.397e-05 0)
(0.0008053 -7.072e-05 0)
(0.0008344 -7.768e-05 0)
(0.0008663 -8.481e-05 0)
(0.0009009 -9.208e-05 0)
(0.0009383 -9.943e-05 0)
(0.0009785 -0.0001068 0)
(0.001021 -0.0001141 0)
(0.001067 -0.0001212 0)
(0.001115 -0.000128 0)
(0.001166 -0.0001344 0)
(0.001219 -0.0001402 0)
(0.001274 -0.0001452 0)
(0.001331 -0.0001492 0)
(0.001388 -0.0001521 0)
(0.001447 -0.0001537 0)
(0.001506 -0.0001538 0)
(0.001564 -0.0001522 0)
(0.001622 -0.0001487 0)
(0.001677 -0.0001432 0)
(0.00173 -0.0001357 0)
(0.00178 -0.0001261 0)
(0.001826 -0.0001144 0)
(0.001867 -0.0001007 0)
(0.001902 -8.514e-05 0)
(0.001931 -6.791e-05 0)
(0.001954 -4.933e-05 0)
(0.001969 -2.975e-05 0)
(0.001976 -9.595e-06 0)
(0.001976 1.068e-05 0)
(0.001969 3.062e-05 0)
(0.001954 4.981e-05 0)
(0.001932 6.786e-05 0)
(0.001903 8.447e-05 0)
(0.001868 9.94e-05 0)
(0.001828 0.0001125 0)
(0.001783 0.0001237 0)
(0.001735 0.0001329 0)
(0.001683 0.0001402 0)
(0.001628 0.0001455 0)
(0.001572 0.0001491 0)
(0.001515 0.0001509 0)
(0.001457 0.0001512 0)
(0.001399 0.0001501 0)
(0.001342 0.0001478 0)
(0.001286 0.0001443 0)
(0.001231 0.00014 0)
(0.001178 0.0001348 0)
(0.001126 0.0001292 0)
(0.001077 0.000123 0)
(0.001031 0.0001166 0)
(0.0009862 0.00011 0)
(0.0009445 0.0001033 0)
(0.0009052 9.667e-05 0)
(0.0008684 9.012e-05 0)
(0.0008341 8.372e-05 0)
(0.0008022 7.753e-05 0)
(0.0007726 7.158e-05 0)
(0.0007453 6.592e-05 0)
(0.0007201 6.055e-05 0)
(0.0006969 5.548e-05 0)
(0.0006756 5.073e-05 0)
(0.0006561 4.628e-05 0)
(0.0006383 4.215e-05 0)
(0.0006221 3.831e-05 0)
(0.0006073 3.476e-05 0)
(0.0005938 3.149e-05 0)
(0.0005816 2.848e-05 0)
(0.0005706 2.572e-05 0)
(0.0005606 2.319e-05 0)
(0.0005516 2.088e-05 0)
(0.0005434 1.877e-05 0)
(0.0005361 1.686e-05 0)
(0.0005295 1.512e-05 0)
(0.0005235 1.354e-05 0)
(0.0005182 1.212e-05 0)
(0.0005134 1.083e-05 0)
(0.0005092 9.675e-06 0)
(0.0005053 8.64e-06 0)
(0.0005019 7.718e-06 0)
(0.0004988 6.902e-06 0)
(0.0004961 6.186e-06 0)
(0.0004936 5.565e-06 0)
(0.0004914 5.038e-06 0)
(0.0004893 4.602e-06 0)
(0.0004875 4.258e-06 0)
(0.0004858 4.005e-06 0)
(0.0004842 3.845e-06 0)
(0.0004828 3.778e-06 0)
(0.0004814 3.802e-06 0)
(0.00048 3.903e-06 0)
(0.0004787 4.047e-06 0)
(0.0004775 4.161e-06 0)
(0.001214 0.000152 0)
(0.001246 0.0003352 0)
(0.001274 0.0004177 0)
(0.001282 0.0004346 0)
(0.00127 0.0004158 0)
(0.001241 0.0003802 0)
(0.001202 0.0003389 0)
(0.001157 0.0002976 0)
(0.00111 0.0002592 0)
(0.001065 0.0002247 0)
(0.001021 0.0001941 0)
(0.0009812 0.0001674 0)
(0.0009447 0.0001441 0)
(0.0009118 0.0001236 0)
(0.0008827 0.0001057 0)
(0.0008572 8.987e-05 0)
(0.0008352 7.578e-05 0)
(0.0008163 6.315e-05 0)
(0.0008006 5.173e-05 0)
(0.0007877 4.13e-05 0)
(0.0007776 3.168e-05 0)
(0.0007701 2.27e-05 0)
(0.0007652 1.422e-05 0)
(0.0007627 6.126e-06 0)
(0.0007625 -1.697e-06 0)
(0.0007647 -9.343e-06 0)
(0.0007692 -1.69e-05 0)
(0.0007761 -2.444e-05 0)
(0.0007852 -3.204e-05 0)
(0.0007968 -3.975e-05 0)
(0.0008107 -4.763e-05 0)
(0.0008271 -5.572e-05 0)
(0.0008461 -6.407e-05 0)
(0.0008677 -7.269e-05 0)
(0.000892 -8.16e-05 0)
(0.000919 -9.082e-05 0)
(0.0009489 -0.0001003 0)
(0.0009818 -0.0001101 0)
(0.001018 -0.0001201 0)
(0.001057 -0.0001303 0)
(0.001099 -0.0001406 0)
(0.001144 -0.0001509 0)
(0.001192 -0.0001611 0)
(0.001243 -0.000171 0)
(0.001297 -0.0001805 0)
(0.001354 -0.0001893 0)
(0.001413 -0.0001973 0)
(0.001474 -0.0002043 0)
(0.001538 -0.0002098 0)
(0.001602 -0.0002138 0)
(0.001667 -0.0002159 0)
(0.001733 -0.0002159 0)
(0.001798 -0.0002136 0)
(0.001862 -0.0002086 0)
(0.001924 -0.0002009 0)
(0.001983 -0.0001904 0)
(0.002039 -0.0001769 0)
(0.00209 -0.0001605 0)
(0.002136 -0.0001413 0)
(0.002175 -0.0001195 0)
(0.002208 -9.534e-05 0)
(0.002233 -6.931e-05 0)
(0.00225 -4.189e-05 0)
(0.002258 -1.366e-05 0)
(0.002258 1.474e-05 0)
(0.00225 4.268e-05 0)
(0.002233 6.956e-05 0)
(0.002209 9.485e-05 0)
(0.002177 0.0001181 0)
(0.002138 0.0001391 0)
(0.002093 0.0001575 0)
(0.002044 0.0001732 0)
(0.00199 0.0001862 0)
(0.001932 0.0001965 0)
(0.001871 0.0002041 0)
(0.001809 0.0002093 0)
(0.001745 0.000212 0)
(0.00168 0.0002126 0)
(0.001616 0.0002112 0)
(0.001552 0.000208 0)
(0.001489 0.0002033 0)
(0.001427 0.0001973 0)
(0.001368 0.0001903 0)
(0.00131 0.0001824 0)
(0.001255 0.0001739 0)
(0.001203 0.0001649 0)
(0.001153 0.0001557 0)
(0.001106 0.0001464 0)
(0.001062 0.0001371 0)
(0.00102 0.0001279 0)
(0.0009815 0.000119 0)
(0.0009454 0.0001103 0)
(0.0009119 0.0001019 0)
(0.0008809 9.393e-05 0)
(0.0008523 8.635e-05 0)
(0.000826 7.921e-05 0)
(0.0008018 7.249e-05 0)
(0.0007796 6.62e-05 0)
(0.0007593 6.035e-05 0)
(0.0007407 5.49e-05 0)
(0.0007238 4.987e-05 0)
(0.0007084 4.522e-05 0)
(0.0006944 4.093e-05 0)
(0.0006817 3.7e-05 0)
(0.0006702 3.34e-05 0)
(0.0006598 3.01e-05 0)
(0.0006504 2.709e-05 0)
(0.000642 2.435e-05 0)
(0.0006343 2.186e-05 0)
(0.0006274 1.96e-05 0)
(0.0006213 1.756e-05 0)
(0.0006157 1.571e-05 0)
(0.0006107 1.405e-05 0)
(0.0006063 1.256e-05 0)
(0.0006023 1.123e-05 0)
(0.0005987 1.005e-05 0)
(0.0005955 9.009e-06 0)
(0.0005926 8.103e-06 0)
(0.00059 7.327e-06 0)
(0.0005877 6.677e-06 0)
(0.0005855 6.15e-06 0)
(0.0005836 5.744e-06 0)
(0.0005818 5.459e-06 0)
(0.0005802 5.29e-06 0)
(0.0005786 5.231e-06 0)
(0.0005772 5.264e-06 0)
(0.0005758 5.352e-06 0)
(0.0005745 5.429e-06 0)
(0.00121 0.0001278 0)
(0.001237 0.0003004 0)
(0.001267 0.0003949 0)
(0.001285 0.0004309 0)
(0.001288 0.0004297 0)
(0.001275 0.0004073 0)
(0.001252 0.0003744 0)
(0.001221 0.0003376 0)
(0.001186 0.0003006 0)
(0.00115 0.0002654 0)
(0.001114 0.000233 0)
(0.001079 0.0002036 0)
(0.001046 0.0001771 0)
(0.001016 0.0001534 0)
(0.0009889 0.0001322 0)
(0.0009647 0.0001131 0)
(0.0009436 9.582e-05 0)
(0.0009254 8.015e-05 0)
(0.00091 6.582e-05 0)
(0.0008975 5.261e-05 0)
(0.0008876 4.031e-05 0)
(0.0008804 2.875e-05 0)
(0.0008758 1.778e-05 0)
(0.0008736 7.236e-06 0)
(0.0008739 -2.991e-06 0)
(0.0008767 -1.302e-05 0)
(0.0008819 -2.296e-05 0)
(0.0008896 -3.29e-05 0)
(0.0008998 -4.292e-05 0)
(0.0009125 -5.31e-05 0)
(0.0009278 -6.351e-05 0)
(0.0009457 -7.42e-05 0)
(0.0009664 -8.521e-05 0)
(0.0009898 -9.658e-05 0)
(0.001016 -0.0001083 0)
(0.001046 -0.0001205 0)
(0.001078 -0.000133 0)
(0.001113 -0.0001459 0)
(0.001152 -0.000159 0)
(0.001194 -0.0001724 0)
(0.00124 -0.0001859 0)
(0.001288 -0.0001994 0)
(0.00134 -0.0002127 0)
(0.001395 -0.0002257 0)
(0.001454 -0.000238 0)
(0.001515 -0.0002496 0)
(0.001578 -0.00026 0)
(0.001644 -0.000269 0)
(0.001712 -0.0002762 0)
(0.001782 -0.0002813 0)
(0.001852 -0.000284 0)
(0.001923 -0.0002839 0)
(0.001993 -0.0002808 0)
(0.002061 -0.0002742 0)
(0.002128 -0.0002641 0)
(0.002192 -0.0002502 0)
(0.002252 -0.0002325 0)
(0.002307 -0.000211 0)
(0.002356 -0.0001858 0)
(0.002399 -0.0001571 0)
(0.002434 -0.0001255 0)
(0.002461 -9.13e-05 0)
(0.002479 -5.528e-05 0)
(0.002489 -1.819e-05 0)
(0.002489 1.914e-05 0)
(0.00248 5.585e-05 0)
(0.002462 9.115e-05 0)
(0.002435 0.0001244 0)
(0.002401 0.0001549 0)
(0.002359 0.0001824 0)
(0.002311 0.0002066 0)
(0.002258 0.0002273 0)
(0.0022 0.0002444 0)
(0.002138 0.000258 0)
(0.002073 0.0002682 0)
(0.002005 0.0002751 0)
(0.001937 0.0002788 0)
(0.001867 0.0002797 0)
(0.001798 0.000278 0)
(0.001729 0.000274 0)
(0.001661 0.000268 0)
(0.001595 0.0002602 0)
(0.001531 0.0002511 0)
(0.001469 0.0002409 0)
(0.00141 0.0002298 0)
(0.001353 0.0002181 0)
(0.001299 0.0002061 0)
(0.001248 0.0001939 0)
(0.0012 0.0001817 0)
(0.001155 0.0001697 0)
(0.001113 0.0001579 0)
(0.001074 0.0001465 0)
(0.001038 0.0001355 0)
(0.001004 0.000125 0)
(0.000973 0.000115 0)
(0.0009442 0.0001056 0)
(0.0009178 9.673e-05 0)
(0.0008936 8.842e-05 0)
(0.0008713 8.066e-05 0)
(0.000851 7.346e-05 0)
(0.0008325 6.678e-05 0)
(0.0008156 6.06e-05 0)
(0.0008002 5.491e-05 0)
(0.0007862 4.968e-05 0)
(0.0007736 4.488e-05 0)
(0.0007621 4.049e-05 0)
(0.0007517 3.648e-05 0)
(0.0007423 3.282e-05 0)
(0.0007339 2.949e-05 0)
(0.0007263 2.647e-05 0)
(0.0007194 2.373e-05 0)
(0.0007132 2.126e-05 0)
(0.0007077 1.903e-05 0)
(0.0007027 1.702e-05 0)
(0.0006983 1.523e-05 0)
(0.0006943 1.363e-05 0)
(0.0006907 1.222e-05 0)
(0.0006875 1.099e-05 0)
(0.0006846 9.927e-06 0)
(0.000682 9.024e-06 0)
(0.0006796 8.279e-06 0)
(0.0006775 7.686e-06 0)
(0.0006755 7.242e-06 0)
(0.0006738 6.939e-06 0)
(0.0006721 6.768e-06 0)
(0.0006706 6.707e-06 0)
(0.0006692 6.724e-06 0)
(0.0006678 6.761e-06 0)
(0.001208 0.0001096 0)
(0.00123 0.0002691 0)
(0.001259 0.000368 0)
(0.001282 0.0004167 0)
(0.001293 0.0004296 0)
(0.001293 0.0004196 0)
(0.001283 0.0003959 0)
(0.001264 0.0003652 0)
(0.001241 0.0003317 0)
(0.001214 0.0002979 0)
(0.001185 0.0002653 0)
(0.001157 0.0002347 0)
(0.001129 0.0002063 0)
(0.001103 0.0001803 0)
(0.001079 0.0001565 0)
(0.001057 0.0001346 0)
(0.001038 0.0001147 0)
(0.001021 9.625e-05 0)
(0.001007 7.922e-05 0)
(0.0009957 6.336e-05 0)
(0.0009867 4.846e-05 0)
(0.0009801 3.436e-05 0)
(0.0009761 2.087e-05 0)
(0.0009745 7.852e-06 0)
(0.0009754 -4.838e-06 0)
(0.0009788 -1.733e-05 0)
(0.0009847 -2.974e-05 0)
(0.0009931 -4.218e-05 0)
(0.001004 -5.475e-05 0)
(0.001018 -6.752e-05 0)
(0.001034 -8.059e-05 0)
(0.001053 -9.401e-05 0)
(0.001075 -0.0001078 0)
(0.001099 -0.0001221 0)
(0.001127 -0.0001369 0)
(0.001158 -0.0001521 0)
(0.001192 -0.0001678 0)
(0.001229 -0.0001839 0)
(0.00127 -0.0002004 0)
(0.001314 -0.0002171 0)
(0.001361 -0.000234 0)
(0.001412 -0.0002508 0)
(0.001466 -0.0002675 0)
(0.001524 -0.0002836 0)
(0.001585 -0.0002991 0)
(0.001649 -0.0003134 0)
(0.001715 -0.0003264 0)
(0.001784 -0.0003376 0)
(0.001855 -0.0003466 0)
(0.001928 -0.0003529 0)
(0.002001 -0.0003562 0)
(0.002075 -0.000356 0)
(0.002148 -0.000352 0)
(0.00222 -0.0003438 0)
(0.00229 -0.0003311 0)
(0.002357 -0.0003137 0)
(0.002419 -0.0002916 0)
(0.002477 -0.0002646 0)
(0.002529 -0.0002331 0)
(0.002574 -0.0001973 0)
(0.002611 -0.0001576 0)
(0.002639 -0.0001148 0)
(0.002659 -6.959e-05 0)
(0.002668 -2.304e-05 0)
(0.002669 2.381e-05 0)
(0.002659 6.986e-05 0)
(0.00264 0.0001141 0)
(0.002612 0.0001557 0)
(0.002576 0.000194 0)
(0.002533 0.0002284 0)
(0.002482 0.0002587 0)
(0.002427 0.0002846 0)
(0.002366 0.0003061 0)
(0.002301 0.0003232 0)
(0.002233 0.000336 0)
(0.002163 0.0003447 0)
(0.002091 0.0003496 0)
(0.002019 0.0003508 0)
(0.001946 0.0003489 0)
(0.001874 0.000344 0)
(0.001803 0.0003366 0)
(0.001734 0.000327 0)
(0.001667 0.0003157 0)
(0.001602 0.000303 0)
(0.00154 0.0002892 0)
(0.001481 0.0002747 0)
(0.001424 0.0002597 0)
(0.001371 0.0002445 0)
(0.001321 0.0002293 0)
(0.001273 0.0002143 0)
(0.001229 0.0001995 0)
(0.001188 0.0001852 0)
(0.00115 0.0001715 0)
(0.001114 0.0001583 0)
(0.001081 0.0001458 0)
(0.001051 0.0001339 0)
(0.001023 0.0001227 0)
(0.0009977 0.0001123 0)
(0.0009742 0.0001025 0)
(0.0009526 9.344e-05 0)
(0.000933 8.501e-05 0)
(0.000915 7.721e-05 0)
(0.0008987 7.002e-05 0)
(0.0008838 6.34e-05 0)
(0.0008703 5.732e-05 0)
(0.0008581 5.176e-05 0)
(0.000847 4.667e-05 0)
(0.000837 4.202e-05 0)
(0.0008279 3.779e-05 0)
(0.0008198 3.395e-05 0)
(0.0008124 3.046e-05 0)
(0.0008058 2.731e-05 0)
(0.0007999 2.446e-05 0)
(0.0007945 2.19e-05 0)
(0.0007897 1.961e-05 0)
(0.0007854 1.756e-05 0)
(0.0007815 1.575e-05 0)
(0.0007781 1.415e-05 0)
(0.000775 1.277e-05 0)
(0.0007722 1.158e-05 0)
(0.0007697 1.059e-05 0)
(0.0007674 9.777e-06 0)
(0.0007654 9.146e-06 0)
(0.0007635 8.683e-06 0)
(0.0007618 8.376e-06 0)
(0.0007602 8.204e-06 0)
(0.0007587 8.137e-06 0)
(0.0007573 8.13e-06 0)
(0.001206 9.546e-05 0)
(0.001225 0.0002418 0)
(0.001251 0.0003406 0)
(0.001276 0.0003968 0)
(0.001293 0.0004203 0)
(0.001302 0.0004207 0)
(0.001301 0.0004059 0)
(0.001293 0.0003819 0)
(0.001279 0.0003529 0)
(0.00126 0.0003218 0)
(0.00124 0.0002904 0)
(0.001218 0.0002598 0)
(0.001196 0.0002307 0)
(0.001175 0.0002032 0)
(0.001155 0.0001776 0)
(0.001136 0.0001537 0)
(0.00112 0.0001315 0)
(0.001105 0.0001107 0)
(0.001093 9.131e-05 0)
(0.001083 7.303e-05 0)
(0.001075 5.571e-05 0)
(0.001069 3.919e-05 0)
(0.001066 2.328e-05 0)
(0.001065 7.837e-06 0)
(0.001067 -7.288e-06 0)
(0.001071 -2.223e-05 0)
(0.001077 -3.713e-05 0)
(0.001086 -5.21e-05 0)
(0.001098 -6.724e-05 0)
(0.001112 -8.266e-05 0)
(0.001128 -9.844e-05 0)
(0.001148 -0.0001147 0)
(0.00117 -0.0001314 0)
(0.001196 -0.0001486 0)
(0.001224 -0.0001665 0)
(0.001256 -0.0001848 0)
(0.00129 -0.0002038 0)
(0.001328 -0.0002232 0)
(0.00137 -0.0002431 0)
(0.001415 -0.0002633 0)
(0.001463 -0.0002836 0)
(0.001515 -0.0003039 0)
(0.00157 -0.000324 0)
(0.001629 -0.0003435 0)
(0.001691 -0.000362 0)
(0.001756 -0.0003793 0)
(0.001824 -0.0003949 0)
(0.001894 -0.0004084 0)
(0.001966 -0.0004191 0)
(0.00204 -0.0004268 0)
(0.002115 -0.0004307 0)
(0.00219 -0.0004305 0)
(0.002265 -0.0004256 0)
(0.002339 -0.0004157 0)
(0.00241 -0.0004004 0)
(0.002478 -0.0003794 0)
(0.002542 -0.0003527 0)
(0.002601 -0.0003202 0)
(0.002654 -0.0002822 0)
(0.0027 -0.000239 0)
(0.002738 -0.000191 0)
(0.002768 -0.0001392 0)
(0.002788 -8.448e-05 0)
(0.002798 -2.806e-05 0)
(0.002798 2.87e-05 0)
(0.002788 8.447e-05 0)
(0.002768 0.000138 0)
(0.00274 0.0001883 0)
(0.002703 0.0002344 0)
(0.002658 0.000276 0)
(0.002607 0.0003125 0)
(0.00255 0.0003437 0)
(0.002488 0.0003697 0)
(0.002422 0.0003904 0)
(0.002353 0.0004059 0)
(0.002281 0.0004166 0)
(0.002208 0.0004226 0)
(0.002134 0.0004242 0)
(0.002061 0.000422 0)
(0.001987 0.0004162 0)
(0.001915 0.0004074 0)
(0.001844 0.000396 0)
(0.001776 0.0003825 0)
(0.00171 0.0003672 0)
(0.001646 0.0003507 0)
(0.001586 0.0003332 0)
(0.001528 0.0003152 0)
(0.001474 0.0002969 0)
(0.001422 0.0002786 0)
(0.001374 0.0002604 0)
(0.001329 0.0002426 0)
(0.001287 0.0002254 0)
(0.001248 0.0002088 0)
(0.001211 0.0001928 0)
(0.001178 0.0001777 0)
(0.001147 0.0001634 0)
(0.001118 0.0001498 0)
(0.001092 0.0001372 0)
(0.001067 0.0001253 0)
(0.001045 0.0001143 0)
(0.001025 0.0001041 0)
(0.001007 9.459e-05 0)
(0.0009896 8.584e-05 0)
(0.0009743 7.779e-05 0)
(0.0009603 7.039e-05 0)
(0.0009477 6.36e-05 0)
(0.0009362 5.739e-05 0)
(0.0009258 5.172e-05 0)
(0.0009164 4.655e-05 0)
(0.0009079 4.185e-05 0)
(0.0009002 3.758e-05 0)
(0.0008933 3.371e-05 0)
(0.0008871 3.022e-05 0)
(0.0008815 2.707e-05 0)
(0.0008765 2.425e-05 0)
(0.000872 2.172e-05 0)
(0.000868 1.948e-05 0)
(0.0008644 1.75e-05 0)
(0.0008611 1.577e-05 0)
(0.0008582 1.428e-05 0)
(0.0008556 1.301e-05 0)
(0.0008533 1.196e-05 0)
(0.0008512 1.112e-05 0)
(0.0008492 1.048e-05 0)
(0.0008475 1.002e-05 0)
(0.0008459 9.724e-06 0)
(0.0008444 9.566e-06 0)
(0.000843 9.512e-06 0)
(0.001205 8.419e-05 0)
(0.001221 0.0002181 0)
(0.001245 0.000314 0)
(0.00127 0.0003742 0)
(0.00129 0.0004051 0)
(0.001304 0.0004139 0)
(0.001311 0.0004069 0)
(0.00131 0.0003894 0)
(0.001305 0.0003653 0)
(0.001294 0.0003377 0)
(0.001281 0.0003083 0)
(0.001266 0.0002787 0)
(0.00125 0.0002497 0)
(0.001234 0.0002217 0)
(0.001218 0.000195 0)
(0.001203 0.0001696 0)
(0.001189 0.0001457 0)
(0.001177 0.0001231 0)
(0.001167 0.0001016 0)
(0.001159 8.125e-05 0)
(0.001152 6.176e-05 0)
(0.001148 4.301e-05 0)
(0.001146 2.484e-05 0)
(0.001146 7.107e-06 0)
(0.001148 -1.035e-05 0)
(0.001153 -2.767e-05 0)
(0.00116 -4.499e-05 0)
(0.001169 -6.243e-05 0)
(0.001181 -8.011e-05 0)
(0.001195 -9.815e-05 0)
(0.001212 -0.0001166 0)
(0.001231 -0.0001356 0)
(0.001254 -0.0001552 0)
(0.001279 -0.0001754 0)
(0.001307 -0.0001963 0)
(0.001339 -0.0002179 0)
(0.001373 -0.0002401 0)
(0.001411 -0.0002629 0)
(0.001453 -0.0002862 0)
(0.001497 -0.0003098 0)
(0.001545 -0.0003336 0)
(0.001597 -0.0003574 0)
(0.001652 -0.0003809 0)
(0.00171 -0.0004037 0)
(0.001772 -0.0004254 0)
(0.001837 -0.0004457 0)
(0.001904 -0.0004639 0)
(0.001974 -0.0004796 0)
(0.002046 -0.0004923 0)
(0.00212 -0.0005012 0)
(0.002195 -0.0005058 0)
(0.002269 -0.0005055 0)
(0.002344 -0.0004998 0)
(0.002417 -0.0004882 0)
(0.002488 -0.0004703 0)
(0.002556 -0.0004458 0)
(0.00262 -0.0004145 0)
(0.00268 -0.0003765 0)
(0.002733 -0.000332 0)
(0.002779 -0.0002812 0)
(0.002817 -0.000225 0)
(0.002846 -0.000164 0)
(0.002866 -9.96e-05 0)
(0.002876 -3.311e-05 0)
(0.002876 3.377e-05 0)
(0.002866 9.942e-05 0)
(0.002846 0.0001623 0)
(0.002818 0.0002213 0)
(0.002781 0.0002754 0)
(0.002736 0.000324 0)
(0.002685 0.0003667 0)
(0.002628 0.0004033 0)
(0.002567 0.0004337 0)
(0.002501 0.000458 0)
(0.002432 0.0004763 0)
(0.002361 0.0004889 0)
(0.002289 0.000496 0)
(0.002215 0.0004981 0)
(0.002142 0.0004956 0)
(0.002068 0.000489 0)
(0.001997 0.0004788 0)
(0.001926 0.0004655 0)
(0.001858 0.0004497 0)
(0.001792 0.0004319 0)
(0.001729 0.0004126 0)
(0.001669 0.0003922 0)
(0.001611 0.0003711 0)