/*--------------------------------*- C++ -*----------------------------------*\
  =========                 |
  \\      /  F ield         | OpenFOAM: The Open Source CFD Toolbox
   \\    /   O peration     | Website:  https://openfoam.org
    \\  /    A nd           | Version:  7
     \\/     M anipulation  |
\*---------------------------------------------------------------------------*/
FoamFile
{
    version     2.0;
    format      ascii;
    class       volScalarField;
    location    "359.999473411202814";
    object      Y.K;
}
// * * * * * * * * * * * * * * * * * * * * * * * * * * * * * * * * * * * * * //

dimensions      [0 0 0 0 0 0 0];

internalField   nonuniform List<scalar> 
4096
(
2.197e-68
1.963e-66
-6.685e-67
2.474e-66
-2.017e-67
-7.66e-67
3.381e-67
2.671e-67
-1.705e-67
9.31e-67
-9.052e-66
1.335e-64
-1.84e-63
2.639e-62
-3.437e-61
4.393e-60
-5.374e-59
6.514e-58
-7.661e-57
8.986e-56
-1.011e-54
1.127e-53
-1.25e-52
1.338e-51
-1.364e-50
1.32e-49
-1.261e-48
1.211e-47
-1.131e-46
1.035e-45
-9.257e-45
8.089e-44
-6.756e-43
5.521e-42
-4.334e-41
3.321e-40
-2.418e-39
1.658e-38
-1.092e-37
6.966e-37
-4.186e-36
2.392e-35
-1.303e-34
6.777e-34
-3.371e-33
1.577e-32
-7.085e-32
3.059e-31
-1.195e-30
4.894e-30
-1.27e-29
5.374e-29
7.752e-29
1.011e-27
9.554e-27
4.945e-26
4.677e-25
2.405e-24
2.031e-23
1.012e-22
8.27e-22
2.755e-21
1.013e-20
1.234e-19
1.653e-18
5.111e-18
1.178e-17
2.416e-17
4.651e-17
8.576e-17
1.528e-16
2.644e-16
4.451e-16
7.308e-16
1.172e-15
1.837e-15
2.819e-15
4.239e-15
6.252e-15
9.054e-15
1.288e-14
1.803e-14
2.485e-14
3.375e-14
4.519e-14
5.974e-14
7.801e-14
1.007e-13
1.286e-13
1.626e-13
2.037e-13
2.53e-13
3.116e-13
3.809e-13
4.624e-13
5.576e-13
6.684e-13
7.967e-13
9.445e-13
1.114e-12
1.309e-12
1.53e-12
1.782e-12
2.068e-12
2.391e-12
2.755e-12
3.165e-12
3.625e-12
4.141e-12
4.718e-12
5.363e-12
6.081e-12
6.88e-12
7.768e-12
8.753e-12
9.843e-12
1.105e-11
1.238e-11
1.385e-11
1.547e-11
1.725e-11
1.92e-11
2.133e-11
2.365e-11
2.613e-11
2.872e-11
3.123e-11
3.318e-11
-6.532e-66
3.451e-65
-4.46e-65
5.587e-66
3.224e-65
-2.929e-65
4.548e-67
1.804e-65
-4.666e-66
5.256e-65
-5.299e-64
7.131e-63
-1.03e-61
1.41e-60
-1.839e-59
2.313e-58
-2.832e-57
3.392e-56
-3.993e-55
4.621e-54
-5.257e-53
5.864e-52
-6.394e-51
6.775e-50
-6.952e-49
6.731e-48
-6.459e-47
6.118e-46
-5.701e-45
5.206e-44
-4.645e-43
4.034e-42
-3.398e-41
2.767e-40
-2.171e-39
1.636e-38
-1.181e-37
8.147e-37
-5.359e-36
3.357e-35
-2e-34
1.135e-33
-6.135e-33
3.164e-32
-1.558e-31
7.326e-31
-3.272e-30
1.41e-29
-5.33e-29
2.228e-28
-5.184e-28
2.482e-27
6.047e-27
5.829e-26
5.019e-25
2.896e-24
2.3e-23
1.262e-22
9.234e-22
4.515e-21
3.153e-20
1.045e-19
3.142e-19
1.833e-18
5.394e-18
1.235e-17
2.546e-17
4.932e-17
9.132e-17
1.629e-16
2.814e-16
4.72e-16
7.703e-16
1.226e-15
1.904e-15
2.893e-15
4.305e-15
6.283e-15
9.002e-15
1.268e-14
1.757e-14
2.399e-14
3.23e-14
4.292e-14
5.634e-14
7.312e-14
9.389e-14
1.194e-13
1.503e-13
1.877e-13
2.325e-13
2.858e-13
3.489e-13
4.23e-13
5.098e-13
6.108e-13
7.278e-13
8.63e-13
1.018e-12
1.196e-12
1.4e-12
1.631e-12
1.894e-12
2.192e-12
2.529e-12
2.908e-12
3.334e-12
3.812e-12
4.348e-12
4.947e-12
5.616e-12
6.36e-12
7.188e-12
8.108e-12
9.128e-12
1.026e-11
1.151e-11
1.288e-11
1.44e-11
1.608e-11
1.792e-11
1.993e-11
2.214e-11
2.455e-11
2.716e-11
2.995e-11
3.282e-11
3.549e-11
1.463e-64
-1.02e-63
2.584e-63
-3.533e-63
2.539e-63
-4.279e-64
-9.479e-64
8.683e-64
1.067e-64
2.943e-63
-2.846e-62
3.673e-61
-5.239e-60
7.084e-59
-9.115e-58
1.133e-56
-1.371e-55
1.627e-54
-1.899e-53
2.182e-52
-2.466e-51
2.734e-50
-2.964e-49
3.126e-48
-3.191e-47
3.093e-46
-2.969e-45
2.812e-44
-2.618e-43
2.387e-42
-2.126e-41
1.841e-40
-1.547e-39
1.255e-38
-9.814e-38
7.367e-37
-5.296e-36
3.635e-35
-2.379e-34
1.481e-33
-8.769e-33
4.939e-32
-2.647e-31
1.353e-30
-6.597e-30
3.074e-29
-1.361e-28
5.86e-28
-2.148e-27
9.438e-27
-1.736e-26
1.061e-25
3.777e-25
3.411e-24
2.746e-23
1.67e-22
1.188e-21
6.574e-21
4.242e-20
1.831e-19
9.863e-19
3.087e-18
7.61e-18
1.7e-17
3.563e-17
7.09e-17
1.349e-16
2.464e-16
4.335e-16
7.362e-16
1.21e-15
1.928e-15
2.986e-15
4.501e-15
6.617e-15
9.507e-15
1.337e-14
1.844e-14
2.497e-14
3.327e-14
4.366e-14
5.651e-14
7.225e-14
9.136e-14
1.144e-13
1.419e-13
1.745e-13
2.132e-13
2.586e-13
3.119e-13
3.74e-13
4.462e-13
5.3e-13
6.267e-13
7.381e-13
8.66e-13
1.013e-12
1.18e-12
1.371e-12
1.588e-12
1.834e-12
2.112e-12
2.427e-12
2.781e-12
3.18e-12
3.628e-12
4.13e-12
4.691e-12
5.319e-12
6.018e-12
6.797e-12
7.663e-12
8.625e-12
9.69e-12
1.087e-11
1.217e-11
1.361e-11
1.52e-11
1.695e-11
1.886e-11
2.097e-11
2.328e-11
2.581e-11
2.857e-11
3.157e-11
3.482e-11
3.833e-11
4.217e-11
-2.393e-63
1.904e-62
-6.764e-62
1.488e-61
-2.157e-61
2.087e-61
-1.24e-61
2.654e-62
1.672e-62
1.611e-61
-1.445e-60
1.744e-59
-2.434e-58
3.22e-57
-4.051e-56
4.933e-55
-5.865e-54
6.853e-53
-7.894e-52
8.966e-51
-1.004e-49
1.104e-48
-1.188e-47
1.247e-46
-1.267e-45
1.231e-44
-1.183e-43
1.121e-42
-1.044e-41
9.513e-41
-8.461e-40
7.318e-39
-6.134e-38
4.967e-37
-3.872e-36
2.898e-35
-2.076e-34
1.419e-33
-9.248e-33
5.727e-32
-3.366e-31
1.881e-30
-9.985e-30
5.048e-29
-2.433e-28
1.121e-27
-4.909e-27
2.119e-26
-7.284e-26
3.539e-25
-2.932e-25
3.815e-24
2.82e-23
2.03e-22
1.534e-21
9.342e-21
6.093e-20
2.885e-19
1.489e-18
4.918e-18
1.297e-17
3.093e-17
6.891e-17
1.452e-16
2.908e-16
5.554e-16
1.014e-15
1.776e-15
2.987e-15
4.839e-15
7.567e-15
1.145e-14
1.681e-14
2.398e-14
3.332e-14
4.521e-14
6e-14
7.806e-14
9.974e-14
1.254e-13
1.554e-13
1.901e-13
2.299e-13
2.754e-13
3.271e-13
3.857e-13
4.52e-13
5.268e-13
6.113e-13
7.066e-13
8.141e-13
9.355e-13
1.072e-12
1.227e-12
1.401e-12
1.597e-12
1.818e-12
2.067e-12
2.347e-12
2.662e-12
3.015e-12
3.412e-12
3.856e-12
4.354e-12
4.91e-12
5.531e-12
6.223e-12
6.993e-12
7.85e-12
8.802e-12
9.858e-12
1.103e-11
1.232e-11
1.375e-11
1.533e-11
1.707e-11
1.898e-11
2.109e-11
2.339e-11
2.593e-11
2.869e-11
3.172e-11
3.502e-11
3.862e-11
4.253e-11
4.678e-11
5.142e-11
5.713e-11
3.375e-62
-2.916e-61
1.282e-60
-3.775e-60
7.864e-60
-1.202e-59
1.359e-59
-1.098e-59
5.559e-60
6.898e-60
-6.804e-59
7.553e-58
-1.014e-56
1.293e-55
-1.567e-54
1.846e-53
-2.134e-52
2.436e-51
-2.752e-50
3.076e-49
-3.4e-48
3.697e-47
-3.95e-46
4.121e-45
-4.173e-44
4.074e-43
-3.93e-42
3.732e-41
-3.48e-40
3.174e-39
-2.824e-38
2.442e-37
-2.045e-36
1.655e-35
-1.288e-34
9.627e-34
-6.883e-33
4.694e-32
-3.05e-31
1.88e-30
-1.097e-29
6.083e-29
-3.194e-28
1.594e-27
-7.568e-27
3.432e-26
-1.479e-25
6.441e-25
-1.854e-24
1.127e-23
8.274e-24
1.683e-22
1.578e-21
1.154e-20
8.1e-20
4.311e-19
2.297e-18
8.184e-18
2.354e-17
6.123e-17
1.484e-16
3.385e-16
7.293e-16
1.488e-15
2.882e-15
5.305e-15
9.307e-15
1.56e-14
2.504e-14
3.862e-14
5.735e-14
8.222e-14
1.141e-13
1.538e-13
2.016e-13
2.579e-13
3.225e-13
3.953e-13
4.76e-13
5.641e-13
6.596e-13
7.622e-13
8.721e-13
9.896e-13
1.115e-12
1.25e-12
1.396e-12
1.553e-12
1.724e-12
1.91e-12
2.114e-12
2.339e-12
2.586e-12
2.86e-12
3.164e-12
3.501e-12
3.877e-12
4.295e-12
4.76e-12
5.278e-12
5.855e-12
6.498e-12
7.213e-12
8.009e-12
8.893e-12
9.874e-12
1.096e-11
1.217e-11
1.351e-11
1.498e-11
1.662e-11
1.842e-11
2.04e-11
2.259e-11
2.5e-11
2.764e-11
3.053e-11
3.37e-11
3.717e-11
4.096e-11
4.51e-11
4.96e-11
5.449e-11
5.98e-11
6.556e-11
7.178e-11
7.856e-11
8.755e-11
-4.357e-61
3.971e-60
-2.025e-59
7.338e-59
-1.971e-58
4.066e-58
-6.549e-58
8.207e-58
-7.796e-58
6.246e-58
-2.844e-57
2.912e-56
-3.651e-55
4.38e-54
-4.995e-53
5.59e-52
-6.191e-51
6.83e-50
-7.517e-49
8.236e-48
-8.969e-47
9.638e-46
-1.022e-44
1.062e-43
-1.076e-42
1.06e-41
-1.029e-40
9.828e-40
-9.204e-39
8.424e-38
-7.52e-37
6.521e-36
-5.476e-35
4.439e-34
-3.463e-33
2.592e-32
-1.856e-31
1.267e-30
-8.242e-30
5.068e-29
-2.941e-28
1.62e-27
-8.402e-27
4.135e-26
-1.925e-25
8.542e-25
-3.574e-24
1.586e-23
-1.909e-23
2.871e-22
1.317e-21
9.1e-21
8.985e-20
5.511e-19
3.177e-18
1.249e-17
4.003e-17
1.162e-16
3.133e-16
7.909e-16
1.874e-15
4.175e-15
8.761e-15
1.734e-14
3.243e-14
5.743e-14
9.656e-14
1.546e-13
2.363e-13
3.46e-13
4.867e-13
6.598e-13
8.645e-13
1.098e-12
1.356e-12
1.632e-12
1.92e-12
2.215e-12
2.51e-12
2.802e-12
3.088e-12
3.369e-12
3.645e-12
3.918e-12
4.191e-12
4.468e-12
4.752e-12
5.048e-12
5.362e-12
5.698e-12
6.061e-12
6.457e-12
6.893e-12
7.373e-12
7.906e-12
8.497e-12
9.153e-12
9.883e-12
1.069e-11
1.16e-11
1.26e-11
1.372e-11
1.496e-11
1.633e-11
1.785e-11
1.954e-11
2.141e-11
2.347e-11
2.574e-11
2.825e-11
3.102e-11
3.406e-11
3.74e-11
4.106e-11
4.508e-11
4.948e-11
5.429e-11
5.954e-11
6.527e-11
7.15e-11
7.828e-11
8.563e-11
9.36e-11
1.022e-10
1.115e-10
1.215e-10
1.323e-10
1.474e-10
5.295e-60
-4.998e-59
2.84e-58
-1.204e-57
3.936e-57
-1.021e-56
2.137e-56
-3.616e-56
4.806e-56
-4.308e-56
-7.584e-56
9.274e-55
-1.051e-53
1.134e-52
-1.164e-51
1.196e-50
-1.24e-49
1.307e-48
-1.397e-47
1.505e-46
-1.626e-45
1.735e-44
-1.844e-43
1.925e-42
-1.971e-41
1.976e-40
-1.946e-39
1.881e-38
-1.781e-37
1.646e-36
-1.485e-35
1.3e-34
-1.102e-33
9.015e-33
-7.099e-32
5.364e-31
-3.879e-30
2.674e-29
-1.76e-28
1.085e-27
-6.276e-27
3.458e-26
-1.769e-25
8.616e-25
-3.919e-24
1.695e-23
-6.71e-23
3.04e-22
4.337e-22
9.925e-21
7.333e-20
5.451e-19
3.571e-18
1.581e-17
5.763e-17
1.905e-16
5.84e-16
1.667e-15
4.442e-15
1.105e-14
2.571e-14
5.597e-14
1.142e-13
2.187e-13
3.941e-13
6.695e-13
1.076e-12
1.641e-12
2.383e-12
3.306e-12
4.397e-12
5.625e-12
6.945e-12
8.302e-12
9.642e-12
1.091e-11
1.206e-11
1.309e-11
1.395e-11
1.466e-11
1.524e-11
1.57e-11
1.607e-11
1.637e-11
1.663e-11
1.686e-11
1.71e-11
1.736e-11
1.765e-11
1.8e-11
1.842e-11
1.891e-11
1.95e-11
2.019e-11
2.1e-11
2.193e-11
2.3e-11
2.422e-11
2.56e-11
2.717e-11
2.892e-11
3.089e-11
3.31e-11
3.555e-11
3.828e-11
4.13e-11
4.465e-11
4.836e-11
5.244e-11
5.694e-11
6.189e-11
6.732e-11
7.328e-11
7.98e-11
8.694e-11
9.473e-11
1.032e-10
1.125e-10
1.225e-10
1.335e-10
1.453e-10
1.581e-10
1.719e-10
1.868e-10
2.028e-10
2.201e-10
2.385e-10
2.649e-10
-6.126e-59
5.918e-58
-3.646e-57
1.75e-56
-6.7e-56
2.095e-55
-5.435e-55
1.174e-54
-2.086e-54
3.019e-54
-4.82e-54
2.135e-53
-1.927e-52
1.605e-51
-1.249e-50
1.017e-49
-9.073e-49
9.118e-48
-1.007e-46
1.16e-45
-1.362e-44
1.519e-43
-1.726e-42
1.902e-41
-2.029e-40
2.114e-39
-2.154e-38
2.147e-37
-2.095e-36
1.987e-35
-1.854e-34
1.675e-33
-1.464e-32
1.233e-31
-9.989e-31
7.768e-30
-5.784e-29
4.107e-28
-2.793e-27
1.747e-26
-1.025e-25
5.792e-25
-2.89e-24
1.421e-23
-6.325e-23
2.737e-22
-8.251e-22
4.502e-21
4.164e-20
3.941e-19
3.012e-18
1.529e-17
6.458e-17
2.479e-16
8.8e-16
2.898e-15
8.859e-15
2.515e-14
6.631e-14
1.625e-13
3.704e-13
7.86e-13
1.555e-12
2.875e-12
4.975e-12
8.086e-12
1.239e-11
1.795e-11
2.47e-11
3.239e-11
4.066e-11
4.901e-11
5.695e-11
6.397e-11
6.983e-11
7.418e-11
7.697e-11
7.878e-11
7.87e-11
7.802e-11
7.663e-11
7.47e-11
7.242e-11
7e-11
6.759e-11
6.53e-11
6.321e-11
6.138e-11
5.986e-11
5.865e-11
5.78e-11
5.722e-11
5.714e-11
5.734e-11
5.788e-11
5.877e-11
6.006e-11
6.174e-11
6.382e-11
6.63e-11
6.922e-11
7.259e-11
7.645e-11
8.082e-11
8.574e-11
9.125e-11
9.738e-11
1.042e-10
1.117e-10
1.201e-10
1.292e-10
1.393e-10
1.503e-10
1.624e-10
1.755e-10
1.899e-10
2.055e-10
2.225e-10
2.409e-10
2.609e-10
2.825e-10
3.057e-10
3.308e-10
3.577e-10
3.866e-10
4.176e-10
4.504e-10
4.986e-10
6.754e-58
-6.625e-57
4.345e-56
-2.306e-55
1.007e-54
-3.69e-54
1.15e-53
-3.061e-53
6.84e-53
-1.203e-52
1.236e-52
-3.717e-53
8.508e-52
-2.356e-50
2.925e-49
-3.209e-48
3.156e-47
-2.862e-46
2.416e-45
-1.909e-44
1.354e-43
-1.036e-42
5.751e-42
-1.544e-41
-1.231e-40
3.231e-39
-4.681e-38
5.742e-37
-6.566e-36
6.892e-35
-7.388e-34
7.448e-33
-7.09e-32
6.327e-31
-5.365e-30
4.331e-29
-3.329e-28
2.428e-27
-1.691e-26
1.082e-25
-6.846e-25
4.067e-24
-2.278e-23
1.222e-22
-5.866e-22
3.622e-21
1.513e-21
1.728e-19
1.751e-18
1.051e-17
5.242e-17
2.374e-16
9.921e-16
3.834e-15
1.37e-14
4.524e-14
1.38e-13
3.889e-13
1.013e-12
2.439e-12
5.432e-12
1.121e-11
2.144e-11
3.812e-11
6.315e-11
9.788e-11
1.425e-10
1.957e-10
2.546e-10
3.15e-10
3.725e-10
4.225e-10
4.614e-10
4.861e-10
4.99e-10
4.958e-10
4.849e-10
4.662e-10
4.414e-10
4.131e-10
3.833e-10
3.536e-10
3.251e-10
2.987e-10
2.747e-10
2.534e-10
2.347e-10
2.185e-10
2.047e-10
1.932e-10
1.836e-10
1.76e-10
1.7e-10
1.656e-10
1.626e-10
1.606e-10
1.606e-10
1.613e-10
1.631e-10
1.66e-10
1.701e-10
1.753e-10
1.816e-10
1.891e-10
1.978e-10
2.077e-10
2.19e-10
2.316e-10
2.456e-10
2.613e-10
2.785e-10
2.975e-10
3.184e-10
3.413e-10
3.662e-10
3.934e-10
4.23e-10
4.55e-10
4.898e-10
5.273e-10
5.679e-10
6.115e-10
6.584e-10
7.086e-10
7.624e-10
8.199e-10
8.802e-10
9.707e-10
-7.053e-57
6.982e-56
-4.809e-55
2.773e-54
-1.355e-53
5.7e-53
-2.092e-52
6.733e-52
-1.887e-51
4.413e-51
-7.169e-51
-1.098e-50
1.663e-49
-1.446e-48
1.289e-47
-1.17e-46
1.043e-45
-8.964e-45
7.396e-44
-5.864e-43
4.499e-42
-3.377e-41
2.514e-40
-1.936e-39
1.52e-38
-1.257e-37
1.101e-36
-9.872e-36
8.446e-35
-7.229e-34
5.857e-33
-4.584e-32
3.536e-31
-2.6e-30
1.814e-29
-1.194e-28
7.315e-28
-4.221e-27
2.109e-26
-8.808e-26
2.424e-25
2.846e-26
-1.063e-23
1.406e-22
-7.317e-23
4.791e-20
4.668e-19
4.451e-18
2.875e-17
1.57e-16
7.831e-16
3.601e-15
1.527e-14
5.962e-14
2.143e-13
7.08e-13
2.15e-12
6.002e-12
1.54e-11
3.632e-11
7.882e-11
1.575e-10
2.904e-10
4.949e-10
7.821e-10
1.152e-09
1.59e-09
2.062e-09
2.533e-09
2.951e-09
3.285e-09
3.499e-09
3.577e-09
3.531e-09
3.405e-09
3.204e-09
2.952e-09
2.674e-09
2.39e-09
2.115e-09
1.859e-09
1.628e-09
1.424e-09
1.247e-09
1.095e-09
9.672e-10
8.593e-10
7.693e-10
6.945e-10
6.326e-10
5.818e-10
5.404e-10
5.069e-10
4.802e-10
4.594e-10
4.436e-10
4.323e-10
4.252e-10
4.211e-10
4.217e-10
4.245e-10
4.303e-10
4.39e-10
4.506e-10
4.65e-10
4.823e-10
5.024e-10
5.256e-10
5.518e-10
5.812e-10
6.14e-10
6.503e-10
6.904e-10
7.343e-10
7.823e-10
8.347e-10
8.917e-10
9.535e-10
1.02e-09
1.093e-09
1.17e-09
1.254e-09
1.344e-09
1.44e-09
1.542e-09
1.651e-09
1.765e-09
1.938e-09
6.885e-56
-6.847e-55
4.902e-54
-3.03e-53
1.631e-52
-7.748e-52
3.288e-51
-1.257e-50
4.336e-50
-1.34e-49
3.642e-49
-8.647e-49
2.692e-48
-1.711e-47
1.996e-46
-2.12e-45
1.988e-44
-1.693e-43
1.336e-42
-9.823e-42
6.718e-41
-4.216e-40
2.318e-39
-1.198e-38
2.35e-38
1.579e-37
-2.669e-36
2.46e-35
-2.558e-34
1.488e-33
-7.239e-33
1.18e-32
3.044e-31
-5.511e-30
6.479e-29
-6.348e-28
5.55e-27
-4.438e-26
3.316e-25
-2.311e-24
1.502e-23
-9.372e-23
5.841e-22
-1.946e-21
1.054e-19
1.37e-18
1.053e-17
6.87e-17
4.102e-16
2.262e-15
1.15e-14
5.382e-14
2.312e-13
9.105e-13
3.283e-12
1.083e-11
3.266e-11
9.002e-11
2.268e-10
5.223e-10
1.1e-09
2.122e-09
3.756e-09
6.108e-09
9.174e-09
1.28e-08
1.668e-08
2.041e-08
2.365e-08
2.586e-08
2.708e-08
2.681e-08
2.584e-08
2.414e-08
2.192e-08
1.944e-08
1.69e-08
1.447e-08
1.224e-08
1.027e-08
8.584e-09
7.16e-09
5.978e-09
5.008e-09
4.218e-09
3.577e-09
3.06e-09
2.642e-09
2.306e-09
2.034e-09
1.815e-09
1.639e-09
1.496e-09
1.382e-09
1.292e-09
1.22e-09
1.165e-09
1.123e-09
1.093e-09
1.074e-09
1.063e-09
1.064e-09
1.071e-09
1.084e-09
1.105e-09
1.133e-09
1.167e-09
1.208e-09
1.257e-09
1.312e-09
1.374e-09
1.444e-09
1.521e-09
1.606e-09
1.699e-09
1.802e-09
1.913e-09
2.034e-09
2.164e-09
2.305e-09
2.457e-09
2.619e-09
2.794e-09
2.98e-09
3.178e-09
3.39e-09
3.608e-09
3.944e-09
-6.153e-55
6.119e-54
-4.516e-53
2.959e-52
-1.732e-51
9.153e-51
-4.418e-50
1.965e-49
-8.088e-49
3.064e-48
-1.033e-47
2.714e-47
1.4e-47
-7.502e-46
8.337e-45
-7.555e-44
6.17e-43
-4.785e-42
3.592e-41
-2.606e-40
1.834e-39
-1.246e-38
8.132e-38
-5.009e-37
2.975e-36
-1.67e-35
8.109e-35
-2.232e-34
-1.018e-33
2.699e-32
-3.366e-31
3.394e-30
-3.057e-29
2.548e-28
-1.997e-27
1.484e-26
-1.049e-25
7.092e-25
-4.541e-24
2.809e-23
-1.642e-22
9.643e-22
-3.661e-21
1.571e-19
2.234e-18
1.884e-17
1.364e-16
9.066e-16
5.561e-15
3.142e-14
1.63e-13
7.745e-13
3.363e-12
1.332e-11
4.803e-11
1.576e-10
4.705e-10
1.276e-09
3.145e-09
7.041e-09
1.434e-08
2.657e-08
4.492e-08
6.944e-08
9.868e-08
1.3e-07
1.595e-07
1.842e-07
2.012e-07
2.046e-07
1.999e-07
1.884e-07
1.712e-07
1.508e-07
1.292e-07
1.083e-07
8.917e-08
7.243e-08
5.826e-08
4.659e-08
3.715e-08
2.964e-08
2.372e-08
1.909e-08
1.548e-08
1.266e-08
1.047e-08
8.754e-09
7.411e-09
6.354e-09
5.52e-09
4.859e-09
4.333e-09
3.915e-09
3.582e-09
3.318e-09
3.109e-09
2.947e-09
2.822e-09
2.731e-09
2.667e-09
2.627e-09
2.609e-09
2.615e-09
2.636e-09
2.673e-09
2.728e-09
2.798e-09
2.884e-09
2.985e-09
3.102e-09
3.235e-09
3.384e-09
3.55e-09
3.733e-09
3.933e-09
4.152e-09
4.39e-09
4.647e-09
4.925e-09
5.224e-09
5.544e-09
5.887e-09
6.253e-09
6.643e-09
7.057e-09
7.482e-09
8.142e-09
4.876e-54
-4.83e-53
3.648e-52
-2.509e-51
1.577e-50
-9.146e-50
4.947e-49
-2.522e-48
1.227e-47
-5.768e-47
2.673e-46
-1.256e-45
6.224e-45
-3.389e-44
2.053e-43
-1.412e-42
9.672e-42
-6.704e-41
4.796e-40
-3.368e-39
2.369e-38
-1.641e-37
1.139e-36
-8.17e-36
6.023e-35
-4.533e-34
3.451e-33
-2.636e-32
2.004e-31
-1.507e-30
1.116e-29
-8.098e-29
5.746e-28
-3.974e-27
2.673e-26
-1.745e-25
1.104e-24
-6.727e-24
4.026e-23
-2.244e-22
1.291e-21
-5.18e-21
1.934e-19
3.016e-18
2.796e-17
2.247e-16
1.662e-15
1.136e-14
7.146e-14
4.125e-13
2.177e-12
1.047e-11
4.578e-11
1.816e-10
6.528e-10
2.123e-09
6.241e-09
1.658e-08
3.974e-08
8.603e-08
1.684e-07
2.983e-07
4.793e-07
7.01e-07
9.392e-07
1.164e-06
1.345e-06
1.479e-06
1.474e-06
1.424e-06
1.319e-06
1.174e-06
1.008e-06
8.405e-07
6.831e-07
5.44e-07
4.263e-07
3.303e-07
2.539e-07
1.944e-07
1.488e-07
1.141e-07
8.799e-08
6.835e-08
5.36e-08
4.249e-08
3.41e-08
2.773e-08
2.287e-08
1.913e-08
1.623e-08
1.398e-08
1.222e-08
1.083e-08
9.727e-09
8.857e-09
8.169e-09
7.626e-09
7.202e-09
6.876e-09
6.632e-09
6.457e-09
6.345e-09
6.274e-09
6.277e-09
6.308e-09
6.379e-09
6.488e-09
6.633e-09
6.815e-09
7.032e-09
7.283e-09
7.57e-09
7.892e-09
8.25e-09
8.644e-09
9.076e-09
9.547e-09
1.006e-08
1.061e-08
1.12e-08
1.184e-08
1.252e-08
1.324e-08
1.402e-08
1.483e-08
1.567e-08
1.698e-08
-3.266e-53
3.213e-52
-2.466e-51
1.763e-50
-1.174e-49
7.34e-49
-4.34e-48
2.444e-47
-1.319e-46
6.833e-46
-3.394e-45
1.598e-44
-6.942e-44
2.586e-43
-6.58e-43
-5.162e-42
4.13e-41
-3.707e-40
2.837e-39
-1.791e-38
1.427e-37
-4.247e-37
-1.894e-37
2.473e-35
-3.118e-34
3.062e-33
-2.681e-32
2.192e-31
-1.706e-30
1.277e-29
-9.243e-29
6.488e-28
-4.424e-27
2.93e-26
-1.886e-25
1.179e-24
-7.138e-24
4.231e-23
-2.313e-22
1.376e-21
-5.639e-21
1.938e-19
3.313e-18
3.373e-17
3.006e-16
2.474e-15
1.884e-14
1.322e-13
8.505e-13
4.998e-12
2.672e-11
1.295e-10
5.676e-10
2.244e-09
7.989e-09
2.558e-08
7.36e-08
1.9e-07
4.398e-07
9.137e-07
1.707e-06
2.874e-06
4.369e-06
6.023e-06
7.583e-06
8.847e-06
9.766e-06
9.711e-06
9.317e-06
8.539e-06
7.491e-06
6.323e-06
5.163e-06
4.1e-06
3.181e-06
2.423e-06
1.82e-06
1.353e-06
1.001e-06
7.383e-07
5.454e-07
4.047e-07
3.023e-07
2.28e-07
1.738e-07
1.342e-07
1.05e-07
8.344e-08
6.731e-08
5.515e-08
4.591e-08
3.882e-08
3.334e-08
2.908e-08
2.573e-08
2.31e-08
2.102e-08
1.938e-08
1.808e-08
1.707e-08
1.629e-08
1.57e-08
1.528e-08
1.5e-08
1.482e-08
1.48e-08
1.486e-08
1.5e-08
1.523e-08
1.554e-08
1.594e-08
1.641e-08
1.695e-08
1.758e-08
1.828e-08
1.905e-08
1.991e-08
2.084e-08
2.186e-08
2.296e-08
2.414e-08
2.541e-08
2.677e-08
2.821e-08
2.975e-08
3.138e-08
3.303e-08
3.563e-08
1.756e-52
-1.705e-51
1.321e-50
-9.738e-50
6.816e-49
-4.559e-48
2.937e-47
-1.841e-46
1.136e-45
-6.974e-45
4.309e-44
-2.7e-43
1.721e-42
-1.116e-41
7.394e-41
-4.857e-40
3.226e-39
-2.13e-38
1.414e-37
-9.363e-37
6.196e-36
-4.082e-35
2.683e-34
-1.768e-33
1.161e-32
-7.604e-32
4.958e-31
-3.215e-30
2.069e-29
-1.32e-28
8.327e-28
-5.188e-27
3.185e-26
-1.924e-25
1.14e-24
-6.623e-24
3.774e-23
-2.049e-22
1.251e-21
-4.751e-21
1.562e-19
2.924e-18
3.265e-17
3.218e-16
2.942e-15
2.492e-14
1.948e-13
1.398e-12
9.154e-12
5.449e-11
2.935e-10
1.425e-09
6.217e-09
2.43e-08
8.499e-08
2.655e-07
7.397e-07
1.836e-06
4.059e-06
8.013e-06
1.418e-05
2.254e-05
3.23e-05
4.188e-05
4.948e-05
5.561e-05
5.543e-05
5.324e-05
4.871e-05
4.253e-05
3.561e-05
2.877e-05
2.254e-05
1.721e-05
1.286e-05
9.45e-06
6.858e-06
4.935e-06
3.536e-06
2.532e-06
1.818e-06
1.313e-06
9.565e-07
7.041e-07
5.248e-07
3.967e-07
3.044e-07
2.373e-07
1.881e-07
1.516e-07
1.243e-07
1.036e-07
8.773e-08
7.553e-08
6.604e-08
5.861e-08
5.276e-08
4.814e-08
4.449e-08
4.162e-08
3.937e-08
3.764e-08
3.634e-08
3.54e-08
3.478e-08
3.439e-08
3.435e-08
3.448e-08
3.479e-08
3.53e-08
3.599e-08
3.686e-08
3.79e-08
3.91e-08
4.046e-08
4.199e-08
4.368e-08
4.554e-08
4.757e-08
4.976e-08
5.213e-08
5.466e-08
5.738e-08
6.027e-08
6.333e-08
6.658e-08
6.987e-08
7.507e-08
-6.317e-52
6.176e-51
-4.831e-50
3.612e-49
-2.573e-48
1.745e-47
-1.124e-46
6.865e-46
-3.951e-45
2.123e-44
-1.044e-43
4.486e-43
-1.472e-42
-7.994e-43
7.401e-41
-5.539e-40
4.622e-39
-3.481e-38
2.363e-37
-1.48e-36
8.394e-36
-4.502e-35
1.811e-34
-2.887e-34
-3.478e-33
5.561e-32
-5.604e-31
4.794e-30
-3.752e-29
2.767e-28
-1.952e-27
1.328e-26
-8.748e-26
5.598e-25
-3.484e-24
2.113e-23
-1.236e-22
7.532e-22
-2.345e-21
9.921e-20
2.049e-18
2.508e-17
2.727e-16
2.759e-15
2.593e-14
2.254e-13
1.8e-12
1.314e-11
8.71e-11
5.219e-10
2.812e-09
1.356e-08
5.832e-08
2.23e-07
7.564e-07
2.273e-06
6.042e-06
1.42e-05
2.957e-05
5.477e-05
9.093e-05
0.0001358
0.000183
0.0002228
0.0002527
0.0002605
0.0002521
0.0002323
0.0002039
0.0001715
0.0001387
0.0001086
8.26e-05
6.134e-05
4.464e-05
3.198e-05
2.264e-05
1.591e-05
1.114e-05
7.804e-06
5.487e-06
3.884e-06
2.776e-06
2.007e-06
1.471e-06
1.094e-06
8.272e-07
6.36e-07
4.976e-07
3.961e-07
3.21e-07
2.646e-07
2.219e-07
1.892e-07
1.639e-07
1.442e-07
1.288e-07
1.166e-07
1.07e-07
9.936e-08
9.337e-08
8.869e-08
8.509e-08
8.24e-08
8.048e-08
7.925e-08
7.846e-08
7.85e-08
7.886e-08
7.962e-08
8.08e-08
8.236e-08
8.431e-08
8.661e-08
8.926e-08
9.226e-08
9.561e-08
9.93e-08
1.033e-07
1.077e-07
1.125e-07
1.175e-07
1.23e-07
1.288e-07
1.349e-07
1.414e-07
1.479e-07
1.583e-07
2.52e-51
-2.228e-50
1.684e-49
-1.304e-48
1.019e-47
-7.949e-47
6.122e-46
-4.624e-45
3.413e-44
-2.46e-43
1.733e-42
-1.196e-41
8.101e-41
-5.405e-40
3.562e-39
-2.322e-38
1.501e-37
-9.643e-37
6.159e-36
-3.917e-35
2.483e-34
-1.568e-33
9.872e-33
-6.178e-32
3.837e-31
-2.364e-30
1.445e-29
-8.752e-29
5.253e-28
-3.122e-27
1.836e-26
-1.068e-25
6.137e-25
-3.484e-24
1.953e-23
-1.075e-22
6.027e-22
-2.506e-21
3.537e-20
1.094e-18
1.516e-17
1.818e-16
2.026e-15
2.105e-14
2.026e-13
1.797e-12
1.458e-11
1.076e-10
7.174e-10
4.292e-09
2.292e-08
1.086e-07
4.549e-07
1.677e-06
5.425e-06
1.539e-05
3.831e-05
8.381e-05
0.0001617
0.000277
0.0004274
0.0005977
0.0007566
0.0008755
0.0009457
0.0009291
0.000872
0.0007793
0.0006672
0.0005494
0.0004365
0.0003361
0.0002519
0.0001844
0.0001324
9.349e-05
6.526e-05
4.521e-05
3.121e-05
2.156e-05
1.496e-05
1.045e-05
7.375e-06
5.27e-06
3.82e-06
2.812e-06
2.105e-06
1.604e-06
1.244e-06
9.823e-07
7.899e-07
6.466e-07
5.386e-07
4.563e-07
3.93e-07
3.438e-07
3.052e-07
2.749e-07
2.509e-07
2.318e-07
2.168e-07
2.05e-07
1.958e-07
1.887e-07
1.835e-07
1.799e-07
1.777e-07
1.765e-07
1.768e-07
1.779e-07
1.798e-07
1.826e-07
1.863e-07
1.907e-07
1.958e-07
2.017e-07
2.083e-07
2.156e-07
2.237e-07
2.324e-07
2.419e-07
2.521e-07
2.63e-07
2.745e-07
2.868e-07
2.998e-07
3.129e-07
3.337e-07
1.201e-50
-1.182e-49
9.414e-49
-7.232e-48
5.339e-47
-3.793e-46
2.596e-45
-1.715e-44
1.097e-43
-6.8e-43
4.104e-42
-2.421e-41
1.402e-40
-8.027e-40
4.577e-39
-2.626e-38
1.533e-37
-9.204e-37
5.729e-36
-3.706e-35
2.484e-34
-1.712e-33
1.205e-32
-8.445e-32
5.818e-31
-3.937e-30
2.622e-29
-1.72e-28
1.113e-27
-7.11e-27
4.482e-26
-2.79e-25
1.715e-24
-1.041e-23
6.24e-23
-3.666e-22
2.254e-21
-7.397e-21
3.018e-19
6.947e-18
9.505e-17
1.164e-15
1.329e-14
1.41e-13
1.384e-12
1.246e-11
1.021e-10
7.568e-10
5.032e-09
2.979e-08
1.559e-07
7.172e-07
2.881e-06
1.006e-05
3.043e-05
7.978e-05
0.0001823
0.0003654
0.0006451
0.001008
0.001436
0.001886
0.002247
0.0025
0.002542
0.00246
0.002265
0.001994
0.001695
0.001392
0.001105
0.000851
0.0006382
0.0004673
0.0003351
0.0002361
0.0001642
0.0001133
7.778e-05
5.342e-05
3.683e-05
2.558e-05
1.795e-05
1.275e-05
9.191e-06
6.731e-06
5.015e-06
3.803e-06
2.937e-06
2.31e-06
1.851e-06
1.51e-06
1.253e-06
1.058e-06
9.085e-07
7.923e-07
7.013e-07
6.297e-07
5.73e-07
5.28e-07
4.923e-07
4.64e-07
4.418e-07
4.247e-07
4.118e-07
4.024e-07
3.964e-07
3.923e-07
3.919e-07
3.932e-07
3.963e-07
4.012e-07
4.08e-07
4.163e-07
4.264e-07
4.379e-07
4.51e-07
4.655e-07
4.816e-07
4.99e-07
5.18e-07
5.383e-07
5.601e-07
5.833e-07
6.078e-07
6.339e-07
6.599e-07
7.016e-07
-4.088e-50
3.721e-49
-2.845e-48
2.185e-47
-1.668e-46
1.261e-45
-9.413e-45
6.911e-44
-4.984e-43
3.527e-42
-2.451e-41
1.673e-40
-1.123e-39
7.424e-39
-4.842e-38
3.121e-37
-1.99e-36
1.257e-35
-7.88e-35
4.903e-34
-3.031e-33
1.862e-32
-1.138e-31
6.904e-31
-4.162e-30
2.493e-29
-1.485e-28
8.789e-28
-5.174e-27
3.028e-26
-1.763e-25
1.02e-24
-5.873e-24
3.364e-23
-1.91e-22
1.111e-21
-4.901e-21
7.953e-20
2.589e-18
3.926e-17
5.241e-16
6.538e-15
7.614e-14
8.226e-13
8.182e-12
7.435e-11
6.119e-10
4.522e-09
2.974e-08
1.725e-07
8.752e-07
3.853e-06
1.461e-05
4.745e-05
0.0001315
0.0003121
0.0006438
0.001173
0.001881
0.002662
0.003489
0.004386
0.004994
0.005189
0.005121
0.004887
0.004464
0.003936
0.003385
0.002823
0.002274
0.001778
0.001354
0.001005
0.0007284
0.0005177
0.0003624
0.000251
0.0001729
0.000119
8.214e-05
5.708e-05
4.006e-05
2.846e-05
2.051e-05
1.502e-05
1.119e-05
8.488e-06
6.555e-06
5.156e-06
4.13e-06
3.369e-06
2.796e-06
2.36e-06
2.025e-06
1.765e-06
1.562e-06
1.401e-06
1.274e-06
1.173e-06
1.092e-06
1.028e-06
9.774e-07
9.38e-07
9.08e-07
8.858e-07
8.705e-07
8.611e-07
8.566e-07
8.582e-07
8.632e-07
8.721e-07
8.847e-07
9.008e-07
9.203e-07
9.43e-07
9.689e-07
9.978e-07
1.03e-06
1.065e-06
1.102e-06
1.143e-06
1.187e-06
1.233e-06
1.282e-06
1.334e-06
1.386e-06
1.469e-06
-1.064e-49
1.038e-48
-8.301e-48
6.482e-47
-4.916e-46
3.62e-45
-2.592e-44
1.806e-43
-1.228e-42
8.169e-42
-5.33e-41
3.422e-40
-2.169e-39
1.361e-38
-8.49e-38
5.275e-37
-3.274e-36
2.035e-35
-1.268e-34
7.939e-34
-4.995e-33
3.161e-32
-2.013e-31
1.277e-30
-8.044e-30
5.038e-29
-3.138e-28
1.944e-27
-1.199e-26
7.358e-26
-4.498e-25
2.74e-24
-1.663e-23
1.007e-22
-6.046e-22
3.804e-21
-1.448e-20
4.883e-19
1.238e-17
1.86e-16
2.525e-15
3.206e-14
3.794e-13
4.153e-12
4.168e-11
3.803e-10
3.124e-09
2.286e-08
1.475e-07
8.304e-07
4.036e-06
1.677e-05
5.912e-05
0.0001756
0.0004377
0.0009269
0.00171
0.002833
0.004146
0.005425
0.006469
0.008164
0.009983
0.01017
0.01007
0.009545
0.007708
0.006395
0.005559
0.004757
0.003917
0.003137
0.002449
0.001861
0.001376
0.0009947
0.0007063
0.0004953
0.0003448
0.0002394
0.0001665
0.0001165
8.225e-05
5.877e-05
4.258e-05
3.133e-05
2.345e-05
1.786e-05
1.384e-05
1.093e-05
8.785e-06
7.188e-06
5.983e-06
5.064e-06
4.356e-06
3.804e-06
3.371e-06
3.028e-06
2.756e-06
2.539e-06
2.366e-06
2.227e-06
2.118e-06
2.032e-06
1.966e-06
1.917e-06
1.882e-06
1.861e-06
1.847e-06
1.849e-06
1.858e-06
1.874e-06
1.898e-06
1.929e-06
1.967e-06
2.012e-06
2.064e-06
2.121e-06
2.185e-06
2.255e-06
2.33e-06
2.412e-06
2.499e-06
2.591e-06
2.689e-06
2.793e-06
2.896e-06
3.062e-06
2.111e-49
-1.953e-48
1.509e-47
-1.162e-46
8.853e-46
-6.649e-45
4.916e-44
-3.573e-43
2.551e-42
-1.788e-41
1.232e-40
-8.339e-40
5.556e-39
-3.646e-38
2.36e-37
-1.509e-36
9.546e-36
-5.979e-35
3.714e-34
-2.29e-33
1.403e-32
-8.546e-32
5.183e-31
-3.12e-30
1.869e-29
-1.115e-28
6.628e-28
-3.93e-27
2.326e-26
-1.375e-25
8.125e-25
-4.803e-24
2.844e-23
-1.681e-22
1.03e-21
-4.6e-21
9.609e-20
3.214e-18
5.269e-17
7.723e-16
1.063e-14
1.37e-13
1.641e-12
1.812e-11
1.827e-10
1.666e-09
1.359e-08
9.787e-08
6.151e-07
3.33e-06
1.534e-05
5.942e-05
0.0001919
0.0005143
0.001141
0.002145
0.003542
0.005379
0.00733
0.01002
0.01048
0.01019
0.01113
0.01334
0.01074
0.01048
0.009966
0.01044
0.009758
0.007582
0.006013
0.004892
0.003919
0.003051
0.002306
0.001701
0.00123
0.000878
0.000621
0.0004375
0.0003085
0.0002185
0.000156
0.0001126
8.242e-05
6.122e-05
4.621e-05
3.548e-05
2.773e-05
2.205e-05
1.784e-05
1.469e-05
1.23e-05
1.046e-05
9.043e-06
7.932e-06
7.056e-06
6.36e-06
5.805e-06
5.361e-06
5.006e-06
4.722e-06
4.496e-06
4.318e-06
4.181e-06
4.078e-06
4.004e-06
3.959e-06
3.928e-06
3.931e-06
3.946e-06
3.978e-06
4.025e-06
4.087e-06
4.163e-06
4.252e-06
4.355e-06
4.47e-06
4.597e-06
4.736e-06
4.887e-06
5.05e-06
5.223e-06
5.408e-06
5.602e-06
5.809e-06
6.013e-06
6.342e-06
3.24e-49
-3.164e-48
2.547e-47
-2.011e-46
1.549e-45
-1.163e-44
8.515e-44
-6.081e-43
4.242e-42
-2.897e-41
1.94e-40
-1.277e-39
8.287e-39
-5.312e-38
3.372e-37
-2.125e-36
1.332e-35
-8.323e-35
5.193e-34
-3.24e-33
2.023e-32
-1.267e-31
7.948e-31
-4.973e-30
3.096e-29
-1.92e-28
1.187e-27
-7.325e-27
4.517e-26
-2.785e-25
1.72e-24
-1.064e-23
6.613e-23
-4.101e-22
2.714e-21
-9.484e-21
4.222e-19
1.159e-17
1.89e-16
2.805e-15
3.911e-14
5.098e-13
6.162e-12
6.843e-11
6.911e-10
6.274e-09
5.056e-08
3.567e-07
2.17e-06
1.121e-05
4.846e-05
0.000173
0.0005064
0.001215
0.0024
0.004048
0.006105
0.008573
0.009725
0.01178
0.0109
0.01011
0.01012
0.01008
0.01011
0.01022
0.009974
0.01131
0.01097
0.009929
0.009224
0.007167
0.005788
0.004575
0.003513
0.002636
0.001944
0.001415
0.001021
0.0007327
0.0005258
0.0003787
0.0002748
0.0002014
0.0001494
0.0001125
8.599e-05
6.681e-05
5.279e-05
4.242e-05
3.467e-05
2.88e-05
2.432e-05
2.085e-05
1.815e-05
1.602e-05
1.434e-05
1.299e-05
1.191e-05
1.105e-05
1.035e-05
9.795e-06
9.351e-06
9.001e-06
8.731e-06
8.529e-06
8.384e-06
8.295e-06
8.236e-06
8.243e-06
8.276e-06
8.34e-06
8.436e-06
8.561e-06
8.715e-06
8.895e-06
9.101e-06
9.332e-06
9.587e-06
9.865e-06
1.017e-05
1.049e-05
1.083e-05
1.12e-05
1.159e-05
1.199e-05
1.24e-05
1.304e-05
-5.553e-49
5.122e-48
-3.951e-47
3.043e-46
-2.32e-45
1.746e-44
-1.295e-43
9.453e-43
-6.781e-42
4.78e-41
-3.31e-40
2.253e-39
-1.508e-38
9.935e-38
-6.448e-37
4.128e-36
-2.61e-35
1.631e-34
-1.009e-33
6.188e-33
-3.766e-32
2.277e-31
-1.369e-30
8.171e-30
-4.863e-29
2.888e-28
-1.714e-27
1.018e-26
-6.055e-26
3.613e-25
-2.166e-24
1.306e-23
-7.912e-23
4.982e-22
-2.255e-21
6.045e-20
2.127e-18
3.752e-17
5.965e-16
8.942e-15
1.26e-13
1.657e-12
2.016e-11
2.246e-10
2.264e-09
2.041e-08
1.62e-07
1.115e-06
6.535e-06
3.202e-05
0.0001289
0.0004201
0.001104
0.002367
0.004234
0.006659
0.01009
0.01001
0.009983
0.01006
0.01001
0.009969
0.009969
0.009969
0.009969
0.009969
0.009969
0.009997
0.01017
0.009982
0.01025
0.01041
0.008426
0.006432
0.00495
0.003766
0.002829
0.002101
0.001547
0.001135
0.0008313
0.000611
0.000452
0.0003375
0.0002549
0.0001952
0.0001516
0.0001196
9.588e-05
7.809e-05
6.463e-05
5.433e-05
4.637e-05
4.016e-05
3.528e-05
3.141e-05
2.832e-05
2.584e-05
2.385e-05
2.224e-05
2.094e-05
1.99e-05
1.907e-05
1.842e-05
1.792e-05
1.754e-05
1.728e-05
1.712e-05
1.703e-05
1.706e-05
1.714e-05
1.728e-05
1.748e-05