/*--------------------------------*- C++ -*----------------------------------*\
  =========                 |
  \\      /  F ield         | OpenFOAM: The Open Source CFD Toolbox
   \\    /   O peration     | Website:  https://openfoam.org
    \\  /    A nd           | Version:  7
     \\/     M anipulation  |
\*---------------------------------------------------------------------------*/
FoamFile
{
    version     2.0;
    format      ascii;
    class       volScalarField;
    location    "1919.99947343015674";
    object      p;
}
// * * * * * * * * * * * * * * * * * * * * * * * * * * * * * * * * * * * * * //

dimensions      [0 2 -2 0 0 0 0];

internalField   nonuniform List<scalar> 
4096
(
0.0005762
0.0004053
0.0003211
0.0002789
0.0002555
0.0002416
0.0002327
0.0002266
0.0002222
0.0002189
0.0002164
0.0002144
0.0002127
0.0002113
0.0002102
0.0002092
0.0002083
0.0002075
0.0002068
0.0002061
0.0002055
0.0002049
0.0002044
0.0002039
0.0002034
0.0002029
0.0002024
0.0002019
0.0002014
0.000201
0.0002005
0.0002
0.0001995
0.000199
0.0001984
0.0001979
0.0001973
0.0001966
0.0001959
0.0001951
0.0001943
0.0001933
0.0001923
0.0001911
0.0001897
0.0001882
0.0001866
0.0001846
0.0001825
0.0001801
0.0001774
0.0001744
0.0001711
0.0001674
0.0001634
0.0001591
0.0001544
0.0001493
0.0001439
0.0001383
0.0001324
0.0001263
0.00012
0.0001136
0.0001072
0.0001009
9.456e-05
8.841e-05
8.243e-05
7.668e-05
7.118e-05
6.597e-05
6.106e-05
5.646e-05
5.219e-05
4.823e-05
4.46e-05
4.127e-05
3.824e-05
3.549e-05
3.301e-05
3.078e-05
2.877e-05
2.698e-05
2.537e-05
2.393e-05
2.264e-05
2.149e-05
2.045e-05
1.951e-05
1.866e-05
1.788e-05
1.717e-05
1.651e-05
1.589e-05
1.531e-05
1.475e-05
1.423e-05
1.372e-05
1.322e-05
1.274e-05
1.227e-05
1.18e-05
1.133e-05
1.087e-05
1.042e-05
9.958e-06
9.499e-06
9.04e-06
8.579e-06
8.116e-06
7.651e-06
7.184e-06
6.714e-06
6.242e-06
5.766e-06
5.288e-06
4.807e-06
4.322e-06
3.835e-06
3.345e-06
2.854e-06
2.361e-06
1.869e-06
1.38e-06
9.02e-07
4.463e-07
8.767e-08
0.0004317
0.000368
0.0003182
0.0002862
0.0002652
0.0002509
0.0002409
0.0002335
0.0002281
0.0002238
0.0002205
0.0002178
0.0002156
0.0002138
0.0002123
0.000211
0.0002098
0.0002088
0.0002079
0.000207
0.0002062
0.0002055
0.0002048
0.0002042
0.0002036
0.000203
0.0002024
0.0002018
0.0002012
0.0002007
0.0002001
0.0001995
0.0001989
0.0001982
0.0001976
0.0001969
0.0001962
0.0001954
0.0001946
0.0001937
0.0001927
0.0001916
0.0001904
0.0001891
0.0001877
0.0001861
0.0001843
0.0001823
0.0001801
0.0001776
0.0001749
0.0001719
0.0001686
0.000165
0.0001611
0.0001568
0.0001522
0.0001474
0.0001422
0.0001368
0.0001312
0.0001253
0.0001194
0.0001133
0.0001073
0.0001012
9.521e-05
8.935e-05
8.365e-05
7.814e-05
7.287e-05
6.786e-05
6.311e-05
5.865e-05
5.448e-05
5.06e-05
4.701e-05
4.37e-05
4.067e-05
3.79e-05
3.538e-05
3.309e-05
3.101e-05
2.914e-05
2.744e-05
2.59e-05
2.451e-05
2.325e-05
2.211e-05
2.107e-05
2.011e-05
1.923e-05
1.842e-05
1.766e-05
1.695e-05
1.628e-05
1.565e-05
1.505e-05
1.447e-05
1.39e-05
1.336e-05
1.283e-05
1.231e-05
1.18e-05
1.129e-05
1.079e-05
1.029e-05
9.802e-06
9.311e-06
8.822e-06
8.334e-06
7.846e-06
7.358e-06
6.869e-06
6.38e-06
5.89e-06
5.399e-06
4.907e-06
4.413e-06
3.919e-06
3.423e-06
2.927e-06
2.431e-06
1.937e-06
1.448e-06
9.662e-07
4.997e-07
1.098e-07
0.0003483
0.0003266
0.0003011
0.0002804
0.0002649
0.0002531
0.0002441
0.0002371
0.0002316
0.0002271
0.0002235
0.0002205
0.000218
0.0002159
0.0002141
0.0002125
0.0002111
0.0002099
0.0002088
0.0002078
0.0002069
0.0002061
0.0002053
0.0002045
0.0002038
0.0002031
0.0002024
0.0002017
0.000201
0.0002003
0.0001997
0.000199
0.0001983
0.0001975
0.0001968
0.000196
0.0001951
0.0001943
0.0001933
0.0001923
0.0001912
0.00019
0.0001887
0.0001873
0.0001858
0.0001841
0.0001822
0.0001801
0.0001779
0.0001754
0.0001726
0.0001696
0.0001664
0.0001628
0.000159
0.0001548
0.0001504
0.0001457
0.0001407
0.0001355
0.0001301
0.0001245
0.0001188
0.0001131
0.0001073
0.0001015
9.575e-05
9.015e-05
8.469e-05
7.941e-05
7.434e-05
6.95e-05
6.491e-05
6.058e-05
5.651e-05
5.271e-05
4.917e-05
4.59e-05
4.288e-05
4.01e-05
3.755e-05
3.521e-05
3.308e-05
3.114e-05
2.937e-05
2.775e-05
2.627e-05
2.492e-05
2.369e-05
2.255e-05
2.15e-05
2.053e-05
1.963e-05
1.878e-05
1.799e-05
1.724e-05
1.653e-05
1.585e-05
1.521e-05
1.458e-05
1.398e-05
1.339e-05
1.282e-05
1.226e-05
1.171e-05
1.117e-05
1.063e-05
1.011e-05
9.587e-06
9.069e-06
8.556e-06
8.045e-06
7.536e-06
7.029e-06
6.524e-06
6.019e-06
5.515e-06
5.011e-06
4.508e-06
4.005e-06
3.502e-06
3e-06
2.498e-06
1.999e-06
1.503e-06
1.011e-06
5.278e-07
1.133e-07
0.0003035
0.0002965
0.0002831
0.0002699
0.0002591
0.0002503
0.0002432
0.0002373
0.0002324
0.0002283
0.0002248
0.0002219
0.0002193
0.0002171
0.0002152
0.0002136
0.0002121
0.0002108
0.0002095
0.0002084
0.0002074
0.0002065
0.0002056
0.0002047
0.0002039
0.0002031
0.0002023
0.0002016
0.0002008
0.0002
0.0001993
0.0001985
0.0001977
0.0001969
0.000196
0.0001952
0.0001942
0.0001933
0.0001922
0.0001911
0.0001899
0.0001887
0.0001873
0.0001858
0.0001842
0.0001824
0.0001805
0.0001784
0.000176
0.0001735
0.0001708
0.0001678
0.0001646
0.0001611
0.0001573
0.0001532
0.0001489
0.0001444
0.0001395
0.0001345
0.0001293
0.0001239
0.0001184
0.0001128
0.0001072
0.0001017
9.614e-05
9.074e-05
8.547e-05
8.038e-05
7.547e-05
7.078e-05
6.632e-05
6.21e-05
5.813e-05
5.44e-05
5.092e-05
4.768e-05
4.468e-05
4.19e-05
3.934e-05
3.698e-05
3.482e-05
3.283e-05
3.1e-05
2.932e-05
2.778e-05
2.636e-05
2.505e-05
2.384e-05
2.272e-05
2.167e-05
2.07e-05
1.978e-05
1.892e-05
1.81e-05
1.732e-05
1.659e-05
1.588e-05
1.52e-05
1.454e-05
1.39e-05
1.329e-05
1.268e-05
1.209e-05
1.152e-05
1.095e-05
1.039e-05
9.844e-06
9.301e-06
8.764e-06
8.232e-06
7.704e-06
7.18e-06
6.659e-06
6.141e-06
5.624e-06
5.11e-06
4.597e-06
4.085e-06
3.574e-06
3.065e-06
2.556e-06
2.049e-06
1.544e-06
1.041e-06
5.405e-07
1.104e-07
0.0002766
0.0002756
0.0002687
0.0002601
0.0002523
0.0002457
0.0002402
0.0002355
0.0002315
0.000228
0.0002249
0.0002222
0.0002198
0.0002177
0.0002158
0.0002141
0.0002126
0.0002113
0.00021
0.0002088
0.0002078
0.0002067
0.0002058
0.0002049
0.000204
0.0002031
0.0002023
0.0002014
0.0002006
0.0001998
0.0001989
0.0001981
0.0001972
0.0001963
0.0001954
0.0001944
0.0001934
0.0001924
0.0001913
0.0001901
0.0001888
0.0001875
0.0001861
0.0001845
0.0001828
0.000181
0.000179
0.0001769
0.0001746
0.0001721
0.0001693
0.0001664
0.0001632
0.0001597
0.000156
0.000152
0.0001478
0.0001433
0.0001386
0.0001337
0.0001286
0.0001234
0.000118
0.0001126
0.0001072
0.0001018
9.641e-05
9.116e-05
8.604e-05
8.109e-05
7.632e-05
7.176e-05
6.741e-05
6.328e-05
5.939e-05
5.573e-05
5.23e-05
4.91e-05
4.612e-05
4.335e-05
4.079e-05
3.842e-05
3.624e-05
3.422e-05
3.236e-05
3.064e-05
2.905e-05
2.758e-05
2.621e-05
2.494e-05
2.376e-05
2.266e-05
2.162e-05
2.064e-05
1.972e-05
1.885e-05
1.802e-05
1.723e-05
1.647e-05
1.574e-05
1.504e-05
1.436e-05
1.37e-05
1.306e-05
1.244e-05
1.183e-05
1.124e-05
1.065e-05
1.008e-05
9.511e-06
8.953e-06
8.402e-06
7.857e-06
7.318e-06
6.783e-06
6.252e-06
5.724e-06
5.199e-06
4.677e-06
4.157e-06
3.638e-06
3.121e-06
2.605e-06
2.09e-06
1.576e-06
1.062e-06
5.483e-07
1.071e-07
0.0002593
0.0002608
0.0002574
0.0002518
0.0002461
0.000241
0.0002367
0.0002329
0.0002296
0.0002267
0.0002241
0.0002217
0.0002196
0.0002177
0.0002159
0.0002143
0.0002128
0.0002115
0.0002102
0.000209
0.0002079
0.0002069
0.0002059
0.0002049
0.000204
0.0002031
0.0002022
0.0002013
0.0002004
0.0001995
0.0001986
0.0001977
0.0001968
0.0001958
0.0001948
0.0001938
0.0001928
0.0001917
0.0001905
0.0001893
0.0001879
0.0001866
0.0001851
0.0001835
0.0001817
0.0001799
0.0001779
0.0001757
0.0001734
0.0001709
0.0001682
0.0001652
0.0001621
0.0001587
0.000155
0.0001511
0.000147
0.0001426
0.000138
0.0001332
0.0001282
0.000123
0.0001178
0.0001124
0.0001071
0.0001018
9.657e-05
9.143e-05
8.643e-05
8.159e-05
7.693e-05
7.246e-05
6.82e-05
6.415e-05
6.033e-05
5.673e-05
5.334e-05
5.018e-05
4.723e-05
4.448e-05
4.193e-05
3.956e-05
3.737e-05
3.534e-05
3.345e-05
3.17e-05
3.008e-05
2.857e-05
2.717e-05
2.586e-05
2.463e-05
2.348e-05
2.24e-05
2.137e-05
2.041e-05
1.949e-05
1.861e-05
1.778e-05
1.698e-05
1.621e-05
1.547e-05
1.476e-05
1.406e-05
1.339e-05
1.274e-05
1.21e-05
1.148e-05
1.088e-05
1.028e-05
9.694e-06
9.118e-06
8.551e-06
7.991e-06
7.438e-06
6.891e-06
6.349e-06
5.811e-06
5.278e-06
4.747e-06
4.219e-06
3.694e-06
3.17e-06
2.647e-06
2.124e-06
1.602e-06
1.079e-06
5.545e-07
1.047e-07
0.0002474
0.0002498
0.0002485
0.0002449
0.0002407
0.0002367
0.0002332
0.0002302
0.0002275
0.000225
0.0002228
0.0002208
0.0002189
0.0002172
0.0002156
0.0002141
0.0002127
0.0002114
0.0002102
0.000209
0.0002079
0.0002069
0.0002059
0.0002049
0.0002039
0.000203
0.000202
0.0002011
0.0002002
0.0001993
0.0001983
0.0001974
0.0001964
0.0001954
0.0001944
0.0001933
0.0001922
0.0001911
0.0001899
0.0001886
0.0001872
0.0001858
0.0001843
0.0001827
0.0001809
0.000179
0.000177
0.0001749
0.0001726
0.00017
0.0001673
0.0001644
0.0001613
0.0001579
0.0001543
0.0001505
0.0001464
0.0001421
0.0001375
0.0001328
0.0001278
0.0001227
0.0001175
0.0001123
0.000107
0.0001018
9.663e-05
9.158e-05
8.666e-05
8.19e-05
7.732e-05
7.293e-05
6.874e-05
6.476e-05
6.099e-05
5.743e-05
5.41e-05
5.097e-05
4.804e-05
4.532e-05
4.278e-05
4.042e-05
3.822e-05
3.619e-05
3.429e-05
3.253e-05
3.089e-05
2.936e-05
2.793e-05
2.658e-05
2.533e-05
2.414e-05
2.302e-05
2.196e-05
2.096e-05
2.001e-05
1.91e-05
1.823e-05
1.739e-05
1.659e-05
1.582e-05
1.508e-05
1.436e-05
1.366e-05
1.299e-05
1.233e-05
1.169e-05
1.106e-05
1.045e-05
9.845e-06
9.255e-06
8.674e-06
8.102e-06
7.538e-06
6.98e-06
6.429e-06
5.884e-06
5.342e-06
4.805e-06
4.271e-06
3.739e-06
3.21e-06
2.681e-06
2.153e-06
1.624e-06
1.094e-06
5.605e-07
1.036e-07
0.0002388
0.0002415
0.0002414
0.0002391
0.0002361
0.000233
0.0002301
0.0002275
0.0002253
0.0002232
0.0002213
0.0002196
0.000218
0.0002164
0.000215
0.0002137
0.0002124
0.0002112
0.00021
0.0002089
0.0002078
0.0002068
0.0002058
0.0002048
0.0002038
0.0002029
0.0002019
0.000201
0.0002
0.0001991
0.0001981
0.0001971
0.0001961
0.0001951
0.0001941
0.000193
0.0001918
0.0001906
0.0001894
0.0001881
0.0001867
0.0001853
0.0001837
0.0001821
0.0001803
0.0001784
0.0001764
0.0001743
0.000172
0.0001695
0.0001668
0.0001639
0.0001608
0.0001575
0.0001539
0.0001501
0.000146
0.0001418
0.0001372
0.0001325
0.0001276
0.0001225
0.0001174
0.0001122
0.0001069
0.0001017
9.661e-05
9.16e-05
8.674e-05
8.204e-05
7.752e-05
7.318e-05
6.904e-05
6.511e-05
6.139e-05
5.787e-05
5.457e-05
5.147e-05
4.857e-05
4.587e-05
4.335e-05
4.1e-05
3.882e-05
3.679e-05
3.489e-05
3.313e-05
3.148e-05
2.993e-05
2.849e-05
2.713e-05
2.585e-05
2.464e-05
2.35e-05
2.241e-05
2.138e-05
2.04e-05
1.947e-05
1.857e-05
1.771e-05
1.689e-05
1.61e-05
1.533e-05
1.459e-05
1.388e-05
1.318e-05
1.25e-05
1.185e-05
1.12e-05
1.058e-05
9.962e-06
9.36e-06
8.769e-06
8.187e-06
7.614e-06
7.049e-06
6.491e-06
5.939e-06
5.392e-06
4.85e-06
4.311e-06
3.775e-06
3.241e-06
2.708e-06
2.175e-06
1.642e-06
1.107e-06
5.668e-07
1.043e-07
0.0002323
0.000235
0.0002355
0.0002343
0.0002321
0.0002297
0.0002273
0.0002251
0.0002232
0.0002214
0.0002198
0.0002183
0.0002169
0.0002155
0.0002143
0.0002131
0.0002119
0.0002108
0.0002097
0.0002086
0.0002076
0.0002066
0.0002056
0.0002046
0.0002037
0.0002027
0.0002018
0.0002008
0.0001999
0.0001989
0.0001979
0.0001969
0.0001959
0.0001949
0.0001938
0.0001927
0.0001915
0.0001903
0.0001891
0.0001877
0.0001864
0.0001849
0.0001833
0.0001817
0.0001799
0.0001781
0.0001761
0.0001739
0.0001716
0.0001691
0.0001665
0.0001636
0.0001606
0.0001573
0.0001537
0.0001499
0.0001459
0.0001416
0.0001371
0.0001324
0.0001275
0.0001224
0.0001173
0.000112
0.0001068
0.0001016
9.65e-05
9.152e-05
8.668e-05
8.202e-05
7.753e-05
7.323e-05
6.913e-05
6.523e-05
6.154e-05
5.805e-05
5.478e-05
5.171e-05
4.884e-05
4.616e-05
4.366e-05
4.133e-05
3.916e-05
3.714e-05
3.526e-05
3.35e-05
3.185e-05
3.031e-05
2.885e-05
2.749e-05
2.62e-05
2.498e-05
2.382e-05
2.272e-05
2.168e-05
2.068e-05
1.973e-05
1.881e-05
1.794e-05
1.71e-05
1.629e-05
1.551e-05
1.475e-05
1.402e-05
1.331e-05
1.263e-05
1.196e-05
1.13e-05
1.067e-05
1.004e-05
9.432e-06
8.834e-06
8.245e-06
7.667e-06
7.096e-06
6.533e-06
5.977e-06
5.426e-06
4.88e-06
4.339e-06
3.8e-06
3.263e-06
2.728e-06
2.193e-06
1.656e-06
1.118e-06
5.738e-07
1.066e-07
0.0002272
0.0002297
0.0002307
0.0002301
0.0002286
0.0002268
0.0002248
0.000223
0.0002213
0.0002198
0.0002183
0.000217
0.0002158
0.0002146
0.0002135
0.0002124
0.0002113
0.0002103
0.0002093
0.0002083
0.0002073
0.0002063
0.0002054
0.0002044
0.0002035
0.0002026
0.0002016
0.0002007
0.0001998
0.0001988
0.0001978
0.0001968
0.0001958
0.0001947
0.0001937
0.0001925
0.0001914
0.0001902
0.0001889
0.0001876
0.0001862
0.0001847
0.0001832
0.0001815
0.0001798
0.0001779
0.0001759
0.0001738
0.0001715
0.0001691
0.0001664
0.0001636
0.0001606
0.0001573
0.0001538
0.00015
0.000146
0.0001417
0.0001372
0.0001324
0.0001275
0.0001224
0.0001172
0.0001119
0.0001066
0.0001014
9.63e-05
9.132e-05
8.65e-05
8.184e-05
7.737e-05
7.309e-05
6.9e-05
6.512e-05
6.145e-05
5.799e-05
5.473e-05
5.168e-05
4.883e-05
4.618e-05
4.371e-05
4.141e-05
3.926e-05
3.726e-05
3.54e-05
3.365e-05
3.201e-05
3.048e-05
2.903e-05
2.767e-05
2.638e-05
2.515e-05
2.399e-05
2.289e-05
2.184e-05
2.083e-05
1.987e-05
1.895e-05
1.806e-05
1.721e-05
1.64e-05
1.561e-05
1.484e-05
1.41e-05
1.339e-05
1.269e-05
1.201e-05
1.136e-05
1.071e-05
1.008e-05
9.47e-06
8.867e-06
8.275e-06
7.693e-06
7.12e-06
6.554e-06
5.996e-06
5.444e-06
4.896e-06
4.353e-06
3.814e-06
3.276e-06
2.74e-06
2.204e-06
1.667e-06
1.127e-06
5.818e-07
1.11e-07
0.0002232
0.0002255
0.0002267
0.0002265
0.0002256
0.0002242
0.0002226
0.0002211
0.0002196
0.0002183
0.000217
0.0002158
0.0002147
0.0002137
0.0002126
0.0002116
0.0002107
0.0002097
0.0002088
0.0002079
0.000207
0.0002061
0.0002051
0.0002042
0.0002033
0.0002024
0.0002015
0.0002006
0.0001997
0.0001987
0.0001977
0.0001968
0.0001957
0.0001947
0.0001936
0.0001925
0.0001913
0.0001901
0.0001889
0.0001876
0.0001862
0.0001847
0.0001832
0.0001816
0.0001799
0.000178
0.0001761
0.000174
0.0001717
0.0001693
0.0001667
0.0001639
0.0001608
0.0001576
0.000154
0.0001503
0.0001462
0.0001419
0.0001374
0.0001326
0.0001276
0.0001224
0.0001171
0.0001118
0.0001064
0.0001012
9.602e-05
9.101e-05
8.617e-05
8.151e-05
7.703e-05
7.275e-05
6.866e-05
6.478e-05
6.112e-05
5.766e-05
5.442e-05
5.139e-05
4.857e-05
4.594e-05
4.35e-05
4.123e-05
3.912e-05
3.715e-05
3.531e-05
3.359e-05
3.197e-05
3.046e-05
2.903e-05
2.767e-05
2.639e-05
2.518e-05
2.402e-05
2.292e-05
2.187e-05
2.086e-05
1.99e-05
1.898e-05
1.809e-05
1.724e-05
1.642e-05
1.563e-05
1.486e-05
1.412e-05
1.34e-05
1.27e-05
1.202e-05
1.136e-05
1.072e-05
1.009e-05
9.471e-06
8.868e-06
8.275e-06
7.693e-06
7.119e-06
6.554e-06
5.996e-06
5.444e-06
4.898e-06
4.356e-06
3.817e-06
3.28e-06
2.746e-06
2.211e-06
1.675e-06
1.136e-06
5.908e-07
1.172e-07
0.0002198
0.000222
0.0002232
0.0002235
0.0002229
0.0002219
0.0002207
0.0002194
0.0002181
0.0002169
0.0002158
0.0002147
0.0002137
0.0002128
0.0002118
0.0002109
0.0002101
0.0002092
0.0002083
0.0002075
0.0002066
0.0002058
0.0002049
0.000204
0.0002032
0.0002023
0.0002014
0.0002005
0.0001996
0.0001987
0.0001977
0.0001968
0.0001958
0.0001947
0.0001937
0.0001926
0.0001914
0.0001902
0.000189
0.0001877
0.0001864
0.0001849
0.0001834
0.0001818
0.0001801
0.0001783
0.0001764
0.0001743
0.0001721
0.0001697
0.0001672
0.0001644
0.0001614
0.0001581
0.0001546
0.0001508
0.0001467
0.0001424
0.0001378
0.0001329
0.0001278
0.0001225
0.0001171
0.0001117
0.0001062
0.0001009
9.564e-05
9.059e-05
8.571e-05
8.102e-05
7.651e-05
7.22e-05
6.81e-05
6.42e-05
6.052e-05
5.707e-05
5.384e-05
5.083e-05
4.803e-05
4.544e-05
4.303e-05
4.08e-05
3.873e-05
3.68e-05
3.5e-05
3.331e-05
3.173e-05
3.024e-05
2.884e-05
2.751e-05
2.625e-05
2.505e-05
2.391e-05
2.282e-05
2.177e-05
2.078e-05
1.982e-05
1.891e-05
1.802e-05
1.718e-05
1.636e-05
1.557e-05
1.481e-05
1.407e-05
1.335e-05
1.266e-05
1.198e-05
1.132e-05
1.068e-05
1.005e-05
9.438e-06
8.836e-06
8.246e-06
7.666e-06
7.095e-06
6.533e-06
5.977e-06
5.428e-06
4.884e-06
4.345e-06
3.809e-06
3.276e-06
2.744e-06
2.212e-06
1.679e-06
1.143e-06
6.01e-07
1.256e-07
0.0002171
0.0002191
0.0002204
0.0002208
0.0002205
0.0002198
0.0002189
0.0002178
0.0002167
0.0002157
0.0002147
0.0002137
0.0002128
0.0002119
0.0002111
0.0002103
0.0002095
0.0002087
0.0002079
0.0002071
0.0002063
0.0002055
0.0002047
0.0002039
0.000203
0.0002022
0.0002013
0.0002005
0.0001996
0.0001987
0.0001978
0.0001968
0.0001959
0.0001949
0.0001938
0.0001928
0.0001916
0.0001905
0.0001893
0.000188
0.0001867
0.0001853
0.0001838
0.0001823
0.0001806
0.0001789
0.000177
0.000175
0.0001728
0.0001705
0.0001679
0.0001652
0.0001622
0.0001589
0.0001554
0.0001516
0.0001475
0.0001431
0.0001384
0.0001334
0.0001282
0.0001227
0.0001172
0.0001115
0.000106
0.0001005
9.517e-05
9.004e-05
8.509e-05
8.034e-05
7.579e-05
7.143e-05
6.728e-05
6.335e-05
5.966e-05
5.619e-05
5.297e-05
4.998e-05
4.721e-05
4.466e-05
4.23e-05
4.012e-05
3.81e-05
3.622e-05
3.447e-05
3.283e-05
3.129e-05
2.984e-05
2.847e-05
2.718e-05
2.594e-05
2.477e-05
2.365e-05
2.258e-05
2.156e-05
2.058e-05
1.964e-05
1.873e-05
1.786e-05
1.703e-05
1.622e-05
1.544e-05
1.468e-05
1.395e-05
1.324e-05
1.256e-05
1.189e-05
1.124e-05
1.06e-05
9.977e-06
9.369e-06
8.773e-06
8.188e-06
7.614e-06
7.048e-06
6.49e-06
5.939e-06
5.395e-06
4.856e-06
4.321e-06
3.79e-06
3.262e-06
2.735e-06
2.208e-06
1.68e-06
1.149e-06
6.122e-07
1.359e-07
0.0002148
0.0002166
0.0002179
0.0002185
0.0002184
0.000218
0.0002173
0.0002164
0.0002155
0.0002146
0.0002137
0.0002128
0.000212
0.0002112
0.0002104
0.0002097
0.0002089
0.0002082
0.0002075
0.0002067
0.000206
0.0002052
0.0002045
0.0002037
0.0002029
0.0002021
0.0002013
0.0002005
0.0001996
0.0001988
0.0001979
0.000197
0.000196
0.0001951
0.0001941
0.000193
0.000192
0.0001909
0.0001897
0.0001885
0.0001872
0.0001859
0.0001844
0.0001829
0.0001813
0.0001797
0.0001778
0.0001759
0.0001738
0.0001715
0.000169
0.0001663
0.0001633
0.0001601
0.0001565
0.0001527
0.0001485
0.000144
0.0001392
0.0001341
0.0001287
0.0001231
0.0001173
0.0001114
0.0001057
0.0001
9.458e-05
8.934e-05
8.43e-05
7.946e-05
7.482e-05
7.039e-05
6.618e-05
6.22e-05
5.847e-05
5.5e-05
5.178e-05
4.881e-05
4.609e-05
4.359e-05
4.129e-05
3.917e-05
3.722e-05
3.541e-05
3.372e-05
3.214e-05
3.066e-05
2.926e-05
2.794e-05
2.668e-05
2.549e-05
2.435e-05
2.326e-05
2.222e-05
2.122e-05
2.027e-05
1.935e-05
1.846e-05
1.761e-05
1.679e-05
1.6e-05
1.524e-05
1.45e-05
1.378e-05
1.308e-05
1.241e-05
1.175e-05
1.111e-05
1.048e-05
9.867e-06
9.268e-06
8.68e-06
8.103e-06
7.536e-06
6.978e-06
6.427e-06
5.884e-06
5.346e-06
4.814e-06
4.286e-06
3.762e-06
3.24e-06
2.719e-06
2.199e-06
1.678e-06
1.154e-06
6.246e-07
1.481e-07
0.0002128
0.0002145
0.0002158
0.0002164
0.0002166
0.0002164
0.0002159
0.0002152
0.0002144
0.0002136
0.0002128
0.000212
0.0002113
0.0002106
0.0002098
0.0002091
0.0002085
0.0002078
0.0002071
0.0002064
0.0002057
0.000205
0.0002043
0.0002036
0.0002028
0.0002021
0.0002013
0.0002005
0.0001997
0.0001989
0.0001981
0.0001972
0.0001963
0.0001954
0.0001944
0.0001934
0.0001924
0.0001914
0.0001902
0.0001891
0.0001879
0.0001866
0.0001852
0.0001838
0.0001823
0.0001807
0.0001789
0.0001771
0.000175
0.0001728
0.0001704
0.0001678
0.0001648
0.0001616
0.0001581
0.0001542
0.0001499
0.0001453
0.0001404
0.0001351
0.0001294
0.0001235
0.0001174
0.0001113
0.0001053
9.947e-05
9.385e-05
8.846e-05
8.328e-05
7.832e-05
7.357e-05
6.903e-05
6.474e-05
6.07e-05
5.693e-05
5.345e-05
5.024e-05
4.731e-05
4.464e-05
4.221e-05
3.999e-05
3.796e-05
3.609e-05
3.436e-05
3.275e-05
3.125e-05
2.983e-05
2.85e-05
2.723e-05
2.603e-05
2.488e-05
2.379e-05
2.274e-05
2.174e-05
2.077e-05
1.985e-05
1.896e-05
1.81e-05
1.728e-05
1.648e-05
1.571e-05
1.497e-05
1.425e-05
1.355e-05
1.287e-05
1.221e-05
1.156e-05
1.094e-05
1.032e-05
9.722e-06
9.135e-06
8.559e-06
7.993e-06
7.436e-06
6.887e-06
6.346e-06
5.812e-06
5.283e-06
4.759e-06
4.24e-06
3.723e-06
3.21e-06
2.698e-06
2.186e-06
1.673e-06
1.158e-06
6.381e-07
1.621e-07
0.0002111
0.0002127
0.000214
0.0002147
0.000215
0.0002149
0.0002146
0.000214
0.0002134
0.0002127
0.000212
0.0002113
0.0002106
0.00021
0.0002093
0.0002087
0.000208
0.0002074
0.0002068
0.0002061
0.0002055
0.0002048
0.0002042
0.0002035
0.0002028
0.0002021
0.0002014
0.0002006
0.0001999
0.0001991
0.0001983
0.0001975
0.0001967
0.0001958
0.0001949
0.0001939
0.000193
0.000192
0.0001909
0.0001898
0.0001887
0.0001875
0.0001862
0.0001849
0.0001834
0.0001819
0.0001803
0.0001785
0.0001766
0.0001745
0.0001722
0.0001696
0.0001668
0.0001636
0.00016
0.0001561
0.0001518
0.0001471
0.0001419
0.0001364
0.0001304
0.0001242
0.0001177
0.0001113
0.0001049
9.879e-05
9.293e-05
8.734e-05
8.198e-05
7.684e-05
7.194e-05
6.728e-05
6.288e-05
5.877e-05
5.497e-05
5.149e-05
4.832e-05
4.545e-05
4.285e-05
4.051e-05
3.84e-05
3.647e-05
3.471e-05
3.308e-05
3.157e-05
3.016e-05
2.883e-05
2.757e-05
2.637e-05
2.523e-05
2.414e-05
2.31e-05
2.21e-05
2.114e-05
2.022e-05
1.934e-05
1.848e-05
1.766e-05
1.686e-05
1.61e-05
1.535e-05
1.464e-05
1.394e-05
1.326e-05
1.26e-05
1.196e-05
1.134e-05
1.073e-05
1.013e-05
9.547e-06
8.974e-06
8.412e-06
7.859e-06
7.314e-06
6.778e-06
6.248e-06
5.724e-06
5.206e-06
4.692e-06
4.183e-06
3.677e-06
3.173e-06
2.67e-06
2.168e-06
1.666e-06
1.161e-06
6.524e-07
1.778e-07
0.0002097
0.0002112
0.0002124
0.0002132
0.0002135
0.0002136
0.0002134
0.000213
0.0002125
0.0002119
0.0002113
0.0002107
0.0002101
0.0002095
0.0002089
0.0002083
0.0002077
0.0002071
0.0002065
0.0002059
0.0002053
0.0002047
0.0002041
0.0002034
0.0002028
0.0002021
0.0002015
0.0002008
0.0002001
0.0001994
0.0001986
0.0001978
0.0001971
0.0001962
0.0001954
0.0001945
0.0001936
0.0001927
0.0001917
0.0001907
0.0001896
0.0001885
0.0001873
0.0001861
0.0001848
0.0001834
0.0001819
0.0001803
0.0001785
0.0001765
0.0001743
0.0001719
0.0001692
0.0001661
0.0001626
0.0001586
0.0001542
0.0001494
0.000144
0.0001382
0.0001319
0.0001252
0.0001182
0.0001112
0.0001044
9.793e-05
9.174e-05
8.586e-05
8.025e-05
7.49e-05
6.982e-05
6.501e-05
6.051e-05
5.635e-05
5.253e-05
4.907e-05
4.596e-05
4.318e-05
4.07e-05
3.849e-05
3.65e-05
3.471e-05
3.308e-05
3.158e-05
3.018e-05
2.888e-05
2.764e-05
2.647e-05
2.536e-05
2.429e-05
2.327e-05
2.229e-05
2.135e-05
2.045e-05
1.957e-05
1.873e-05
1.792e-05
1.714e-05
1.638e-05
1.565e-05
1.494e-05
1.425e-05
1.358e-05
1.293e-05
1.23e-05
1.168e-05
1.108e-05
1.049e-05
9.909e-06
9.343e-06
8.788e-06
8.241e-06
7.704e-06
7.174e-06
6.651e-06
6.134e-06
5.623e-06
5.117e-06
4.615e-06
4.117e-06
3.622e-06
3.129e-06
2.638e-06
2.147e-06
1.656e-06
1.163e-06
6.676e-07
1.949e-07
0.0002084
0.0002098
0.000211
0.0002118
0.0002123
0.0002124
0.0002124
0.0002121
0.0002117
0.0002112
0.0002107
0.0002102
0.0002096
0.000209
0.0002085
0.0002079
0.0002074
0.0002068
0.0002063
0.0002057
0.0002052
0.0002046
0.000204
0.0002034
0.0002028
0.0002022
0.0002016
0.000201
0.0002003
0.0001997
0.000199
0.0001983
0.0001975
0.0001968
0.000196
0.0001952
0.0001944
0.0001935
0.0001926
0.0001917
0.0001907
0.0001897
0.0001886
0.0001875
0.0001863
0.0001851
0.0001837
0.0001823
0.0001807
0.0001789
0.0001769
0.0001747
0.0001721
0.0001692
0.0001658
0.0001619
0.0001574
0.0001524
0.0001469
0.0001407
0.0001339
0.0001266
0.000119
0.0001113
0.0001038
9.677e-05
9.011e-05
8.384e-05
7.791e-05
7.231e-05
6.703e-05
6.209e-05
5.751e-05
5.332e-05
4.953e-05
4.614e-05
4.313e-05
4.048e-05
3.816e-05
3.612e-05
3.431e-05
3.269e-05
3.122e-05
2.986e-05
2.86e-05
2.742e-05
2.63e-05
2.523e-05
2.421e-05
2.323e-05
2.229e-05
2.138e-05
2.05e-05
1.966e-05
1.884e-05
1.805e-05
1.729e-05
1.655e-05
1.583e-05
1.514e-05
1.447e-05
1.381e-05
1.318e-05
1.256e-05
1.195e-05
1.136e-05
1.078e-05
1.022e-05
9.662e-06
9.116e-06
8.58e-06
8.052e-06
7.531e-06
7.018e-06
6.51e-06
6.008e-06
5.511e-06
5.018e-06
4.529e-06
4.043e-06
3.561e-06
3.08e-06
2.601e-06
2.123e-06
1.644e-06
1.165e-06
6.835e-07
2.132e-07
0.0002074
0.0002087
0.0002098
0.0002107
0.0002112
0.0002114
0.0002114
0.0002113
0.000211
0.0002106
0.0002102
0.0002097
0.0002092
0.0002087
0.0002082
0.0002077
0.0002071
0.0002066
0.0002061
0.0002056
0.0002051
0.0002045
0.000204
0.0002035
0.0002029
0.0002024
0.0002018
0.0002012
0.0002006
0.0002
0.0001994
0.0001987
0.0001981
0.0001974
0.0001967
0.0001959
0.0001952
0.0001944
0.0001936
0.0001928
0.0001919
0.000191
0.0001901
0.0001891
0.000188
0.000187
0.0001858
0.0001845
0.0001832
0.0001816
0.0001799
0.0001779
0.0001756
0.0001729
0.0001697
0.000166
0.0001616
0.0001566
0.0001509
0.0001444
0.0001371
0.0001289
0.0001203
0.0001115
0.000103
9.505e-05
8.769e-05
8.09e-05
7.461e-05
6.877e-05
6.335e-05
5.833e-05
5.375e-05
4.961e-05
4.59e-05
4.264e-05
3.98e-05
3.735e-05
3.524e-05
3.342e-05
3.182e-05
3.041e-05
2.913e-05
2.795e-05
2.685e-05
2.581e-05
2.482e-05
2.386e-05
2.294e-05
2.206e-05
2.12e-05
2.037e-05
1.957e-05
1.879e-05
1.803e-05
1.73e-05
1.659e-05
1.59e-05
1.524e-05
1.459e-05
1.395e-05
1.334e-05
1.274e-05
1.215e-05
1.158e-05
1.102e-05
1.046e-05
9.924e-06
9.393e-06
8.87e-06
8.355e-06
7.846e-06
7.345e-06
6.848e-06
6.357e-06
5.871e-06
5.389e-06
4.911e-06
4.436e-06
3.964e-06
3.494e-06
3.027e-06
2.561e-06
2.096e-06
1.631e-06
1.166e-06
6.998e-07
2.324e-07
0.0002064
0.0002077
0.0002088
0.0002097
0.0002102
0.0002105
0.0002106
0.0002105
0.0002103
0.00021
0.0002097
0.0002093
0.0002088
0.0002084
0.0002079
0.0002074
0.0002069
0.0002065
0.000206
0.0002055
0.000205
0.0002045
0.0002041
0.0002036
0.000203
0.0002025
0.000202
0.0002015
0.0002009
0.0002004
0.0001998
0.0001992
0.0001986
0.000198
0.0001974
0.0001967
0.0001961
0.0001954
0.0001947
0.000194
0.0001932
0.0001924
0.0001916
0.0001908
0.0001899
0.000189
0.000188
0.000187
0.0001859
0.0001847
0.0001833
0.0001816
0.0001797
0.0001773
0.0001745
0.0001711
0.000167
0.0001622
0.0001565
0.0001498
0.000142
0.0001329
0.0001226
0.0001119
0.0001016
9.214e-05
8.376e-05
7.64e-05
6.984e-05
6.391e-05
5.85e-05
5.356e-05
4.91e-05
4.512e-05
4.161e-05
3.857e-05
3.597e-05
3.379e-05
3.196e-05
3.041e-05
2.908e-05
2.79e-05
2.684e-05
2.587e-05
2.494e-05
2.406e-05
2.321e-05
2.238e-05
2.158e-05
2.079e-05
2.003e-05
1.928e-05
1.856e-05
1.785e-05
1.717e-05
1.65e-05
1.585e-05
1.521e-05
1.46e-05
1.399e-05
1.341e-05
1.283e-05
1.227e-05
1.172e-05
1.118e-05
1.065e-05
1.013e-05
9.614e-06
9.108e-06
8.609e-06
8.117e-06
7.629e-06
7.147e-06
6.67e-06
6.196e-06
5.727e-06
5.261e-06
4.798e-06
4.337e-06
3.879e-06
3.424e-06
2.97e-06
2.518e-06
2.067e-06
1.616e-06
1.166e-06
7.163e-07
2.521e-07
0.0002057
0.0002069
0.000208
0.0002088
0.0002094
0.0002097
0.0002099
0.0002099
0.0002098
0.0002096
0.0002093
0.0002089
0.0002085
0.0002081
0.0002077
0.0002072
0.0002068
0.0002064
0.0002059
0.0002055
0.000205
0.0002046
0.0002041
0.0002037
0.0002032
0.0002027
0.0002023
0.0002018
0.0002013
0.0002008
0.0002003
0.0001998
0.0001992
0.0001987
0.0001982
0.0001976
0.000197
0.0001964
0.0001958
0.0001952
0.0001946
0.0001939
0.0001932
0.0001926
0.0001919
0.0001912
0.0001904
0.0001897
0.0001889
0.000188
0.0001869
0.0001857
0.0001843
0.0001824
0.0001801
0.0001772
0.0001737
0.0001695
0.0001644
0.0001582
0.0001504
0.0001403
0.0001276
0.0001127
9.85e-05
8.644e-05
7.695e-05
6.935e-05
6.283e-05
5.723e-05
5.224e-05
4.765e-05
4.351e-05
3.985e-05
3.666e-05
3.394e-05
3.168e-05
2.984e-05
2.835e-05
2.713e-05
2.611e-05
2.521e-05
2.441e-05
2.365e-05
2.292e-05
2.221e-05
2.151e-05
2.081e-05
2.013e-05
1.946e-05
1.879e-05
1.814e-05
1.75e-05
1.687e-05
1.626e-05
1.566e-05
1.507e-05
1.449e-05
1.393e-05
1.338e-05
1.284e-05
1.23e-05
1.178e-05
1.127e-05
1.077e-05
1.027e-05
9.777e-06
9.293e-06
8.814e-06
8.34e-06
7.87e-06
7.405e-06
6.944e-06
6.485e-06
6.03e-06
5.578e-06
5.128e-06
4.681e-06
4.235e-06
3.792e-06
3.351e-06
2.911e-06
2.473e-06
2.036e-06
1.601e-06
1.166e-06
7.328e-07
2.722e-07
0.000205
0.0002062
0.0002072
0.000208
0.0002086
0.000209
0.0002093
0.0002093
0.0002093
0.0002091
0.0002089
0.0002086
0.0002082
0.0002079
0.0002075
0.0002071
0.0002067
0.0002063
0.0002059
0.0002055
0.000205
0.0002046
0.0002042
0.0002038
0.0002034
0.000203
0.0002025
0.0002021
0.0002017
0.0002012
0.0002008
0.0002003
0.0001999
0.0001994
0.0001989
0.0001985
0.000198
0.0001975
0.000197
0.0001965
0.0001959
0.0001954
0.0001949
0.0001944
0.0001939
0.0001934
0.0001929
0.0001924
0.0001919
0.0001914
0.0001908
0.0001901
0.0001892
0.000188
0.0001864
0.0001843
0.0001817
0.0001785
0.0001749
0.0001706
0.0001644
0.000153
0.000137
0.0001137
9.217e-05
7.684e-05
6.664e-05
5.88e-05
5.277e-05
4.843e-05
4.443e-05
4.06e-05
3.708e-05
3.391e-05
3.115e-05
2.884e-05
2.699e-05
2.556e-05
2.448e-05
2.365e-05
2.297e-05
2.239e-05
2.186e-05
2.134e-05
2.081e-05
2.028e-05
1.974e-05
1.919e-05
1.863e-05
1.807e-05
1.751e-05
1.696e-05
1.641e-05
1.586e-05
1.532e-05
1.479e-05
1.427e-05
1.375e-05
1.324e-05
1.274e-05
1.225e-05
1.177e-05
1.129e-05
1.081e-05
1.034e-05
9.881e-06
9.422e-06
8.967e-06
8.515e-06
8.067e-06
7.621e-06
7.178e-06
6.737e-06
6.299e-06
5.862e-06
5.427e-06
4.994e-06
4.563e-06
4.133e-06
3.704e-06
3.277e-06
2.852e-06
2.428e-06
2.005e-06
1.585e-06
1.166e-06
7.491e-07
2.921e-07
0.0002044
0.0002055
0.0002066
0.0002074
0.000208
0.0002084
0.0002087
0.0002088
0.0002088
0.0002087
0.0002086
0.0002083
0.000208
0.0002077
0.0002073
0.000207
0.0002066
0.0002062
0.0002059
0.0002055
0.0002051
0.0002047
0.0002043
0.000204
0.0002036
0.0002032
0.0002028
0.0002024
0.0002021
0.0002017
0.0002013
0.0002009
0.0002005
0.0002001
0.0001997
0.0001993
0.0001989
0.0001985
0.0001981
0.0001977
0.0001974
0.000197
0.0001966
0.0001963
0.0001959
0.0001956
0.0001954
0.0001952
0.000195
0.0001949
0.0001947
0.0001945
0.0001942
0.0001937
0.0001928
0.0001916
0.00019
0.0001884
0.0001869
0.000185
0.0001857
0.0001791
0.0001436
0.0001044
9.513e-05
6.787e-05
4.856e-05
4.413e-05
4.206e-05
3.877e-05
3.546e-05
3.274e-05
3.004e-05
2.753e-05
2.528e-05
2.342e-05
2.204e-05
2.108e-05
2.046e-05
2.005e-05
1.976e-05
1.951e-05
1.926e-05
1.898e-05
1.867e-05
1.832e-05
1.794e-05
1.754e-05
1.711e-05
1.667e-05
1.622e-05
1.576e-05
1.53e-05
1.484e-05
1.438e-05
1.392e-05
1.346e-05
1.301e-05
1.256e-05
1.211e-05
1.167e-05
1.123e-05
1.079e-05
1.036e-05
9.926e-06
9.496e-06
9.069e-06
8.643e-06
8.218e-06
7.795e-06
7.374e-06
6.953e-06
6.533e-06
6.114e-06
5.695e-06
5.278e-06
4.861e-06
4.445e-06
4.03e-06
3.617e-06
3.204e-06
2.792e-06
2.383e-06
1.975e-06
1.569e-06
1.165e-06
7.649e-07
3.117e-07
0.0002039
0.000205
0.000206
0.0002068
0.0002075
0.0002079
0.0002082
0.0002084
0.0002085
0.0002084
0.0002083
0.0002081
0.0002078
0.0002075
0.0002072
0.0002069
0.0002066