/*--------------------------------*- C++ -*----------------------------------*\
  =========                 |
  \\      /  F ield         | OpenFOAM: The Open Source CFD Toolbox
   \\    /   O peration     | Website:  https://openfoam.org
    \\  /    A nd           | Version:  7
     \\/     M anipulation  |
\*---------------------------------------------------------------------------*/
FoamFile
{
    version     2.0;
    format      ascii;
    class       surfaceScalarField;
    location    "1919.99947343015674";
    object      phi;
}
// * * * * * * * * * * * * * * * * * * * * * * * * * * * * * * * * * * * * * //

dimensions      [0 3 -1 0 0 0 0];

internalField   nonuniform List<scalar> 
8032
(
6.857e-10
2.518e-10
4.804e-10
2.053e-10
3.48e-10
1.324e-10
2.643e-10
8.372e-11
2.101e-10
5.416e-11
1.738e-10
3.638e-11
1.482e-10
2.552e-11
1.296e-10
1.867e-11
1.154e-10
1.416e-11
1.044e-10
1.105e-11
9.553e-11
8.825e-12
8.837e-11
7.166e-12
8.247e-11
5.892e-12
7.758e-11
4.89e-12
7.35e-11
4.084e-12
7.008e-11
3.423e-12
6.72e-11
2.872e-12
6.48e-11
2.406e-12
6.279e-11
2.006e-12
6.113e-11
1.659e-12
5.978e-11
1.352e-12
5.87e-11
1.079e-12
5.787e-11
8.307e-13
5.727e-11
6.033e-13
5.687e-11
3.916e-13
5.668e-11
1.918e-13
5.668e-11
5.167e-16
5.687e-11
-1.851e-13
5.724e-11
-3.676e-13
5.778e-11
-5.492e-13
5.852e-11
-7.318e-13
5.943e-11
-9.172e-13
6.054e-11
-1.107e-12
6.184e-11
-1.302e-12
6.335e-11
-1.503e-12
6.506e-11
-1.712e-12
6.699e-11
-1.929e-12
6.914e-11
-2.154e-12
7.153e-11
-2.387e-12
7.416e-11
-2.627e-12
7.703e-11
-2.874e-12
8.015e-11
-3.125e-12
8.353e-11
-3.379e-12
8.717e-11
-3.633e-12
9.105e-11
-3.883e-12
9.517e-11
-4.125e-12
9.953e-11
-4.354e-12
1.041e-10
-4.564e-12
1.088e-10
-4.749e-12
1.137e-10
-4.901e-12
1.188e-10
-5.013e-12
1.238e-10
-5.077e-12
1.289e-10
-5.085e-12
1.339e-10
-5.03e-12
1.389e-10
-4.905e-12
1.436e-10
-4.706e-12
1.48e-10
-4.427e-12
1.521e-10
-4.07e-12
1.557e-10
-3.636e-12
1.588e-10
-3.129e-12
1.614e-10
-2.558e-12
1.633e-10
-1.934e-12
1.646e-10
-1.271e-12
1.652e-10
-5.863e-13
1.651e-10
1.049e-13
1.643e-10
7.856e-13
1.628e-10
1.44e-12
1.608e-10
2.056e-12
1.582e-10
2.622e-12
1.55e-10
3.13e-12
1.515e-10
3.574e-12
1.475e-10
3.951e-12
1.432e-10
4.26e-12
1.387e-10
4.502e-12
1.341e-10
4.679e-12
1.293e-10
4.794e-12
1.244e-10
4.852e-12
1.196e-10
4.858e-12
1.147e-10
4.816e-12
1.1e-10
4.733e-12
1.054e-10
4.615e-12
1.009e-10
4.467e-12
9.663e-11
4.296e-12
9.253e-11
4.106e-12
8.862e-11
3.902e-12
8.493e-11
3.69e-12
8.146e-11
3.473e-12
7.821e-11
3.254e-12
7.517e-11
3.037e-12
7.235e-11
2.824e-12
6.973e-11
2.616e-12
6.731e-11
2.416e-12
6.509e-11
2.225e-12
6.304e-11
2.043e-12
6.117e-11
1.871e-12
5.946e-11
1.71e-12
5.791e-11
1.558e-12
5.649e-11
1.417e-12
5.52e-11
1.287e-12
5.404e-11
1.166e-12
5.298e-11
1.054e-12
5.203e-11
9.517e-13
5.117e-11
8.576e-13
5.04e-11
7.716e-13
4.971e-11
6.931e-13
4.909e-11
6.216e-13
4.853e-11
5.566e-13
4.803e-11
4.976e-13
4.759e-11
4.443e-13
4.719e-11
3.961e-13
4.684e-11
3.526e-13
4.653e-11
3.136e-13
4.625e-11
2.786e-13
4.6e-11
2.475e-13
4.578e-11
2.199e-13
4.558e-11
1.957e-13
4.541e-11
1.746e-13
4.525e-11
1.568e-13
4.511e-11
1.421e-13
4.498e-11
1.308e-13
4.486e-11
1.231e-13
4.474e-11
1.195e-13
4.462e-11
1.212e-13
4.449e-11
1.302e-13
4.434e-11
1.501e-13
4.415e-11
1.873e-13
4.39e-11
2.489e-13
3.234e-13
9.523e-10
2.37e-10
8.501e-10
3.075e-10
7.275e-10
2.55e-10
6.183e-10
1.929e-10
5.294e-10
1.431e-10
4.592e-10
1.065e-10
4.041e-10
8.061e-11
3.605e-10
6.223e-11
3.257e-10
4.9e-11
2.975e-10
3.928e-11
2.744e-10
3.195e-11
2.552e-10
2.63e-11
2.393e-10
2.185e-11
2.259e-10
1.828e-11
2.146e-10
1.536e-11
2.051e-10
1.294e-11
1.97e-10
1.091e-11
1.903e-10
9.169e-12
1.846e-10
7.669e-12
1.799e-10
6.357e-12
1.761e-10
5.195e-12
1.73e-10
4.154e-12
1.706e-10
3.208e-12
1.689e-10
2.338e-12
1.677e-10
1.527e-12
1.672e-10
7.607e-13
1.671e-10
2.662e-14
1.676e-10
-6.857e-13
1.687e-10
-1.385e-12
1.702e-10
-2.081e-12
1.722e-10
-2.779e-12
1.748e-10
-3.486e-12
1.779e-10
-4.207e-12
1.816e-10
-4.947e-12
1.858e-10
-5.71e-12
1.905e-10
-6.499e-12
1.959e-10
-7.314e-12
2.019e-10
-8.158e-12
2.086e-10
-9.028e-12
2.159e-10
-9.922e-12
2.238e-10
-1.084e-11
2.325e-10
-1.177e-11
2.418e-10
-1.27e-11
2.518e-10
-1.363e-11
2.625e-10
-1.454e-11
2.738e-10
-1.542e-11
2.856e-10
-1.625e-11
2.981e-10
-1.7e-11
3.11e-10
-1.766e-11
3.243e-10
-1.819e-11
3.378e-10
-1.857e-11
3.515e-10
-1.877e-11
3.652e-10
-1.877e-11
3.787e-10
-1.854e-11
3.919e-10
-1.805e-11
4.045e-10
-1.729e-11
4.163e-10
-1.625e-11
4.271e-10
-1.492e-11
4.368e-10
-1.332e-11
4.452e-10
-1.146e-11
4.52e-10
-9.375e-12
4.571e-10
-7.1e-12
4.606e-10
-4.687e-12
4.622e-10
-2.191e-12
4.619e-10
3.273e-13
4.599e-10
2.811e-12
4.562e-10
5.205e-12
4.507e-10
7.463e-12
4.438e-10
9.545e-12
4.355e-10
1.142e-11
4.26e-10
1.307e-11
4.155e-10
1.448e-11
4.041e-10
1.564e-11
3.921e-10
1.656e-11
3.795e-10
1.725e-11
3.666e-10
1.771e-11
3.535e-10
1.795e-11
3.403e-10
1.801e-11
3.273e-10
1.788e-11
3.144e-10
1.761e-11
3.018e-10
1.72e-11
2.896e-10
1.668e-11
2.778e-10
1.607e-11
2.665e-10
1.539e-11
2.558e-10
1.466e-11
2.456e-10
1.389e-11
2.359e-10
1.31e-11
2.269e-10
1.23e-11
2.184e-10
1.15e-11
2.106e-10
1.071e-11
2.032e-10
9.941e-12
1.964e-10
9.198e-12
1.902e-10
8.485e-12
1.844e-10
7.806e-12
1.791e-10
7.162e-12
1.743e-10
6.556e-12
1.699e-10
5.987e-12
1.658e-10
5.456e-12
1.621e-10
4.961e-12
1.588e-10
4.503e-12
1.558e-10
4.08e-12
1.53e-10
3.69e-12
1.506e-10
3.331e-12
1.483e-10
3.003e-12
1.463e-10
2.703e-12
1.445e-10
2.429e-12
1.429e-10
2.179e-12
1.414e-10
1.953e-12
1.401e-10
1.747e-12
1.39e-10
1.561e-12
1.379e-10
1.393e-12
1.37e-10
1.242e-12
1.362e-10
1.107e-12
1.354e-10
9.857e-13
1.348e-10
8.783e-13
1.342e-10
7.838e-13
1.337e-10
7.016e-13
1.332e-10
6.314e-13
1.328e-10
5.733e-13
1.324e-10
5.275e-13
1.32e-10
4.947e-13
1.316e-10
4.764e-13
1.313e-10
4.746e-13
1.309e-10
4.927e-13
1.305e-10
5.355e-13
1.301e-10
6.087e-13
1.296e-10
7.113e-13
8.08e-13
9.779e-10
1.966e-10
9.637e-10
3.217e-10
9.013e-10
3.175e-10
8.212e-10
2.731e-10
7.409e-10
2.234e-10
6.679e-10
1.795e-10
6.044e-10
1.44e-10
5.505e-10
1.162e-10
5.049e-10
9.457e-11
4.665e-10
7.769e-11
4.34e-10
6.439e-11
4.066e-10
5.376e-11
3.833e-10
4.517e-11
3.634e-10
3.811e-11
3.465e-10
3.226e-11
3.322e-10
2.733e-11
3.199e-10
2.314e-11
3.096e-10
1.953e-11
3.009e-10
1.638e-11
2.936e-10
1.362e-11
2.876e-10
1.116e-11
2.828e-10
8.937e-12
2.791e-10
6.915e-12
2.764e-10
5.048e-12
2.747e-10
3.303e-12
2.738e-10
1.651e-12
2.737e-10
6.609e-14
2.745e-10
-1.472e-12
2.761e-10
-2.984e-12
2.785e-10
-4.486e-12
2.817e-10
-5.992e-12
2.858e-10
-7.516e-12
2.906e-10
-9.07e-12
2.963e-10
-1.066e-11
3.029e-10
-1.23e-11
3.104e-10
-1.399e-11
3.188e-10
-1.573e-11
3.282e-10
-1.753e-11
3.386e-10
-1.939e-11
3.499e-10
-2.129e-11
3.623e-10
-2.323e-11
3.758e-10
-2.519e-11
3.902e-10
-2.717e-11
4.057e-10
-2.913e-11
4.222e-10
-3.104e-11
4.397e-10
-3.288e-11
4.58e-10
-3.461e-11
4.772e-10
-3.617e-11
4.971e-10
-3.752e-11
5.175e-10
-3.862e-11
5.383e-10
-3.939e-11
5.593e-10
-3.978e-11
5.803e-10
-3.974e-11
6.01e-10
-3.921e-11
6.211e-10
-3.815e-11
6.403e-10
-3.652e-11
6.583e-10
-3.431e-11
6.749e-10
-3.15e-11
6.897e-10
-2.811e-11
7.024e-10
-2.419e-11
7.128e-10
-1.979e-11
7.207e-10
-1.501e-11
7.26e-10
-9.931e-12
7.285e-10
-4.685e-12
7.282e-10
6.111e-13
7.252e-10
5.837e-12
7.195e-10
1.088e-11
7.113e-10
1.564e-11
7.008e-10
2.004e-11
6.882e-10
2.402e-11
6.738e-10
2.752e-11
6.577e-10
3.052e-11
6.404e-10
3.301e-11
6.219e-10
3.499e-11
6.027e-10
3.648e-11
5.829e-10
3.749e-11
5.628e-10
3.805e-11
5.426e-10
3.821e-11
5.225e-10
3.8e-11
5.027e-10
3.746e-11
4.832e-10
3.663e-11
4.644e-10
3.557e-11
4.461e-10
3.431e-11
4.286e-10
3.29e-11
4.119e-10
3.137e-11
3.96e-10
2.975e-11
3.811e-10
2.809e-11
3.669e-10
2.64e-11
3.537e-10
2.472e-11
3.414e-10
2.305e-11
3.299e-10
2.143e-11
3.192e-10
1.985e-11
3.094e-10
1.833e-11
3.003e-10
1.689e-11
2.92e-10
1.551e-11
2.843e-10
1.422e-11
2.773e-10
1.3e-11
2.709e-10
1.186e-11
2.65e-10
1.08e-11
2.597e-10
9.815e-12
2.549e-10
8.904e-12
2.505e-10
8.064e-12
2.466e-10
7.29e-12
2.43e-10
6.58e-12
2.398e-10
5.931e-12
2.369e-10
5.337e-12
2.343e-10
4.796e-12
2.319e-10
4.303e-12
2.298e-10
3.856e-12
2.279e-10
3.451e-12
2.262e-10
3.085e-12
2.247e-10
2.755e-12
2.233e-10
2.459e-12
2.221e-10
2.194e-12
2.211e-10
1.958e-12
2.201e-10
1.75e-12
2.192e-10
1.569e-12
2.184e-10
1.413e-12
2.177e-10
1.283e-12
2.171e-10
1.179e-12
2.165e-10
1.1e-12
2.159e-10
1.05e-12
2.153e-10
1.031e-12
2.148e-10
1.045e-12
2.142e-10
1.094e-12
2.137e-10
1.18e-12
2.131e-10
1.291e-12
1.38e-12
9.752e-10
1.589e-10
9.93e-10
3.039e-10
9.727e-10
3.377e-10
9.268e-10
3.19e-10
8.689e-10
2.813e-10
8.082e-10
2.402e-10
7.5e-10
2.022e-10
6.967e-10
1.695e-10
6.492e-10
1.422e-10
6.073e-10
1.196e-10
5.707e-10
1.01e-10
5.389e-10
8.555e-11
5.114e-10
7.273e-11
4.875e-10
6.196e-11
4.669e-10
5.285e-11
4.492e-10
4.506e-11
4.34e-10
3.835e-11
4.21e-10
3.251e-11
4.1e-10
2.738e-11
4.008e-10
2.282e-11
3.932e-10
1.874e-11
3.871e-10
1.504e-11
3.824e-10
1.165e-11
3.789e-10
8.502e-12
3.767e-10
5.554e-12
3.756e-10
2.755e-12
3.756e-10
6.491e-14
3.767e-10
-2.551e-12
3.788e-10
-5.123e-12
3.82e-10
-7.68e-12
3.862e-10
-1.024e-11
3.916e-10
-1.284e-11
3.98e-10
-1.548e-11
4.055e-10
-1.818e-11
4.142e-10
-2.096e-11
4.24e-10
-2.383e-11
4.35e-10
-2.678e-11
4.473e-10
-2.982e-11
4.609e-10
-3.294e-11
4.757e-10
-3.614e-11
4.919e-10
-3.94e-11
5.094e-10
-4.27e-11
5.283e-10
-4.601e-11
5.484e-10
-4.928e-11
5.699e-10
-5.248e-11
5.925e-10
-5.554e-11
6.163e-10
-5.84e-11
6.411e-10
-6.099e-11
6.668e-10
-6.323e-11
6.932e-10
-6.501e-11
7.201e-10
-6.627e-11
7.472e-10
-6.688e-11
7.742e-10
-6.677e-11
8.009e-10
-6.585e-11
8.268e-10
-6.404e-11
8.515e-10
-6.129e-11
8.748e-10
-5.755e-11
8.961e-10
-5.283e-11
9.151e-10
-4.715e-11
9.315e-10
-4.057e-11
9.45e-10
-3.321e-11
9.552e-10
-2.52e-11
9.619e-10
-1.672e-11
9.652e-10
-7.94e-12
9.649e-10
9.209e-13
9.611e-10
9.668e-12
9.538e-10
1.812e-11
9.434e-10
2.61e-11
9.299e-10
3.348e-11
9.138e-10
4.016e-11
8.953e-10
4.605e-11
8.747e-10
5.112e-11
8.523e-10
5.533e-11
8.286e-10
5.87e-11
8.039e-10
6.124e-11
7.784e-10
6.299e-11
7.524e-10
6.399e-11
7.263e-10
6.431e-11
7.003e-10
6.401e-11
6.746e-10
6.316e-11
6.494e-10
6.182e-11
6.249e-10
6.009e-11
6.012e-10
5.802e-11
5.784e-10
5.568e-11
5.566e-10
5.314e-11
5.359e-10
5.046e-11
5.163e-10
4.768e-11
4.979e-10
4.487e-11
4.805e-10
4.204e-11
4.643e-10
3.925e-11
4.493e-10
3.652e-11
4.352e-10
3.387e-11
4.223e-10
3.132e-11
4.103e-10
2.888e-11
3.992e-10
2.656e-11
3.891e-10
2.436e-11
3.798e-10
2.23e-11
3.713e-10
2.037e-11
3.635e-10
1.857e-11
3.564e-10
1.689e-11
3.5e-10
1.534e-11
3.441e-10
1.391e-11
3.388e-10
1.259e-11
3.34e-10
1.138e-11
3.297e-10
1.026e-11
3.258e-10
9.248e-12
3.223e-10
8.32e-12
3.191e-10
7.475e-12
3.163e-10
6.707e-12
3.137e-10
6.01e-12
3.114e-10
5.38e-12
3.093e-10
4.811e-12
3.075e-10
4.3e-12
3.059e-10
3.841e-12
3.044e-10
3.433e-12
3.031e-10
3.072e-12
3.019e-10
2.756e-12
3.008e-10
2.483e-12
2.998e-10
2.252e-12
2.99e-10
2.063e-12
2.981e-10
1.917e-12
2.974e-10
1.814e-12
2.966e-10
1.756e-12
2.959e-10
1.745e-12
2.953e-10
1.779e-12
2.946e-10
1.854e-12
2.939e-10
1.951e-12
2.026e-12
9.668e-10
1.296e-10
9.944e-10
2.762e-10
9.978e-10
3.343e-10
9.779e-10
3.389e-10
9.423e-10
3.169e-10
8.983e-10
2.842e-10
8.514e-10
2.491e-10
8.051e-10
2.159e-10
7.612e-10
1.86e-10
7.208e-10
1.599e-10
6.843e-10
1.375e-10
6.516e-10
1.182e-10
6.226e-10
1.017e-10
5.971e-10
8.753e-11
5.747e-10
7.527e-11
5.551e-10
6.462e-11
5.382e-10
5.53e-11
5.236e-10
4.71e-11
5.111e-10
3.981e-11
5.007e-10
3.329e-11
4.92e-10
2.739e-11
4.85e-10
2.202e-11
4.796e-10
1.706e-11
4.757e-10
1.244e-11
4.731e-10
8.092e-12
4.719e-10
3.948e-12
4.72e-10
-4.474e-14
4.734e-10
-3.936e-12
4.761e-10
-7.768e-12
4.8e-10
-1.158e-11
4.851e-10
-1.541e-11
4.916e-10
-1.928e-11
4.993e-10
-2.321e-11
5.084e-10
-2.724e-11
5.188e-10
-3.138e-11
5.306e-10
-3.564e-11
5.439e-10
-4.003e-11
5.586e-10
-4.454e-11
5.748e-10
-4.917e-11
5.926e-10
-5.391e-11
6.119e-10
-5.873e-11
6.328e-10
-6.36e-11
6.553e-10
-6.848e-11
6.793e-10
-7.33e-11
7.048e-10
-7.8e-11
7.318e-10
-8.25e-11
7.601e-10
-8.669e-11
7.896e-10
-9.048e-11
8.201e-10
-9.374e-11
8.514e-10
-9.635e-11
8.833e-10
-9.815e-11
9.154e-10
-9.903e-11
9.475e-10
-9.883e-11
9.791e-10
-9.744e-11
1.01e-09
-9.474e-11
1.039e-09
-9.065e-11
1.067e-09
-8.511e-11
1.092e-09
-7.813e-11
1.115e-09
-6.974e-11
1.134e-09
-6.003e-11
1.15e-09
-4.916e-11
1.162e-09
-3.733e-11
1.17e-09
-2.48e-11
1.174e-09
-1.184e-11
1.174e-09
1.246e-12
1.169e-09
1.416e-11
1.161e-09
2.664e-11
1.148e-09
3.844e-11
1.133e-09
4.935e-11
1.113e-09
5.923e-11
1.092e-09
6.796e-11
1.067e-09
7.547e-11
1.041e-09
8.174e-11
1.013e-09
8.677e-11
9.834e-10
9.057e-11
9.532e-10
9.321e-11
9.224e-10
9.476e-11
8.914e-10
9.529e-11
8.605e-10
9.491e-11
8.3e-10
9.371e-11
8e-10
9.179e-11
7.708e-10
8.928e-11
7.426e-10
8.627e-11
7.154e-10
8.285e-11
6.894e-10
7.914e-11
6.646e-10
7.52e-11
6.412e-10
7.113e-11
6.191e-10
6.698e-11
5.983e-10
6.282e-11
5.788e-10
5.87e-11
5.607e-10
5.467e-11
5.438e-10
5.074e-11
5.282e-10
4.696e-11
5.137e-10
4.334e-11
5.004e-10
3.989e-11
4.881e-10
3.663e-11
4.768e-10
3.356e-11
4.665e-10
3.069e-11
4.571e-10
2.8e-11
4.485e-10
2.55e-11
4.406e-10
2.318e-11
4.335e-10
2.103e-11
4.271e-10
1.906e-11
4.212e-10
1.724e-11
4.159e-10
1.557e-11
4.111e-10
1.404e-11
4.068e-10
1.265e-11
4.029e-10
1.138e-11
3.993e-10
1.022e-11
3.962e-10
9.166e-12
3.934e-10
8.214e-12
3.908e-10
7.354e-12
3.885e-10
6.58e-12
3.865e-10
5.885e-12
3.847e-10
5.264e-12
3.83e-10
4.714e-12
3.815e-10
4.23e-12
3.802e-10
3.81e-12
3.79e-10
3.452e-12
3.779e-10
3.154e-12
3.769e-10
2.916e-12
3.76e-10
2.738e-12
3.751e-10
2.62e-12
3.743e-10
2.562e-12
3.735e-10
2.559e-12
3.728e-10
2.603e-12
3.721e-10
2.674e-12
2.729e-12
9.592e-10
1.08e-10
9.875e-10
2.479e-10
1.003e-09
3.192e-10
1e-09
3.415e-10
9.823e-10
3.346e-10
9.541e-10
3.123e-10
9.199e-10
2.833e-10
8.831e-10
2.527e-10
8.46e-10
2.231e-10
8.103e-10
1.957e-10
7.767e-10
1.711e-10
7.457e-10
1.492e-10
7.175e-10
1.299e-10
6.921e-10
1.129e-10
6.695e-10
9.788e-11
6.495e-10
8.461e-11
6.32e-10
7.284e-11
6.168e-10
6.233e-11
6.037e-10
5.289e-11
5.926e-10
4.436e-11
5.834e-10
3.659e-11
5.76e-10
2.944e-11
5.703e-10
2.281e-11
5.661e-10
1.66e-11
5.635e-10
1.072e-11
5.623e-10
5.101e-12
5.626e-10
-3.338e-13
5.643e-10
-5.643e-12
5.674e-10
-1.088e-11
5.719e-10
-1.61e-11
5.779e-10
-2.134e-11
5.852e-10
-2.664e-11
5.941e-10
-3.204e-11
6.044e-10
-3.757e-11
6.163e-10
-4.323e-11
6.297e-10
-4.906e-11
6.447e-10
-5.506e-11
6.614e-10
-6.123e-11
6.798e-10
-6.756e-11
6.999e-10
-7.402e-11
7.218e-10
-8.059e-11
7.454e-10
-8.723e-11
7.708e-10
-9.386e-11
7.979e-10
-1.004e-10
8.267e-10
-1.068e-10
8.571e-10
-1.129e-10
8.89e-10
-1.186e-10
9.222e-10
-1.237e-10
9.567e-10
-1.281e-10
9.92e-10
-1.317e-10
1.028e-09
-1.341e-10
1.064e-09
-1.353e-10
1.1e-09
-1.35e-10
1.136e-09
-1.331e-10
1.171e-09
-1.294e-10
1.204e-09
-1.238e-10
1.235e-09
-1.163e-10
1.264e-09
-1.067e-10
1.289e-09
-9.53e-11
1.311e-09
-8.206e-11
1.329e-09
-6.723e-11
1.343e-09
-5.108e-11
1.352e-09
-3.397e-11
1.357e-09
-1.627e-11
1.356e-09
1.593e-12
1.351e-09
1.923e-11
1.342e-09
3.626e-11
1.328e-09
5.236e-11
1.31e-09
6.725e-11
1.288e-09
8.073e-11
1.264e-09
9.266e-11
1.236e-09
1.029e-10
1.206e-09
1.115e-10
1.175e-09
1.184e-10
1.142e-09
1.236e-10
1.108e-09
1.273e-10
1.073e-09
1.294e-10
1.038e-09
1.302e-10
1.003e-09
1.298e-10
9.686e-10
1.282e-10
9.348e-10
1.256e-10
9.018e-10
1.223e-10
8.699e-10
1.182e-10
8.391e-10
1.136e-10
8.097e-10
1.086e-10
7.817e-10
1.032e-10
7.551e-10
9.769e-11
7.3e-10
9.206e-11
7.065e-10
8.641e-11
6.844e-10
8.08e-11
6.637e-10
7.529e-11
6.445e-10
6.994e-11
6.267e-10
6.478e-11
6.102e-10
5.983e-11
5.95e-10
5.512e-11
5.81e-10
5.065e-11
5.681e-10
4.645e-11
5.563e-10
4.25e-11
5.455e-10
3.881e-11
5.356e-10
3.537e-11
5.266e-10
3.218e-11
5.184e-10
2.923e-11
5.109e-10
2.651e-11
5.042e-10
2.4e-11
4.981e-10
2.17e-11
4.925e-10
1.959e-11
4.875e-10
1.766e-11
4.83e-10
1.589e-11
4.789e-10
1.429e-11
4.752e-10
1.283e-11
4.719e-10
1.151e-11
4.69e-10
1.032e-11
4.663e-10
9.238e-12
4.639e-10
8.269e-12
4.618e-10
7.403e-12
4.599e-10
6.632e-12
4.582e-10
5.953e-12
4.566e-10
5.359e-12
4.552e-10
4.849e-12
4.54e-10
4.419e-12
4.528e-10
4.067e-12
4.517e-10
3.793e-12
4.508e-10
3.595e-12
4.499e-10
3.469e-12
4.49e-10
3.411e-12
4.482e-10
3.409e-12
4.474e-10
3.442e-12
3.476e-12
9.536e-10
9.186e-11
9.794e-10
2.22e-10
9.995e-10
2.991e-10
1.007e-09
3.337e-10
1.002e-09
3.394e-10
9.874e-10
3.275e-10
9.649e-10
3.058e-10
9.381e-10
2.796e-10
9.09e-10
2.521e-10
8.794e-10
2.253e-10
8.504e-10
2.001e-10
8.228e-10
1.768e-10
7.971e-10
1.557e-10
7.734e-10
1.366e-10
7.519e-10
1.194e-10
7.326e-10
1.039e-10
7.155e-10
8.996e-11
7.005e-10
7.735e-11
6.875e-10
6.589e-11
6.764e-10
5.543e-11
6.672e-10
4.581e-11
6.597e-10
3.689e-11
6.54e-10
2.857e-11
6.499e-10
2.072e-11
6.473e-10
1.326e-11
6.463e-10
6.088e-12
6.469e-10
-8.683e-13
6.489e-10
-7.683e-12
6.525e-10
-1.442e-11
6.575e-10
-2.115e-11
6.641e-10
-2.791e-11
6.722e-10
-3.476e-11
6.819e-10
-4.173e-11
6.932e-10
-4.887e-11
7.061e-10
-5.619e-11
7.208e-10
-6.372e-11
7.372e-10
-7.146e-11
7.554e-10
-7.942e-11
7.754e-10
-8.758e-11
7.973e-10
-9.591e-11
8.211e-10
-1.044e-10
8.468e-10
-1.129e-10
8.744e-10
-1.215e-10
9.038e-10
-1.299e-10
9.351e-10
-1.381e-10
9.682e-10
-1.46e-10
1.003e-09
-1.533e-10
1.039e-09
-1.599e-10
1.076e-09
-1.656e-10
1.115e-09
-1.701e-10
1.154e-09
-1.733e-10
1.194e-09
-1.748e-10
1.233e-09
-1.744e-10
1.272e-09
-1.72e-10
1.31e-09
-1.673e-10
1.346e-09
-1.601e-10
1.38e-09
-1.504e-10
1.412e-09
-1.381e-10
1.44e-09
-1.234e-10
1.464e-09
-1.063e-10
1.484e-09
-8.708e-11
1.499e-09
-6.619e-11
1.509e-09
-4.404e-11
1.514e-09
-2.114e-11
1.513e-09
1.984e-12
1.508e-09
2.48e-11
1.497e-09
4.682e-11
1.482e-09
6.762e-11
1.462e-09
8.685e-11
1.439e-09
1.043e-10
1.412e-09
1.196e-10
1.382e-09
1.329e-10
1.349e-09
1.44e-10
1.315e-09
1.529e-10
1.279e-09
1.597e-10
1.242e-09
1.644e-10
1.204e-09
1.672e-10
1.166e-09
1.683e-10
1.128e-09
1.677e-10
1.09e-09
1.657e-10
1.054e-09
1.625e-10
1.018e-09
1.582e-10
9.829e-10
1.53e-10
9.494e-10
1.471e-10
9.173e-10
1.406e-10
8.868e-10
1.338e-10
8.578e-10
1.267e-10
8.304e-10
1.194e-10
8.047e-10
1.121e-10
7.805e-10
1.049e-10
7.58e-10
9.784e-11
7.37e-10
9.094e-11
7.175e-10
8.428e-11
6.994e-10
7.789e-11
6.828e-10
7.18e-11
6.674e-10
6.603e-11
6.532e-10
6.059e-11
6.403e-10
5.548e-11
6.284e-10
5.07e-11
6.175e-10
4.625e-11
6.076e-10
4.211e-11
5.985e-10
3.828e-11
5.903e-10
3.474e-11
5.828e-10
3.147e-11
5.76e-10
2.848e-11
5.699e-10
2.573e-11
5.643e-10
2.321e-11
5.593e-10
2.091e-11
5.548e-10
1.882e-11
5.507e-10
1.691e-11
5.47e-10
1.518e-11
5.437e-10
1.362e-11
5.408e-10
1.22e-11
5.381e-10
1.093e-11
5.357e-10
9.793e-12
5.336e-10
8.777e-12
5.317e-10
7.877e-12
5.299e-10
7.089e-12
5.284e-10
6.405e-12
5.27e-10
5.823e-12
5.257e-10
5.339e-12
5.245e-10
4.95e-12
5.235e-10
4.653e-12
5.225e-10
4.443e-12
5.216e-10
4.314e-12
5.208e-10
4.253e-12
5.2e-10
4.242e-12
4.253e-12
9.498e-10
7.96e-11
9.724e-10
1.994e-10
9.938e-10
2.778e-10
1.007e-09
3.201e-10
1.011e-09
3.355e-10
1.006e-09
3.326e-10
9.937e-10
3.182e-10
9.76e-10
2.973e-10
9.549e-10
2.732e-10
9.32e-10
2.482e-10
9.085e-10
2.235e-10
8.853e-10
2e-10
8.63e-10
1.78e-10
8.42e-10
1.575e-10
8.226e-10
1.388e-10
8.049e-10
1.216e-10
7.89e-10
1.059e-10
7.749e-10
9.146e-11
7.625e-10
7.821e-11
7.52e-10
6.597e-11
7.432e-10
5.462e-11
7.361e-10
4.401e-11
7.306e-10
3.404e-11
7.267e-10
2.458e-11
7.245e-10
1.553e-11
7.238e-10
6.802e-12
7.246e-10
-1.701e-12
7.27e-10
-1.006e-11
7.309e-10
-1.834e-11
7.364e-10
-2.663e-11
7.434e-10
-3.497e-11
7.521e-10
-4.343e-11
7.624e-10
-5.205e-11
7.744e-10
-6.087e-11
7.881e-10
-6.992e-11
8.036e-10
-7.923e-11
8.21e-10
-8.88e-11
8.402e-10
-9.864e-11
8.613e-10
-1.087e-10
8.845e-10
-1.19e-10
9.096e-10
-1.295e-10
9.367e-10
-1.4e-10
9.658e-10
-1.506e-10
9.97e-10
-1.61e-10
1.03e-09
-1.712e-10
1.065e-09
-1.809e-10
1.102e-09
-1.9e-10
1.14e-09
-1.982e-10
1.18e-09
-2.052e-10
1.22e-09
-2.109e-10
1.262e-09
-2.148e-10
1.304e-09
-2.168e-10
1.346e-09
-2.164e-10
1.387e-09
-2.135e-10
1.428e-09
-2.077e-10
1.467e-09
-1.989e-10
1.503e-09
-1.87e-10
1.537e-09
-1.718e-10
1.567e-09
-1.535e-10
1.593e-09
-1.323e-10
1.614e-09
-1.084e-10
1.631e-09
-8.243e-11
1.641e-09
-5.485e-11
1.647e-09
-2.633e-11
1.646e-09
2.456e-12
1.64e-09
3.084e-11
1.629e-09
5.82e-11
1.612e-09
8.402e-11
1.591e-09
1.079e-10
1.566e-09
1.294e-10
1.537e-09
1.485e-10
1.505e-09
1.649e-10
1.471e-09
1.786e-10
1.434e-09
1.896e-10
1.396e-09
1.98e-10
1.356e-09
2.039e-10
1.316e-09
2.074e-10
1.276e-09
2.087e-10
1.235e-09
2.08e-10
1.195e-09
2.056e-10
1.156e-09
2.016e-10
1.118e-09
1.963e-10
1.081e-09
1.898e-10
1.046e-09
1.826e-10
1.012e-09
1.746e-10
9.796e-10
1.661e-10
9.489e-10
1.574e-10
9.199e-10
1.484e-10
8.927e-10
1.394e-10
8.671e-10
1.305e-10
8.432e-10
1.217e-10
8.21e-10
1.132e-10
8.003e-10
1.05e-10
7.811e-10
9.706e-11
7.634e-10
8.952e-11
7.47e-10
8.237e-11
7.32e-10
7.563e-11
7.182e-10
6.929e-11
7.055e-10
6.336e-11
6.939e-10
5.783e-11
6.834e-10
5.269e-11
6.737e-10
4.793e-11
6.649e-10
4.352e-11
6.569e-10
3.946e-11
6.497e-10
3.573e-11
6.431e-10
3.23e-11
6.372e-10
2.917e-11
6.318e-10
2.63e-11
6.269e-10
2.368e-11
6.225e-10
2.13e-11
6.186e-10
1.914e-11
6.15e-10
1.717e-11
6.118e-10
1.54e-11
6.089e-10
1.381e-11
6.064e-10
1.237e-11
6.04e-10
1.109e-11
6.02e-10
9.954e-12
6.001e-10
8.953e-12
5.984e-10
8.08e-12
5.969e-10
7.329e-12
5.956e-10
6.697e-12
5.943e-10
6.178e-12
5.932e-10
5.768e-12
5.922e-10
5.46e-12
5.913e-10
5.248e-12
5.904e-10
5.12e-12
5.896e-10
5.06e-12
5.044e-12
9.471e-10
6.995e-11
9.668e-10
1.798e-10
9.877e-10
2.568e-10
1.004e-09
3.035e-10
1.014e-09
3.259e-10
1.016e-09
3.304e-10
1.012e-09
3.227e-10
1.002e-09
3.072e-10
9.879e-10
2.87e-10
9.715e-10
2.646e-10
9.537e-10
2.414e-10
9.353e-10
2.184e-10
9.17e-10
1.962e-10
8.993e-10
1.752e-10
8.826e-10
1.555e-10
8.671e-10
1.371e-10
8.53e-10
1.2e-10
8.403e-10
1.041e-10
8.291e-10
8.936e-11
8.195e-10
7.557e-11
8.115e-10
6.266e-11
8.05e-10
5.05e-11
8.001e-10
3.898e-11
7.967e-10
2.799e-11
7.948e-10
1.741e-11
7.944e-10
7.16e-12
7.956e-10
-2.866e-12
7.983e-10
-1.275e-11
8.025e-10
-2.258e-11
8.083e-10
-3.243e-11
8.157e-10
-4.237e-11
8.248e-10
-5.245e-11
8.354e-10
-6.274e-11
8.479e-10
-7.328e-11
8.62e-10
-8.409e-11
8.78e-10
-9.522e-11
8.959e-10
-1.067e-10
9.157e-10
-1.184e-10
9.375e-10
-1.305e-10
9.613e-10
-1.428e-10
9.871e-10
-1.553e-10
1.015e-09
-1.68e-10
1.045e-09
-1.806e-10
1.077e-09
-1.931e-10
1.111e-09
-2.053e-10
1.147e-09
-2.17e-10
1.185e-09
-2.279e-10
1.225e-09
-2.378e-10
1.266e-09
-2.463e-10
1.308e-09
-2.532e-10
1.351e-09
-2.581e-10
1.395e-09
-2.605e-10
1.439e-09
-2.603e-10
1.482e-09
-2.569e-10
1.525e-09
-2.501e-10
1.566e-09
-2.397e-10
1.604e-09
-2.254e-10
1.639e-09
-2.073e-10
1.671e-09
-1.853e-10
1.699e-09
-1.597e-10
1.721e-09
-1.31e-10
1.738e-09
-9.958e-11
1.75e-09
-6.623e-11
1.755e-09
-3.174e-11
1.755e-09
3.055e-12
1.748e-09
3.732e-11
1.736e-09
7.032e-11
1.719e-09
1.014e-10
1.696e-09
1.301e-10
1.67e-09
1.559e-10
1.64e-09
1.788e-10
1.606e-09
1.984e-10
1.57e-09
2.148e-10
1.532e-09
2.28e-10
1.492e-09
2.38e-10
1.451e-09
2.45e-10
1.409e-09
2.492e-10
1.367e-09
2.507e-10
1.325e-09
2.499e-10
1.284e-09
2.469e-10
1.243e-09
2.421e-10
1.204e-09
2.357e-10
1.165e-09
2.28e-10
1.129e-09
2.193e-10
1.094e-09
2.097e-10
1.06e-09
1.996e-10
1.028e-09
1.891e-10
9.985e-10
1.784e-10
9.703e-10
1.676e-10
9.439e-10
1.569e-10
9.192e-10
1.464e-10
8.962e-10
1.362e-10
8.748e-10
1.263e-10
8.55e-10
1.169e-10
8.367e-10
1.078e-10
8.198e-10
9.927e-11
8.042e-10
9.119e-11
7.9e-10
8.359e-11
7.768e-10
7.647e-11
7.648e-10
6.984e-11
7.539e-10
6.366e-11
7.438e-10
5.794e-11
7.347e-10
5.265e-11
7.264e-10
4.777e-11
7.189e-10
4.328e-11
7.12e-10
3.915e-11
7.058e-10
3.537e-11
7.002e-10
3.191e-11
6.951e-10
2.876e-11
6.906e-10
2.588e-11
6.864e-10
2.327e-11
6.827e-10
2.09e-11
6.794e-10
1.875e-11
6.763e-10
1.681e-11
6.736e-10
1.507e-11
6.712e-10
1.352e-11
6.69e-10
1.213e-11
6.671e-10
1.09e-11
6.653e-10
9.829e-12
6.638e-10
8.899e-12
6.624e-10
8.107e-12
6.611e-10
7.447e-12
6.6e-10
6.913e-12
6.589e-10
6.498e-12
6.58e-10
6.195e-12
6.571e-10
5.993e-12
6.563e-10
5.879e-12
5.836e-12
9.453e-10
6.213e-11
9.624e-10
1.627e-10
9.823e-10
2.369e-10
1e-09
2.856e-10
1.013e-09
3.128e-10
1.021e-09
3.231e-10
1.022e-09
3.211e-10
1.019e-09
3.106e-10
1.011e-09
2.945e-10
1.001e-09
2.75e-10
9.885e-10
2.538e-10
9.749e-10
2.32e-10
9.608e-10
2.103e-10
9.467e-10
1.893e-10
9.331e-10
1.692e-10
9.201e-10
1.5e-10
9.082e-10
1.32e-10
8.973e-10
1.15e-10
8.877e-10
9.9e-11
8.793e-10
8.392e-11
8.723e-10
6.966e-11
8.667e-10
5.612e-11
8.625e-10
4.321e-11
8.597e-10
3.08e-11
8.583e-10
1.88e-11
8.583e-10
7.106e-12
8.598e-10
-4.376e-12
8.628e-10
-1.574e-11
8.673e-10
-2.707e-11
8.733e-10
-3.845e-11
8.809e-10
-4.995e-11
8.901e-10
-6.164e-11
9.009e-10
-7.358e-11
9.135e-10
-8.581e-11
9.278e-10
-9.839e-11
9.439e-10
-1.113e-10
9.619e-10
-1.247e-10
9.818e-10
-1.384e-10
1.004e-09
-1.524e-10
1.028e-09
-1.668e-10
1.054e-09
-1.814e-10
1.082e-09
-1.961e-10
1.112e-09
-2.109e-10
1.144e-09
-2.255e-10
1.179e-09
-2.398e-10
1.215e-09
-2.535e-10
1.254e-09
-2.663e-10
1.294e-09
-2.779e-10
1.336e-09
-2.881e-10
1.379e-09
-2.963e-10
1.423e-09
-3.022e-10
1.468e-09
-3.053e-10
1.513e-09
-3.052e-10
1.557e-09
-3.015e-10
1.601e-09
-2.938e-10
1.643e-09
-2.818e-10
1.683e-09
-2.653e-10
1.72e-09
-2.441e-10
1.753e-09
-2.184e-10
1.781e-09
-1.884e-10
1.805e-09
-1.545e-10
1.823e-09
-1.174e-10
1.835e-09
-7.802e-11
1.84e-09
-3.725e-11
1.839e-09
3.842e-12
1.832e-09
4.425e-11
1.82e-09
8.309e-11
1.801e-09
1.196e-10
1.778e-09
1.532e-10
1.751e-09
1.834e-10
1.719e-09
2.101e-10
1.685e-09
2.33e-10
1.648e-09
2.521e-10
1.608e-09
2.674e-10
1.567e-09
2.79e-10
1.525e-09
2.871e-10
1.483e-09
2.919e-10
1.44e-09
2.936e-10
1.397e-09
2.925e-10
1.355e-09
2.89e-10
1.314e-09
2.833e-10
1.274e-09
2.758e-10
1.235e-09
2.667e-10
1.198e-09
2.565e-10
1.162e-09
2.453e-10
1.128e-09
2.334e-10
1.096e-09
2.211e-10
1.066e-09
2.086e-10
1.037e-09
1.961e-10
1.011e-09
1.836e-10
9.859e-10
1.713e-10
9.627e-10
1.594e-10
9.411e-10
1.479e-10
9.211e-10
1.369e-10
9.026e-10
1.263e-10
8.856e-10
1.163e-10
8.699e-10
1.069e-10
8.554e-10
9.803e-11
8.422e-10
8.972e-11
8.3e-10
8.197e-11
8.19e-10
7.476e-11
8.088e-10
6.807e-11
7.996e-10
6.189e-11
7.912e-10
5.618e-11
7.835e-10
5.092e-11
7.766e-10
4.609e-11
7.703e-10
4.166e-11
7.646e-10
3.761e-11
7.594e-10
3.391e-11
7.548e-10
3.054e-11
7.506e-10
2.747e-11
7.468e-10
2.468e-11
7.434e-10
2.216e-11
7.403e-10
1.988e-11
7.375e-10
1.783e-11
7.351e-10
1.599e-11
7.329e-10
1.435e-11
7.309e-10
1.289e-11
7.291e-10
1.161e-11
7.275e-10
1.049e-11
7.261e-10
9.534e-12
7.248e-10
8.726e-12
7.236e-10
8.061e-12
7.226e-10
7.533e-12
7.217e-10
7.134e-12
7.208e-10
6.854e-12
7.2e-10
6.684e-12
6.613e-12
9.44e-10
5.562e-11
9.59e-10
1.478e-10
9.775e-10
2.184e-10
9.957e-10
2.674e-10
1.011e-09
2.976e-10
1.022e-09
3.123e-10
1.028e-09
3.15e-10
1.03e-09
3.088e-10
1.028e-09
2.965e-10
1.022e-09
2.801e-10
1.015e-09
2.612e-10
1.006e-09
2.41e-10
9.96e-10
2.203e-10
9.856e-10
1.997e-10
9.751e-10
1.796e-10
9.65e-10
1.602e-10
9.554e-10
1.416e-10
9.466e-10
1.238e-10
9.387e-10
1.069e-10
9.318e-10
9.08e-11
9.26e-10
7.543e-11
9.214e-10
6.073e-11
9.18e-10
4.659e-11
9.159e-10
3.292e-11
9.151e-10
1.963e-11
9.156e-10
6.617e-12
9.174e-10
-6.216e-12
9.206e-10
-1.896e-11
9.253e-10
-3.171e-11
9.314e-10
-4.454e-11
9.39e-10
-5.754e-11
9.481e-10
-7.077e-11
9.588e-10
-8.431e-11
9.712e-10
-9.82e-11
9.853e-10
-1.125e-10
1.001e-09
-1.272e-10
1.019e-09
-1.424e-10
1.038e-09
-1.579e-10
1.06e-09
-1.74e-10
1.084e-09
-1.903e-10
1.109e-09
-2.07e-10
1.137e-09
-2.238e-10
1.167e-09
-2.407e-10
1.199e-09
-2.575e-10
1.233e-09
-2.739e-10
1.269e-09
-2.896e-10
1.307e-09
-3.044e-10
1.347e-09
-3.179e-10
1.389e-09
-3.297e-10
1.432e-09
-3.394e-10
1.476e-09
-3.464e-10
1.521e-09
-3.503e-10
1.567e-09
-3.505e-10
1.612e-09
-3.466e-10
1.656e-09
-3.382e-10
1.699e-09
-3.247e-10
1.74e-09
-3.06e-10
1.777e-09
-2.819e-10
1.811e-09
-2.524e-10
1.841e-09
-2.178e-10
1.865e-09
-1.787e-10
1.883e-09
-1.358e-10
1.895e-09
-9.004e-11
1.901e-09
-4.274e-11
1.9e-09
4.889e-12
1.893e-09
5.163e-11
1.879e-09
9.643e-11
1.86e-09
1.384e-10
1.837e-09
1.77e-10
1.808e-09
2.116e-10
1.777e-09
2.42e-10
1.741e-09
2.681e-10
1.704e-09
2.898e-10
1.664e-09
3.071e-10
1.623e-09
3.203e-10
1.58e-09
3.294e-10
1.537e-09
3.347e-10
1.494e-09
3.366e-10
1.452e-09
3.352e-10
1.41e-09
3.311e-10
1.368e-09
3.244e-10
1.328e-09
3.157e-10
1.29e-09
3.053e-10
1.253e-09
2.935e-10
1.218e-09
2.806e-10
1.184e-09
2.67e-10
1.152e-09
2.529e-10
1.122e-09
2.386e-10
1.094e-09
2.242e-10
1.068e-09
2.099e-10
1.043e-09
1.959e-10
1.02e-09
1.823e-10
9.99e-10
1.692e-10
9.793e-10
1.566e-10
9.611e-10
1.445e-10
9.443e-10
1.331e-10
9.288e-10
1.224e-10
9.146e-10
1.123e-10
9.015e-10
1.028e-10
8.896e-10
9.394e-11
8.786e-10
8.571e-11
8.686e-10
7.807e-11
8.595e-10
7.101e-11
8.512e-10
6.449e-11
8.436e-10
5.848e-11
8.367e-10
5.296e-11
8.305e-10
4.79e-11
8.249e-10
4.326e-11
8.198e-10
3.902e-11
8.151e-10
3.516e-11
8.11e-10
3.164e-11
8.072e-10
2.845e-11
8.038e-10
2.555e-11
8.008e-10
2.293e-11
7.98e-10
2.057e-11
7.956e-10
1.845e-11
7.934e-10
1.655e-11
7.914e-10
1.486e-11
7.896e-10
1.337e-11
7.881e-10
1.207e-11
7.866e-10
1.094e-11
7.854e-10
9.984e-12
7.843e-10
9.187e-12
7.833e-10
8.543e-12
7.823e-10
8.045e-12
7.815e-10
7.686e-12
7.807e-10
7.46e-12
7.361e-12
9.43e-10
5.008e-11
9.563e-10
1.345e-10
9.735e-10
2.011e-10
9.914e-10
2.495e-10
1.008e-09
2.813e-10
1.021e-09
2.991e-10
1.03e-09
3.054e-10
1.036e-09
3.031e-10
1.039e-09
2.942e-10
1.038e-09
2.807e-10
1.035e-09
2.642e-10
1.03e-09
2.458e-10
1.024e-09
2.264e-10
1.017e-09
2.066e-10
1.01e-09
1.869e-10
1.003e-09
1.675e-10
9.954e-10
1.487e-10
9.887e-10
1.305e-10
9.827e-10
1.13e-10
9.774e-10
9.61e-11
9.73e-10
7.987e-11
9.695e-10
6.421e-11
9.67e-10
4.905e-11
9.656e-10
3.431e-11
9.654e-10
1.989e-11
9.663e-10
5.697e-12
9.684e-10
-8.352e-12
9.718e-10
-2.236e-11
9.765e-10
-3.641e-11
9.826e-10
-5.059e-11
9.9e-10
-6.498e-11
9.989e-10
-7.966e-11
1.009e-09
-9.47e-11
1.021e-09
-1.101e-10
1.035e-09
-1.261e-10
1.05e-09
-1.425e-10
1.067e-09
-1.594e-10
1.086e-09
-1.768e-10
1.107e-09
-1.947e-10
1.129e-09
-2.13e-10
1.154e-09
-2.317e-10
1.181e-09
-2.506e-10
1.21e-09
-2.696e-10
1.24e-09
-2.884e-10
1.274e-09
-3.069e-10
1.309e-09
-3.247e-10
1.346e-09
-3.416e-10
1.385e-09
-3.57e-10
1.426e-09
-3.705e-10
1.468e-09
-3.817e-10
1.512e-09
-3.9e-10
1.556e-09
-3.948e-10
1.601e-09
-3.955e-10
1.646e-09
-3.916e-10
1.69e-09
-3.825e-10
1.733e-09
-3.678e-10
1.774e-09
-3.47e-10