/*--------------------------------*- C++ -*----------------------------------*\
  =========                 |
  \\      /  F ield         | OpenFOAM: The Open Source CFD Toolbox
   \\    /   O peration     | Website:  https://openfoam.org
    \\  /    A nd           | Version:  7
     \\/     M anipulation  |
\*---------------------------------------------------------------------------*/
FoamFile
{
    version     2.0;
    format      ascii;
    class       volVectorField;
    location    "1919.99947343015674";
    object      U;
}
// * * * * * * * * * * * * * * * * * * * * * * * * * * * * * * * * * * * * * //

dimensions      [0 1 -1 0 0 0 0];

internalField   nonuniform List<vector> 
4096
(
(0.001039 0.0001611 0)
(0.0007463 0.0001314 0)
(0.0005302 8.473e-05 0)
(0.0003919 5.358e-05 0)
(0.0003036 3.467e-05 0)
(0.0002457 2.328e-05 0)
(0.0002061 1.633e-05 0)
(0.0001778 1.195e-05 0)
(0.0001568 9.062e-06 0)
(0.0001406 7.075e-06 0)
(0.0001279 5.648e-06 0)
(0.0001177 4.586e-06 0)
(0.0001093 3.771e-06 0)
(0.0001024 3.13e-06 0)
(9.669e-05 2.614e-06 0)
(9.189e-05 2.191e-06 0)
(8.786e-05 1.838e-06 0)
(8.448e-05 1.54e-06 0)
(8.166e-05 1.284e-06 0)
(7.931e-05 1.062e-06 0)
(7.738e-05 8.654e-07 0)
(7.583e-05 6.903e-07 0)
(7.461e-05 5.317e-07 0)
(7.369e-05 3.861e-07 0)
(7.305e-05 2.507e-07 0)
(7.268e-05 1.228e-07 0)
(7.255e-05 3.307e-10 0)
(7.267e-05 -1.185e-07 0)
(7.303e-05 -2.353e-07 0)
(7.361e-05 -3.515e-07 0)
(7.443e-05 -4.684e-07 0)
(7.549e-05 -5.87e-07 0)
(7.678e-05 -7.083e-07 0)
(7.832e-05 -8.331e-07 0)
(8.012e-05 -9.622e-07 0)
(8.218e-05 -1.096e-06 0)
(8.451e-05 -1.235e-06 0)
(8.712e-05 -1.379e-06 0)
(9.003e-05 -1.528e-06 0)
(9.324e-05 -1.681e-06 0)
(9.676e-05 -1.839e-06 0)
(0.0001006 -2e-06 0)
(0.0001048 -2.163e-06 0)
(0.0001092 -2.325e-06 0)
(0.0001141 -2.485e-06 0)
(0.0001192 -2.64e-06 0)
(0.0001246 -2.786e-06 0)
(0.0001303 -2.921e-06 0)
(0.0001363 -3.039e-06 0)
(0.0001425 -3.137e-06 0)
(0.0001488 -3.208e-06 0)
(0.0001553 -3.249e-06 0)
(0.0001618 -3.255e-06 0)
(0.0001682 -3.219e-06 0)
(0.0001746 -3.139e-06 0)
(0.0001807 -3.012e-06 0)
(0.0001866 -2.834e-06 0)
(0.000192 -2.605e-06 0)
(0.000197 -2.327e-06 0)
(0.0002013 -2.002e-06 0)
(0.0002049 -1.637e-06 0)
(0.0002078 -1.238e-06 0)
(0.0002099 -8.137e-07 0)
(0.000211 -3.752e-07 0)
(0.0002113 6.711e-08 0)
(0.0002108 5.028e-07 0)
(0.0002094 9.219e-07 0)
(0.0002071 1.316e-06 0)
(0.0002041 1.678e-06 0)
(0.0002004 2.003e-06 0)
(0.0001961 2.287e-06 0)
(0.0001913 2.529e-06 0)
(0.0001861 2.727e-06 0)
(0.0001805 2.881e-06 0)
(0.0001746 2.995e-06 0)
(0.0001685 3.068e-06 0)
(0.0001624 3.105e-06 0)
(0.0001561 3.109e-06 0)
(0.00015 3.082e-06 0)
(0.0001438 3.029e-06 0)
(0.0001379 2.953e-06 0)
(0.000132 2.859e-06 0)
(0.0001264 2.749e-06 0)
(0.0001211 2.628e-06 0)
(0.0001159 2.498e-06 0)
(0.0001111 2.362e-06 0)
(0.0001065 2.223e-06 0)
(0.0001022 2.083e-06 0)
(9.816e-05 1.944e-06 0)
(9.441e-05 1.807e-06 0)
(9.093e-05 1.674e-06 0)
(8.771e-05 1.546e-06 0)
(8.474e-05 1.424e-06 0)
(8.201e-05 1.308e-06 0)
(7.95e-05 1.198e-06 0)
(7.721e-05 1.094e-06 0)
(7.512e-05 9.974e-07 0)
(7.321e-05 9.072e-07 0)
(7.148e-05 8.235e-07 0)
(6.991e-05 7.461e-07 0)
(6.849e-05 6.747e-07 0)
(6.721e-05 6.091e-07 0)
(6.605e-05 5.489e-07 0)
(6.501e-05 4.938e-07 0)
(6.407e-05 4.436e-07 0)
(6.323e-05 3.978e-07 0)
(6.247e-05 3.562e-07 0)
(6.18e-05 3.185e-07 0)
(6.12e-05 2.843e-07 0)
(6.066e-05 2.535e-07 0)
(6.018e-05 2.257e-07 0)
(5.975e-05 2.007e-07 0)
(5.937e-05 1.783e-07 0)
(5.904e-05 1.584e-07 0)
(5.874e-05 1.407e-07 0)
(5.847e-05 1.252e-07 0)
(5.824e-05 1.118e-07 0)
(5.802e-05 1.004e-07 0)
(5.783e-05 9.097e-08 0)
(5.766e-05 8.371e-08 0)
(5.749e-05 7.876e-08 0)
(5.734e-05 7.649e-08 0)
(5.719e-05 7.758e-08 0)
(5.702e-05 8.33e-08 0)
(5.685e-05 9.607e-08 0)
(5.663e-05 1.199e-07 0)
(5.635e-05 1.593e-07 0)
(5.598e-05 2.07e-07 0)
(0.001209 0.0003128 0)
(0.001154 0.0003282 0)
(0.00101 0.000248 0)
(0.0008613 0.0001771 0)
(0.0007345 0.0001262 0)
(0.0006327 9.147e-05 0)
(0.0005525 6.792e-05 0)
(0.0004894 5.177e-05 0)
(0.0004392 4.042e-05 0)
(0.0003988 3.221e-05 0)
(0.000366 2.61e-05 0)
(0.0003389 2.142e-05 0)
(0.0003165 1.776e-05 0)
(0.0002977 1.483e-05 0)
(0.0002819 1.245e-05 0)
(0.0002686 1.047e-05 0)
(0.0002573 8.818e-06 0)
(0.0002479 7.408e-06 0)
(0.0002399 6.192e-06 0)
(0.0002333 5.13e-06 0)
(0.0002278 4.191e-06 0)
(0.0002234 3.349e-06 0)
(0.0002199 2.585e-06 0)
(0.0002173 1.883e-06 0)
(0.0002154 1.228e-06 0)
(0.0002143 6.096e-07 0)
(0.000214 1.736e-08 0)
(0.0002143 -5.573e-07 0)
(0.0002152 -1.122e-06 0)
(0.0002169 -1.683e-06 0)
(0.0002192 -2.247e-06 0)
(0.0002221 -2.818e-06 0)
(0.0002257 -3.401e-06 0)
(0.0002301 -3.999e-06 0)
(0.0002351 -4.617e-06 0)
(0.0002408 -5.255e-06 0)
(0.0002473 -5.916e-06 0)
(0.0002546 -6.599e-06 0)
(0.0002627 -7.305e-06 0)
(0.0002716 -8.032e-06 0)
(0.0002814 -8.775e-06 0)
(0.000292 -9.53e-06 0)
(0.0003035 -1.029e-05 0)
(0.0003159 -1.105e-05 0)
(0.0003291 -1.179e-05 0)
(0.0003432 -1.251e-05 0)
(0.000358 -1.319e-05 0)
(0.0003736 -1.38e-05 0)
(0.0003898 -1.434e-05 0)
(0.0004066 -1.478e-05 0)
(0.0004238 -1.509e-05 0)
(0.0004412 -1.526e-05 0)
(0.0004587 -1.527e-05 0)
(0.0004761 -1.508e-05 0)
(0.0004932 -1.469e-05 0)
(0.0005097 -1.408e-05 0)
(0.0005253 -1.323e-05 0)
(0.0005398 -1.216e-05 0)
(0.0005529 -1.085e-05 0)
(0.0005645 -9.339e-06 0)
(0.0005742 -7.637e-06 0)
(0.0005818 -5.782e-06 0)
(0.0005873 -3.813e-06 0)
(0.0005905 -1.778e-06 0)
(0.0005914 2.766e-07 0)
(0.00059 2.302e-06 0)
(0.0005863 4.253e-06 0)
(0.0005804 6.093e-06 0)
(0.0005725 7.787e-06 0)
(0.0005628 9.313e-06 0)
(0.0005514 1.065e-05 0)
(0.0005386 1.18e-05 0)
(0.0005246 1.274e-05 0)
(0.0005096 1.348e-05 0)
(0.0004938 1.403e-05 0)
(0.0004775 1.44e-05 0)
(0.0004608 1.459e-05 0)
(0.000444 1.463e-05 0)
(0.0004273 1.453e-05 0)
(0.0004107 1.43e-05 0)
(0.0003944 1.396e-05 0)
(0.0003785 1.354e-05 0)
(0.0003631 1.304e-05 0)
(0.0003484 1.248e-05 0)
(0.0003343 1.188e-05 0)
(0.0003208 1.125e-05 0)
(0.0003082 1.06e-05 0)
(0.0002962 9.952e-06 0)
(0.000285 9.301e-06 0)
(0.0002746 8.661e-06 0)
(0.0002648 8.036e-06 0)
(0.0002558 7.433e-06 0)
(0.0002474 6.855e-06 0)
(0.0002397 6.303e-06 0)
(0.0002327 5.781e-06 0)
(0.0002262 5.29e-06 0)
(0.0002202 4.829e-06 0)
(0.0002148 4.399e-06 0)
(0.0002099 3.999e-06 0)
(0.0002054 3.628e-06 0)
(0.0002013 3.286e-06 0)
(0.0001976 2.971e-06 0)
(0.0001943 2.681e-06 0)
(0.0001913 2.416e-06 0)
(0.0001886 2.173e-06 0)
(0.0001861 1.952e-06 0)
(0.0001839 1.751e-06 0)
(0.000182 1.568e-06 0)
(0.0001802 1.402e-06 0)
(0.0001786 1.253e-06 0)
(0.0001772 1.117e-06 0)
(0.000176 9.957e-07 0)
(0.0001748 8.866e-07 0)
(0.0001738 7.892e-07 0)
(0.0001729 7.028e-07 0)
(0.0001721 6.268e-07 0)
(0.0001714 5.608e-07 0)
(0.0001708 5.045e-07 0)
(0.0001702 4.579e-07 0)
(0.0001697 4.213e-07 0)
(0.0001692 3.954e-07 0)
(0.0001687 3.814e-07 0)
(0.0001683 3.813e-07 0)
(0.0001678 3.986e-07 0)
(0.0001673 4.388e-07 0)
(0.0001668 5.095e-07 0)
(0.0001662 6.145e-07 0)
(0.0001656 7.241e-07 0)
(0.001226 0.0002775 0)
(0.001243 0.0004026 0)
(0.001194 0.0003664 0)
(0.001102 0.0002982 0)
(0.0009997 0.0002345 0)
(0.0009016 0.0001831 0)
(0.0008143 0.0001438 0)
(0.0007391 0.0001142 0)
(0.0006754 9.189e-05 0)
(0.0006217 7.486e-05 0)
(0.0005763 6.166e-05 0)
(0.000538 5.124e-05 0)
(0.0005055 4.289e-05 0)
(0.0004779 3.609e-05 0)
(0.0004544 3.048e-05 0)
(0.0004344 2.577e-05 0)
(0.0004173 2.179e-05 0)
(0.0004029 1.836e-05 0)
(0.0003907 1.539e-05 0)
(0.0003804 1.278e-05 0)
(0.000372 1.046e-05 0)
(0.0003651 8.378e-06 0)
(0.0003597 6.479e-06 0)
(0.0003556 4.727e-06 0)
(0.0003527 3.091e-06 0)
(0.000351 1.543e-06 0)
(0.0003504 5.933e-08 0)
(0.0003509 -1.381e-06 0)
(0.0003524 -2.796e-06 0)
(0.000355 -4.202e-06 0)
(0.0003586 -5.613e-06 0)
(0.0003632 -7.041e-06 0)
(0.0003689 -8.497e-06 0)
(0.0003757 -9.99e-06 0)
(0.0003835 -1.153e-05 0)
(0.0003925 -1.311e-05 0)
(0.0004027 -1.475e-05 0)
(0.0004141 -1.644e-05 0)
(0.0004267 -1.818e-05 0)
(0.0004406 -1.997e-05 0)
(0.0004558 -2.18e-05 0)
(0.0004724 -2.365e-05 0)
(0.0004902 -2.551e-05 0)
(0.0005094 -2.736e-05 0)
(0.0005299 -2.917e-05 0)
(0.0005516 -3.091e-05 0)
(0.0005745 -3.255e-05 0)
(0.0005985 -3.403e-05 0)
(0.0006235 -3.532e-05 0)
(0.0006493 -3.635e-05 0)
(0.0006757 -3.709e-05 0)
(0.0007025 -3.747e-05 0)
(0.0007293 -3.745e-05 0)
(0.000756 -3.696e-05 0)
(0.0007821 -3.597e-05 0)
(0.0008073 -3.444e-05 0)
(0.0008311 -3.236e-05 0)
(0.0008533 -2.971e-05 0)
(0.0008734 -2.652e-05 0)
(0.000891 -2.282e-05 0)
(0.0009058 -1.867e-05 0)
(0.0009175 -1.415e-05 0)
(0.0009259 -9.355e-06 0)
(0.0009309 -4.401e-06 0)
(0.0009323 6.006e-07 0)
(0.0009302 5.535e-06 0)
(0.0009246 1.03e-05 0)
(0.0009157 1.479e-05 0)
(0.0009038 1.894e-05 0)
(0.000889 2.268e-05 0)
(0.0008717 2.598e-05 0)
(0.0008522 2.88e-05 0)
(0.0008308 3.114e-05 0)
(0.0008079 3.3e-05 0)
(0.0007838 3.438e-05 0)
(0.0007588 3.532e-05 0)
(0.0007333 3.584e-05 0)
(0.0007075 3.598e-05 0)
(0.0006817 3.576e-05 0)
(0.0006561 3.524e-05 0)
(0.000631 3.445e-05 0)
(0.0006065 3.344e-05 0)
(0.0005827 3.225e-05 0)
(0.0005598 3.091e-05 0)
(0.0005379 2.946e-05 0)
(0.0005171 2.793e-05 0)
(0.0004973 2.636e-05 0)
(0.0004787 2.477e-05 0)
(0.0004612 2.318e-05 0)
(0.0004449 2.161e-05 0)
(0.0004296 2.007e-05 0)
(0.0004155 1.859e-05 0)
(0.0004023 1.716e-05 0)
(0.0003902 1.58e-05 0)
(0.0003791 1.451e-05 0)
(0.0003688 1.329e-05 0)
(0.0003594 1.215e-05 0)
(0.0003508 1.108e-05 0)
(0.000343 1.009e-05 0)
(0.0003359 9.164e-06 0)
(0.0003294 8.31e-06 0)
(0.0003235 7.522e-06 0)
(0.0003182 6.798e-06 0)
(0.0003133 6.133e-06 0)
(0.000309 5.525e-06 0)
(0.0003051 4.97e-06 0)
(0.0003015 4.464e-06 0)
(0.0002983 4.004e-06 0)
(0.0002955 3.586e-06 0)
(0.0002929 3.208e-06 0)
(0.0002906 2.866e-06 0)
(0.0002886 2.558e-06 0)
(0.0002867 2.282e-06 0)
(0.0002851 2.035e-06 0)
(0.0002836 1.815e-06 0)
(0.0002823 1.622e-06 0)
(0.0002812 1.453e-06 0)
(0.0002801 1.309e-06 0)
(0.0002791 1.188e-06 0)
(0.0002783 1.092e-06 0)
(0.0002775 1.021e-06 0)
(0.0002767 9.772e-07 0)
(0.000276 9.635e-07 0)
(0.0002753 9.838e-07 0)
(0.0002746 1.043e-06 0)
(0.0002738 1.145e-06 0)
(0.0002731 1.281e-06 0)
(0.0002724 1.401e-06 0)
(0.001224 0.0002275 0)
(0.00126 0.0004003 0)
(0.001258 0.0004193 0)
(0.001216 0.0003789 0)
(0.001149 0.000323 0)
(0.001073 0.0002686 0)
(0.0009973 0.0002216 0)
(0.0009259 0.0001829 0)
(0.0008614 0.0001515 0)
(0.0008041 0.0001262 0)
(0.0007539 0.0001058 0)
(0.0007102 8.916e-05 0)
(0.0006722 7.545e-05 0)
(0.0006393 6.405e-05 0)
(0.0006108 5.447e-05 0)
(0.0005863 4.633e-05 0)
(0.0005652 3.935e-05 0)
(0.0005472 3.33e-05 0)
(0.0005318 2.801e-05 0)
(0.0005189 2.332e-05 0)
(0.0005082 1.913e-05 0)
(0.0004994 1.534e-05 0)
(0.0004925 1.188e-05 0)
(0.0004872 8.672e-06 0)
(0.0004836 5.668e-06 0)
(0.0004814 2.82e-06 0)
(0.0004807 8.384e-08 0)
(0.0004814 -2.575e-06 0)
(0.0004835 -5.189e-06 0)
(0.0004869 -7.786e-06 0)
(0.0004917 -1.039e-05 0)
(0.0004978 -1.303e-05 0)
(0.0005053 -1.571e-05 0)
(0.0005142 -1.846e-05 0)
(0.0005246 -2.129e-05 0)
(0.0005364 -2.42e-05 0)
(0.0005498 -2.721e-05 0)
(0.0005647 -3.03e-05 0)
(0.0005813 -3.349e-05 0)
(0.0005994 -3.675e-05 0)
(0.0006193 -4.008e-05 0)
(0.0006409 -4.345e-05 0)
(0.0006641 -4.683e-05 0)
(0.0006891 -5.018e-05 0)
(0.0007157 -5.345e-05 0)
(0.0007439 -5.659e-05 0)
(0.0007736 -5.952e-05 0)
(0.0008048 -6.218e-05 0)
(0.0008371 -6.448e-05 0)
(0.0008704 -6.632e-05 0)
(0.0009045 -6.762e-05 0)
(0.0009391 -6.826e-05 0)
(0.0009737 -6.817e-05 0)
(0.001008 -6.724e-05 0)
(0.001042 -6.54e-05 0)
(0.001074 -6.26e-05 0)
(0.001105 -5.879e-05 0)
(0.001133 -5.397e-05 0)
(0.001159 -4.817e-05 0)
(0.001182 -4.145e-05 0)
(0.001201 -3.392e-05 0)
(0.001216 -2.573e-05 0)
(0.001227 -1.705e-05 0)
(0.001233 -8.08e-06 0)
(0.001235 9.805e-07 0)
(0.001233 9.924e-06 0)
(0.001226 1.856e-05 0)
(0.001214 2.672e-05 0)
(0.001199 3.426e-05 0)
(0.00118 4.107e-05 0)
(0.001158 4.708e-05 0)
(0.001133 5.225e-05 0)
(0.001105 5.654e-05 0)
(0.001076 5.996e-05 0)
(0.001045 6.254e-05 0)
(0.001013 6.43e-05 0)
(0.0009797 6.531e-05 0)
(0.0009464 6.561e-05 0)
(0.000913 6.528e-05 0)
(0.0008799 6.439e-05 0)
(0.0008474 6.301e-05 0)
(0.0008156 6.122e-05 0)
(0.0007847 5.909e-05 0)
(0.0007549 5.669e-05 0)
(0.0007264 5.408e-05 0)
(0.0006992 5.133e-05 0)
(0.0006735 4.849e-05 0)
(0.0006491 4.561e-05 0)
(0.0006262 4.273e-05 0)
(0.0006047 3.988e-05 0)
(0.0005847 3.709e-05 0)
(0.0005661 3.438e-05 0)
(0.0005488 3.178e-05 0)
(0.0005328 2.929e-05 0)
(0.0005181 2.692e-05 0)
(0.0005045 2.469e-05 0)
(0.0004921 2.259e-05 0)
(0.0004807 2.063e-05 0)
(0.0004703 1.879e-05 0)
(0.0004608 1.709e-05 0)
(0.0004521 1.552e-05 0)
(0.0004442 1.406e-05 0)
(0.0004371 1.272e-05 0)
(0.0004307 1.149e-05 0)
(0.0004248 1.036e-05 0)
(0.0004195 9.334e-06 0)
(0.0004148 8.394e-06 0)
(0.0004105 7.538e-06 0)
(0.0004066 6.76e-06 0)
(0.0004032 6.055e-06 0)
(0.0004001 5.418e-06 0)
(0.0003973 4.843e-06 0)
(0.0003948 4.326e-06 0)
(0.0003926 3.863e-06 0)
(0.0003906 3.451e-06 0)
(0.0003888 3.086e-06 0)
(0.0003872 2.768e-06 0)
(0.0003857 2.493e-06 0)
(0.0003844 2.262e-06 0)
(0.0003832 2.075e-06 0)
(0.0003821 1.931e-06 0)
(0.0003811 1.833e-06 0)
(0.0003802 1.784e-06 0)
(0.0003793 1.785e-06 0)
(0.0003784 1.839e-06 0)
(0.0003775 1.942e-06 0)
(0.0003767 2.075e-06 0)
(0.0003758 2.18e-06 0)
(0.001219 0.0001846 0)
(0.001255 0.0003713 0)
(0.001275 0.0004301 0)
(0.001264 0.0004211 0)
(0.001229 0.0003828 0)
(0.001178 0.0003356 0)
(0.00112 0.0002889 0)
(0.00106 0.0002466 0)
(0.001002 0.00021 0)
(0.0009485 0.0001789 0)
(0.0008993 0.0001526 0)
(0.000855 0.0001304 0)
(0.0008155 0.0001116 0)
(0.0007806 9.567e-05 0)
(0.0007499 8.199e-05 0)
(0.000723 7.02e-05 0)
(0.0006997 5.994e-05 0)
(0.0006795 5.095e-05 0)
(0.0006622 4.3e-05 0)
(0.0006475 3.591e-05 0)
(0.0006353 2.952e-05 0)
(0.0006253 2.371e-05 0)
(0.0006174 1.837e-05 0)
(0.0006114 1.34e-05 0)
(0.0006072 8.734e-06 0)
(0.0006048 4.29e-06 0)
(0.0006041 1.29e-08 0)
(0.0006051 -4.152e-06 0)
(0.0006077 -8.251e-06 0)
(0.0006119 -1.233e-05 0)
(0.0006177 -1.642e-05 0)
(0.0006251 -2.055e-05 0)
(0.0006342 -2.476e-05 0)
(0.0006449 -2.907e-05 0)
(0.0006574 -3.35e-05 0)
(0.0006716 -3.806e-05 0)
(0.0006876 -4.275e-05 0)
(0.0007056 -4.759e-05 0)
(0.0007254 -5.255e-05 0)
(0.0007471 -5.763e-05 0)
(0.0007709 -6.281e-05 0)
(0.0007966 -6.803e-05 0)
(0.0008244 -7.327e-05 0)
(0.0008541 -7.845e-05 0)
(0.0008858 -8.35e-05 0)
(0.0009194 -8.834e-05 0)
(0.0009548 -9.286e-05 0)
(0.0009918 -9.694e-05 0)
(0.00103 -0.0001005 0)
(0.00107 -0.0001033 0)
(0.00111 -0.0001052 0)
(0.001151 -0.0001062 0)
(0.001192 -0.000106 0)
(0.001233 -0.0001045 0)
(0.001273 -0.0001016 0)
(0.001311 -9.724e-05 0)
(0.001348 -9.13e-05 0)
(0.001382 -8.381e-05 0)
(0.001412 -7.481e-05 0)
(0.001439 -6.439e-05 0)
(0.001462 -5.272e-05 0)
(0.00148 -4.002e-05 0)
(0.001493 -2.657e-05 0)
(0.0015 -1.266e-05 0)
(0.001503 1.387e-06 0)
(0.0015 1.525e-05 0)
(0.001491 2.864e-05 0)
(0.001478 4.13e-05 0)
(0.00146 5.301e-05 0)
(0.001437 6.361e-05 0)
(0.001411 7.297e-05 0)
(0.001382 8.102e-05 0)
(0.001349 8.773e-05 0)
(0.001314 9.31e-05 0)
(0.001278 9.716e-05 0)
(0.001239 9.997e-05 0)
(0.0012 0.0001016 0)
(0.001161 0.0001021 0)
(0.001121 0.0001017 0)
(0.001082 0.0001004 0)
(0.001043 9.832e-05 0)
(0.001005 9.56e-05 0)
(0.0009685 9.234e-05 0)
(0.0009331 8.866e-05 0)
(0.000899 8.466e-05 0)
(0.0008666 8.042e-05 0)
(0.0008357 7.604e-05 0)
(0.0008066 7.158e-05 0)
(0.0007791 6.712e-05 0)
(0.0007534 6.269e-05 0)
(0.0007293 5.836e-05 0)
(0.0007069 5.415e-05 0)
(0.0006861 5.01e-05 0)
(0.0006668 4.622e-05 0)
(0.000649 4.253e-05 0)
(0.0006326 3.904e-05 0)
(0.0006176 3.575e-05 0)
(0.0006038 3.267e-05 0)
(0.0005911 2.98e-05 0)
(0.0005796 2.713e-05 0)
(0.000569 2.465e-05 0)
(0.0005595 2.236e-05 0)
(0.0005508 2.025e-05 0)
(0.0005429 1.831e-05 0)
(0.0005357 1.653e-05 0)
(0.0005293 1.491e-05 0)
(0.0005234 1.342e-05 0)
(0.0005182 1.206e-05 0)
(0.0005134 1.083e-05 0)
(0.0005091 9.713e-06 0)
(0.0005053 8.7e-06 0)
(0.0005019 7.786e-06 0)
(0.0004988 6.963e-06 0)
(0.000496 6.225e-06 0)
(0.0004935 5.566e-06 0)
(0.0004913 4.983e-06 0)
(0.0004893 4.471e-06 0)
(0.0004875 4.027e-06 0)
(0.0004859 3.65e-06 0)
(0.0004844 3.339e-06 0)
(0.0004831 3.093e-06 0)
(0.0004819 2.913e-06 0)
(0.0004807 2.801e-06 0)
(0.0004797 2.756e-06 0)
(0.0004786 2.776e-06 0)
(0.0004777 2.853e-06 0)
(0.0004767 2.96e-06 0)
(0.0004758 3.043e-06 0)
(0.001214 0.000152 0)
(0.001246 0.0003354 0)
(0.001274 0.0004182 0)
(0.001282 0.0004355 0)
(0.001269 0.000417 0)
(0.001239 0.0003817 0)
(0.001199 0.0003408 0)
(0.001154 0.0002999 0)
(0.001107 0.0002618 0)
(0.00106 0.0002276 0)
(0.001016 0.0001975 0)
(0.0009743 0.0001712 0)
(0.0009364 0.0001482 0)
(0.0009022 0.0001283 0)
(0.0008715 0.0001108 0)
(0.0008442 9.551e-05 0)
(0.0008202 8.201e-05 0)
(0.0007992 7.003e-05 0)
(0.0007811 5.933e-05 0)
(0.0007656 4.97e-05 0)
(0.0007527 4.095e-05 0)
(0.000742 3.293e-05 0)
(0.0007336 2.552e-05 0)
(0.0007273 1.859e-05 0)
(0.0007229 1.204e-05 0)
(0.0007205 5.792e-06 0)
(0.0007199 -2.423e-07 0)
(0.0007212 -6.131e-06 0)
(0.0007243 -1.194e-05 0)
(0.0007292 -1.772e-05 0)
(0.0007359 -2.352e-05 0)
(0.0007444 -2.939e-05 0)
(0.0007548 -3.537e-05 0)
(0.000767 -4.148e-05 0)
(0.0007812 -4.775e-05 0)
(0.0007974 -5.421e-05 0)
(0.0008156 -6.086e-05 0)
(0.0008359 -6.769e-05 0)
(0.0008584 -7.471e-05 0)
(0.000883 -8.188e-05 0)
(0.0009099 -8.917e-05 0)
(0.000939 -9.653e-05 0)
(0.0009703 -0.0001039 0)
(0.001004 -0.0001112 0)
(0.00104 -0.0001183 0)
(0.001078 -0.0001251 0)
(0.001117 -0.0001314 0)
(0.001159 -0.0001371 0)
(0.001202 -0.000142 0)
(0.001247 -0.0001459 0)
(0.001293 -0.0001486 0)
(0.001339 -0.00015 0)
(0.001385 -0.0001496 0)
(0.001431 -0.0001475 0)
(0.001476 -0.0001434 0)
(0.00152 -0.0001373 0)
(0.001561 -0.0001289 0)
(0.001599 -0.0001183 0)
(0.001634 -0.0001056 0)
(0.001664 -9.094e-05 0)
(0.00169 -7.449e-05 0)
(0.00171 -5.658e-05 0)
(0.001725 -3.761e-05 0)
(0.001734 -1.799e-05 0)
(0.001736 1.817e-06 0)
(0.001733 2.137e-05 0)
(0.001723 4.026e-05 0)
(0.001708 5.811e-05 0)
(0.001688 7.463e-05 0)
(0.001663 8.958e-05 0)
(0.001633 0.0001028 0)
(0.0016 0.0001142 0)
(0.001563 0.0001237 0)
(0.001524 0.0001313 0)
(0.001482 0.0001371 0)
(0.001439 0.0001411 0)
(0.001395 0.0001435 0)
(0.001351 0.0001443 0)
(0.001306 0.0001438 0)
(0.001262 0.000142 0)
(0.001218 0.0001392 0)
(0.001175 0.0001354 0)
(0.001134 0.0001309 0)
(0.001094 0.0001257 0)
(0.001055 0.0001201 0)
(0.001018 0.0001142 0)
(0.0009836 0.000108 0)
(0.0009505 0.0001018 0)
(0.0009194 9.551e-05 0)
(0.0008901 8.928e-05 0)
(0.0008628 8.317e-05 0)
(0.0008373 7.724e-05 0)
(0.0008136 7.151e-05 0)
(0.0007916 6.603e-05 0)
(0.0007713 6.081e-05 0)
(0.0007526 5.586e-05 0)
(0.0007354 5.121e-05 0)
(0.0007196 4.684e-05 0)
(0.0007051 4.276e-05 0)
(0.0006919 3.896e-05 0)
(0.0006798 3.543e-05 0)
(0.0006688 3.217e-05 0)
(0.0006588 2.916e-05 0)
(0.0006497 2.639e-05 0)
(0.0006414 2.385e-05 0)
(0.000634 2.152e-05 0)
(0.0006272 1.939e-05 0)
(0.0006211 1.745e-05 0)
(0.0006156 1.569e-05 0)
(0.0006107 1.408e-05 0)
(0.0006062 1.262e-05 0)
(0.0006022 1.131e-05 0)
(0.0005986 1.012e-05 0)
(0.0005954 9.058e-06 0)
(0.0005925 8.107e-06 0)
(0.0005899 7.261e-06 0)
(0.0005876 6.517e-06 0)
(0.0005855 5.868e-06 0)
(0.0005836 5.312e-06 0)
(0.0005819 4.846e-06 0)
(0.0005803 4.469e-06 0)
(0.0005789 4.18e-06 0)
(0.0005776 3.978e-06 0)
(0.0005764 3.86e-06 0)
(0.0005753 3.821e-06 0)
(0.0005742 3.848e-06 0)
(0.0005732 3.914e-06 0)
(0.0005722 3.972e-06 0)
(0.00121 0.0001279 0)
(0.001237 0.0003008 0)
(0.001267 0.0003957 0)
(0.001284 0.0004322 0)
(0.001286 0.0004314 0)
(0.001274 0.0004095 0)
(0.001249 0.000377 0)
(0.001218 0.0003407 0)
(0.001182 0.0003041 0)
(0.001145 0.0002695 0)
(0.001107 0.0002375 0)
(0.001071 0.0002086 0)
(0.001037 0.0001828 0)
(0.001005 0.0001596 0)
(0.0009762 0.000139 0)
(0.0009501 0.0001207 0)
(0.0009268 0.0001042 0)
(0.0009062 8.939e-05 0)
(0.0008883 7.602e-05 0)
(0.0008729 6.387e-05 0)
(0.0008599 5.273e-05 0)
(0.0008492 4.245e-05 0)
(0.0008408 3.288e-05 0)
(0.0008345 2.389e-05 0)
(0.0008302 1.535e-05 0)
(0.0008279 7.161e-06 0)
(0.0008277 -7.693e-07 0)
(0.0008293 -8.529e-06 0)
(0.0008329 -1.62e-05 0)
(0.0008384 -2.384e-05 0)
(0.0008458 -3.152e-05 0)
(0.0008552 -3.93e-05 0)
(0.0008666 -4.722e-05 0)
(0.00088 -5.532e-05 0)
(0.0008956 -6.363e-05 0)
(0.0009132 -7.218e-05 0)
(0.0009331 -8.097e-05 0)
(0.0009552 -9.001e-05 0)
(0.0009797 -9.929e-05 0)
(0.001007 -0.0001088 0)
(0.001036 -0.0001184 0)
(0.001067 -0.0001281 0)
(0.001102 -0.0001378 0)
(0.001138 -0.0001474 0)
(0.001177 -0.0001567 0)
(0.001218 -0.0001657 0)
(0.001262 -0.000174 0)
(0.001307 -0.0001815 0)
(0.001354 -0.000188 0)
(0.001403 -0.0001931 0)
(0.001452 -0.0001967 0)
(0.001503 -0.0001984 0)
(0.001553 -0.000198 0)
(0.001603 -0.0001953 0)
(0.001652 -0.0001899 0)
(0.0017 -0.0001817 0)
(0.001745 -0.0001707 0)
(0.001787 -0.0001567 0)
(0.001825 -0.0001399 0)
(0.001858 -0.0001205 0)
(0.001887 -9.875e-05 0)
(0.001909 -7.505e-05 0)
(0.001925 -4.993e-05 0)
(0.001935 -2.394e-05 0)
(0.001937 2.289e-06 0)
(0.001934 2.818e-05 0)
(0.001923 5.317e-05 0)
(0.001907 7.678e-05 0)
(0.001885 9.863e-05 0)
(0.001857 0.0001184 0)
(0.001825 0.0001359 0)
(0.001788 0.0001509 0)
(0.001748 0.0001635 0)
(0.001705 0.0001736 0)
(0.00166 0.0001813 0)
(0.001613 0.0001867 0)
(0.001565 0.0001899 0)
(0.001517 0.0001911 0)
(0.001468 0.0001904 0)
(0.00142 0.0001881 0)
(0.001372 0.0001844 0)
(0.001326 0.0001795 0)
(0.00128 0.0001736 0)
(0.001237 0.0001668 0)
(0.001195 0.0001595 0)
(0.001155 0.0001517 0)
(0.001117 0.0001436 0)
(0.00108 0.0001354 0)
(0.001046 0.0001271 0)
(0.001015 0.0001189 0)
(0.0009847 0.0001108 0)
(0.0009568 0.000103 0)
(0.0009309 9.54e-05 0)
(0.0009068 8.814e-05 0)
(0.0008846 8.123e-05 0)
(0.0008641 7.468e-05 0)
(0.0008452 6.851e-05 0)
(0.0008278 6.271e-05 0)
(0.0008119 5.729e-05 0)
(0.0007973 5.224e-05 0)
(0.000784 4.755e-05 0)
(0.0007719 4.321e-05 0)
(0.0007608 3.92e-05 0)
(0.0007508 3.55e-05 0)
(0.0007417 3.211e-05 0)
(0.0007334 2.9e-05 0)
(0.0007259 2.615e-05 0)
(0.0007191 2.356e-05 0)
(0.000713 2.119e-05 0)
(0.0007075 1.904e-05 0)
(0.0007026 1.708e-05 0)
(0.0006981 1.532e-05 0)
(0.0006941 1.372e-05 0)
(0.0006905 1.229e-05 0)
(0.0006873 1.101e-05 0)
(0.0006844 9.862e-06 0)
(0.0006818 8.851e-06 0)
(0.0006794 7.967e-06 0)
(0.0006773 7.203e-06 0)
(0.0006754 6.555e-06 0)
(0.0006737 6.02e-06 0)
(0.0006721 5.596e-06 0)
(0.0006707 5.278e-06 0)
(0.0006694 5.064e-06 0)
(0.0006682 4.944e-06 0)
(0.0006671 4.903e-06 0)
(0.0006661 4.918e-06 0)
(0.000665 4.947e-06 0)
(0.001208 0.0001097 0)
(0.00123 0.0002697 0)
(0.001258 0.0003692 0)
(0.001281 0.0004184 0)
(0.001292 0.0004319 0)
(0.001291 0.0004224 0)
(0.00128 0.0003993 0)
(0.001261 0.0003692 0)
(0.001236 0.0003363 0)
(0.001208 0.0003031 0)
(0.001178 0.0002711 0)
(0.001148 0.0002411 0)
(0.001119 0.0002135 0)
(0.001091 0.0001882 0)
(0.001065 0.0001652 0)
(0.001042 0.0001443 0)
(0.00102 0.0001253 0)
(0.001001 0.000108 0)
(0.0009839 9.222e-05 0)
(0.0009693 7.77e-05 0)
(0.0009569 6.427e-05 0)
(0.0009467 5.178e-05 0)
(0.0009387 4.007e-05 0)
(0.0009327 2.899e-05 0)
(0.0009288 1.843e-05 0)
(0.0009269 8.249e-06 0)
(0.0009269 -1.644e-06 0)
(0.000929 -1.135e-05 0)
(0.000933 -2.097e-05 0)
(0.000939 -3.058e-05 0)
(0.0009471 -4.024e-05 0)
(0.0009571 -5.004e-05 0)
(0.0009693 -6.002e-05 0)
(0.0009836 -7.023e-05 0)
(0.001 -8.071e-05 0)
(0.001019 -9.148e-05 0)
(0.00104 -0.0001026 0)
(0.001063 -0.000114 0)
(0.001089 -0.0001256 0)
(0.001117 -0.0001376 0)
(0.001148 -0.0001497 0)
(0.001182 -0.0001619 0)
(0.001218 -0.0001741 0)
(0.001256 -0.0001862 0)
(0.001297 -0.0001979 0)
(0.001341 -0.0002092 0)
(0.001387 -0.0002197 0)
(0.001435 -0.0002292 0)
(0.001484 -0.0002373 0)
(0.001536 -0.0002438 0)
(0.001589 -0.0002484 0)
(0.001642 -0.0002506 0)
(0.001696 -0.0002502 0)
(0.001749 -0.0002467 0)
(0.001802 -0.00024 0)
(0.001852 -0.0002298 0)
(0.001901 -0.0002159 0)
(0.001946 -0.0001983 0)
(0.001986 -0.0001772 0)
(0.002022 -0.0001526 0)
(0.002053 -0.0001251 0)
(0.002077 -9.512e-05 0)
(0.002094 -6.329e-05 0)
(0.002104 -3.038e-05 0)
(0.002107 2.842e-06 0)
(0.002103 3.561e-05 0)
(0.002092 6.721e-05 0)
(0.002074 9.705e-05 0)
(0.00205 0.0001246 0)
(0.002021 0.0001496 0)
(0.001986 0.0001716 0)
(0.001947 0.0001906 0)
(0.001905 0.0002065 0)
(0.001859 0.0002192 0)
(0.001811 0.0002289 0)
(0.001761 0.0002357 0)
(0.00171 0.0002398 0)
(0.001659 0.0002413 0)
(0.001607 0.0002405 0)
(0.001556 0.0002376 0)
(0.001505 0.000233 0)
(0.001456 0.0002268 0)
(0.001408 0.0002194 0)
(0.001362 0.000211 0)
(0.001317 0.0002017 0)
(0.001275 0.0001919 0)
(0.001234 0.0001818 0)
(0.001196 0.0001714 0)
(0.00116 0.000161 0)
(0.001126 0.0001507 0)
(0.001095 0.0001405 0)
(0.001065 0.0001307 0)
(0.001038 0.0001211 0)
(0.001012 0.000112 0)
(0.0009885 0.0001032 0)
(0.0009667 9.498e-05 0)
(0.0009466 8.718e-05 0)
(0.0009281 7.986e-05 0)
(0.0009112 7.3e-05 0)
(0.0008957 6.661e-05 0)
(0.0008815 6.067e-05 0)
(0.0008685 5.517e-05 0)
(0.0008567 5.009e-05 0)
(0.000846 4.54e-05 0)
(0.0008362 4.109e-05 0)
(0.0008274 3.714e-05 0)
(0.0008194 3.352e-05 0)
(0.0008121 3.021e-05 0)
(0.0008055 2.72e-05 0)
(0.0007996 2.446e-05 0)
(0.0007943 2.196e-05 0)
(0.0007895 1.971e-05 0)
(0.0007852 1.767e-05 0)
(0.0007813 1.583e-05 0)
(0.0007778 1.419e-05 0)
(0.0007747 1.272e-05 0)
(0.0007718 1.141e-05 0)
(0.0007693 1.027e-05 0)
(0.0007671 9.27e-06 0)
(0.000765 8.418e-06 0)
(0.0007632 7.703e-06 0)
(0.0007615 7.122e-06 0)
(0.00076 6.669e-06 0)
(0.0007587 6.338e-06 0)
(0.0007574 6.12e-06 0)
(0.0007563 5.999e-06 0)
(0.0007552 5.953e-06 0)
(0.0007542 5.95e-06 0)
(0.001206 9.571e-05 0)
(0.001225 0.0002427 0)
(0.001251 0.0003421 0)
(0.001275 0.0003991 0)
(0.001292 0.0004233 0)
(0.001299 0.0004243 0)
(0.001298 0.0004102 0)
(0.001289 0.0003869 0)
(0.001273 0.0003586 0)
(0.001254 0.0003282 0)
(0.001232 0.0002976 0)
(0.001209 0.0002678 0)
(0.001185 0.0002395 0)
(0.001162 0.000213 0)
(0.00114 0.0001884 0)
(0.00112 0.0001656 0)
(0.001101 0.0001446 0)
(0.001084 0.0001252 0)
(0.001068 0.0001072 0)
(0.001055 9.059e-05 0)
(0.001044 7.506e-05 0)
(0.001035 6.049e-05 0)
(0.001027 4.673e-05 0)
(0.001022 3.364e-05 0)
(0.001019 2.108e-05 0)
(0.001017 8.935e-06 0)
(0.001018 -2.923e-06 0)
(0.00102 -1.46e-05 0)
(0.001025 -2.619e-05 0)
(0.001031 -3.78e-05 0)
(0.001039 -4.95e-05 0)
(0.00105 -6.136e-05 0)
(0.001063 -7.346e-05 0)
(0.001077 -8.585e-05 0)
(0.001094 -9.857e-05 0)
(0.001114 -0.0001116 0)
(0.001135 -0.0001251 0)
(0.001159 -0.0001389 0)
(0.001186 -0.0001531 0)
(0.001215 -0.0001676 0)
(0.001247 -0.0001823 0)
(0.001281 -0.0001971 0)
(0.001318 -0.000212 0)
(0.001358 -0.0002266 0)
(0.001401 -0.000241 0)
(0.001446 -0.0002546 0)
(0.001493 -0.0002674 0)
(0.001542 -0.000279 0)
(0.001594 -0.000289 0)
(0.001647 -0.000297 0)
(0.001702 -0.0003027 0)
(0.001758 -0.0003055 0)
(0.001814 -0.0003051 0)
(0.00187 -0.000301 0)
(0.001925 -0.000293 0)
(0.001978 -0.0002807 0)
(0.002028 -0.0002639 0)
(0.002076 -0.0002426 0)
(0.002119 -0.0002168 0)
(0.002157 -0.0001869 0)
(0.002189 -0.0001532 0)
(0.002214 -0.0001165 0)
(0.002233 -7.749e-05 0)
(0.002243 -3.716e-05 0)
(0.002246 3.527e-06 0)
(0.002242 4.362e-05 0)
(0.00223 8.225e-05 0)
(0.002211 0.0001187 0)
(0.002186 0.0001523 0)
(0.002155 0.0001826 0)
(0.002118 0.0002094 0)
(0.002077 0.0002325 0)
(0.002033 0.0002518 0)
(0.001985 0.0002673 0)
(0.001935 0.000279 0)
(0.001883 0.0002873 0)
(0.00183 0.0002922 0)
(0.001776 0.000294 0)
(0.001723 0.000293 0)
(0.001669 0.0002896 0)
(0.001617 0.0002839 0)
(0.001566 0.0002765 0)
(0.001516 0.0002674 0)
(0.001468 0.0002572 0)
(0.001422 0.000246 0)
(0.001378 0.0002341 0)
(0.001337 0.0002217 0)
(0.001297 0.0002091 0)
(0.00126 0.0001965 0)
(0.001225 0.0001839 0)
(0.001192 0.0001716 0)
(0.001162 0.0001596 0)
(0.001133 0.000148 0)
(0.001107 0.0001369 0)
(0.001083 0.0001263 0)
(0.00106 0.0001163 0)
(0.001039 0.0001068 0)
(0.00102 9.784e-05 0)
(0.001003 8.95e-05 0)
(0.0009867 8.171e-05 0)
(0.000972 7.447e-05 0)
(0.0009585 6.776e-05 0)
(0.0009463 6.155e-05 0)
(0.0009351 5.583e-05 0)
(0.000925 5.056e-05 0)
(0.0009158 4.573e-05 0)
(0.0009074 4.13e-05 0)
(0.0008999 3.725e-05 0)
(0.000893 3.356e-05 0)
(0.0008868 3.019e-05 0)
(0.0008813 2.714e-05 0)
(0.0008762 2.436e-05 0)
(0.0008717 2.186e-05 0)
(0.0008676 1.96e-05 0)
(0.000864 1.757e-05 0)
(0.0008607 1.575e-05 0)
(0.0008578 1.413e-05 0)
(0.0008551 1.271e-05 0)
(0.0008528 1.146e-05 0)
(0.0008506 1.039e-05 0)
(0.0008487 9.475e-06 0)
(0.000847 8.72e-06 0)
(0.0008455 8.116e-06 0)
(0.0008441 7.653e-06 0)
(0.0008428 7.324e-06 0)
(0.0008416 7.112e-06 0)
(0.0008406 7.001e-06 0)
(0.0008395 6.963e-06 0)
(0.001205 8.453e-05 0)
(0.001221 0.0002192 0)
(0.001245 0.000316 0)
(0.001269 0.000377 0)
(0.001289 0.0004087 0)
(0.001302 0.0004183 0)
(0.001307 0.0004121 0)
(0.001306 0.0003954 0)
(0.001299 0.0003722 0)
(0.001288 0.0003453 0)
(0.001273 0.0003169 0)
(0.001257 0.0002883 0)
(0.001239 0.0002602 0)
(0.001221 0.0002333 0)
(0.001203 0.0002078 0)
(0.001186 0.0001838 0)
(0.00117 0.0001613 0)
(0.001156 0.0001402 0)
(0.001142 0.0001205 0)
(0.001131 0.0001021 0)
(0.001121 8.468e-05 0)
(0.001113 6.824e-05 0)
(0.001107 5.26e-05 0)
(0.001102 3.762e-05 0)
(0.001099 2.317e-05 0)
(0.001099 9.13e-06 0)
(0.0011 -4.635e-06 0)
(0.001103 -1.823e-05 0)
(0.001107 -3.178e-05 0)
(0.001114 -4.536e-05 0)
(0.001123 -5.908e-05 0)
(0.001133 -7.302e-05 0)
(0.001146 -8.724e-05 0)
(0.001161 -0.0001018 0)
(0.001178 -0.0001168 0)
(0.001198 -0.0001322 0)
(0.00122 -0.000148 0)
(0.001244 -0.0001643 0)
(0.001271 -0.0001811 0)
(0.0013 -0.0001981 0)
(0.001332 -0.0002155 0)
(0.001367 -0.000233 0)
(0.001404 -0.0002505 0)
(0.001444 -0.0002679 0)
(0.001487 -0.0002848 0)
(0.001532 -0.0003011 0)
(0.00158 -0.0003163 0)
(0.00163 -0.0003301 0)
(0.001683 -0.000342 0)
(0.001737 -0.0003517 0)
(0.001793 -0.0003585 0)
(0.00185 -0.0003621 0)
(0.001907 -0.0003619 0)
(0.001965 -0.0003574 0)
(0.002021 -0.0003481 0)
(0.002076 -0.0003337 0)
(0.002129 -0.000314 0)
(0.002178 -0.0002889 0)
(0.002222 -0.0002584 0)
(0.002262 -0.0002228 0)
(0.002295 -0.0001827 0)
(0.002322 -0.0001389 0)
(0.002341 -9.232e-05 0)
(0.002352 -4.415e-05 0)
(0.002355 4.414e-06 0)
(0.00235 5.221e-05 0)
(0.002337 9.818e-05 0)
(0.002317 0.0001414 0)
(0.002291 0.0001813 0)
(0.002259 0.0002172 0)
(0.002221 0.0002489 0)
(0.002179 0.0002761 0)
(0.002133 0.0002988 0)
(0.002084 0.000317 0)
(0.002032 0.0003309 0)
(0.001979 0.0003405 0)
(0.001925 0.0003463 0)
(0.00187 0.0003483 0)
(0.001815 0.0003471 0)
(0.001761 0.000343 0)
(0.001708 0.0003362 0)
(0.001656 0.0003273 0)