/*--------------------------------*- C++ -*----------------------------------*\
  =========                 |
  \\      /  F ield         | OpenFOAM: The Open Source CFD Toolbox
   \\    /   O peration     | Website:  https://openfoam.org
    \\  /    A nd           | Version:  7
     \\/     M anipulation  |
\*---------------------------------------------------------------------------*/
FoamFile
{
    version     2.0;
    format      ascii;
    class       volScalarField;
    location    "1919.99947343015674";
    object      Y.K;
}
// * * * * * * * * * * * * * * * * * * * * * * * * * * * * * * * * * * * * * //

dimensions      [0 0 0 0 0 0 0];

internalField   nonuniform List<scalar> 
4096
(
4.763e-72
-2.424e-73
6.024e-71
-3.408e-71
-3.981e-72
7.35e-72
-3.275e-72
-3.97e-73
-2.143e-72
2.875e-71
-3.635e-70
6.316e-69
-9.049e-68
1.329e-66
-1.761e-65
2.236e-64
-2.649e-63
3.008e-62
-3.218e-61
3.317e-60
-3.211e-59
2.998e-58
-2.691e-57
2.285e-56
-1.808e-55
1.335e-54
-9.045e-54
5.03e-53
-2.599e-52
7.349e-52
3.305e-51
-9.05e-50
1.131e-48
-1.121e-47
9.86e-47
-7.786e-46
5.59e-45
-3.635e-44
2.005e-43
-9.924e-43
2.653e-42
1.108e-41
-2.435e-40
2.434e-39
-1.873e-38
1.164e-37
-6.21e-37
2.772e-36
-9.517e-36
1.441e-35
8.941e-35
-1.041e-33
7.392e-33
-2.973e-32
1.364e-31
-1.735e-31
1.597e-31
9.708e-30
-9.275e-30
2.3e-28
1.75e-28
4.269e-27
2.014e-26
4.167e-26
3.332e-25
1.396e-24
2.54e-24
2.238e-23
6.027e-23
1.614e-22
1.203e-21
3.135e-21
1.002e-20
1.358e-19
2.01e-18
5.435e-18
1.085e-17
1.923e-17
3.205e-17
5.132e-17
7.979e-17
1.211e-16
1.802e-16
2.632e-16
3.781e-16
5.351e-16
7.467e-16
1.028e-15
1.399e-15
1.881e-15
2.504e-15
3.298e-15
4.305e-15
5.57e-15
7.147e-15
9.102e-15
1.151e-14
1.445e-14
1.804e-14
2.238e-14
2.761e-14
3.389e-14
4.14e-14
5.033e-14
6.092e-14
7.344e-14
8.818e-14
1.055e-13
1.258e-13
1.494e-13
1.77e-13
2.089e-13
2.46e-13
2.888e-13
3.382e-13
3.95e-13
4.603e-13
5.35e-13
6.204e-13
7.179e-13
8.288e-13
9.547e-13
1.097e-12
1.256e-12
1.433e-12
1.622e-12
1.81e-12
1.958e-12
1.119e-70
-6.345e-70
7.142e-70
-9.84e-71
-4.273e-70
3.183e-70
-3.439e-71
-1.371e-71
-1.088e-70
1.604e-69
-2.137e-68
3.47e-67
-5.232e-66
7.42e-65
-9.901e-64
1.245e-62
-1.478e-61
1.663e-60
-1.78e-59
1.816e-58
-1.769e-57
1.648e-56
-1.463e-55
1.234e-54
-9.803e-54
7.233e-53
-4.884e-52
2.748e-51
-1.425e-50
4.437e-50
1.28e-49
-4.411e-48
5.679e-47
-5.693e-46
5.04e-45
-3.993e-44
2.878e-43
-1.879e-42
1.057e-41
-5.273e-41
1.609e-40
3.842e-40
-1.085e-38
1.137e-37
-8.924e-37
5.663e-36
-3.055e-35
1.392e-34
-4.885e-34
9.058e-34
2.831e-33
-4.282e-32
3.357e-31
-1.346e-30
6.996e-30
-8.766e-30
2.029e-29
4.677e-28
-6.767e-29
1.118e-26
1.664e-26
2.3e-25
9.94e-25
2.499e-24
1.683e-23
6.547e-23
1.402e-22
9.946e-22
2.733e-21
7.074e-21
4.469e-20
1.167e-19
2.832e-19
1.734e-18
4.548e-18
9.1e-18
1.625e-17
2.721e-17
4.369e-17
6.803e-17
1.033e-16
1.537e-16
2.246e-16
3.227e-16
4.566e-16
6.373e-16
8.78e-16
1.195e-15
1.609e-15
2.143e-15
2.827e-15
3.696e-15
4.789e-15
6.157e-15
7.855e-15
9.952e-15
1.252e-14
1.566e-14
1.948e-14
2.408e-14
2.962e-14
3.626e-14
4.418e-14
5.359e-14
6.473e-14
7.789e-14
9.338e-14
1.115e-13
1.328e-13
1.576e-13
1.864e-13
2.199e-13
2.586e-13
3.034e-13
3.55e-13
4.143e-13
4.824e-13
5.604e-13
6.495e-13
7.511e-13
8.668e-13
9.981e-13
1.147e-12
1.314e-12
1.501e-12
1.708e-12
1.927e-12
2.136e-12
-2.593e-69
1.8e-68
-4.413e-68
5.592e-68
-3.515e-68
5.493e-69
4.03e-69
7.703e-70
-4.635e-69
8.759e-68
-1.146e-66
1.868e-65
-2.82e-64
3.998e-63
-5.322e-62
6.663e-61
-7.872e-60
8.808e-59
-9.37e-58
9.505e-57
-9.214e-56
8.539e-55
-7.553e-54
6.351e-53
-5.039e-52
3.723e-51
-2.52e-50
1.452e-49
-7.606e-49
2.756e-48
1.924e-48
-1.856e-46
2.573e-45
-2.65e-44
2.385e-43
-1.909e-42
1.391e-41
-9.21e-41
5.34e-40
-2.695e-39
1.005e-38
6.378e-40
-3.942e-37
4.679e-36
-3.868e-35
2.52e-34
-1.395e-33
6.622e-33
-2.431e-32
5.727e-32
1.418e-32
-1.39e-30
1.383e-29
-5.542e-29
3.528e-28
-3.519e-28
1.805e-27
2.183e-26
2.557e-26
5.232e-25
1.371e-24
1.278e-23
5.207e-23
1.424e-22
8.506e-22
3.071e-21
7.233e-21
4.13e-20
1.141e-19
2.759e-19
1.293e-18
3.272e-18
6.409e-18
1.148e-17
1.95e-17
3.181e-17
5.022e-17
7.714e-17
1.157e-16
1.699e-16
2.447e-16
3.467e-16
4.838e-16
6.656e-16
9.041e-16
1.214e-15
1.613e-15
2.121e-15
2.766e-15
3.576e-15
4.588e-15
5.846e-15
7.398e-15
9.305e-15
1.164e-14
1.447e-14
1.791e-14
2.206e-14
2.704e-14
3.301e-14
4.013e-14
4.859e-14
5.862e-14
7.048e-14
8.444e-14
1.008e-13
1.2e-13
1.425e-13
1.686e-13
1.99e-13
2.343e-13
2.751e-13
3.222e-13
3.764e-13
4.388e-13
5.103e-13
5.922e-13
6.858e-13
7.925e-13
9.14e-13
1.052e-12
1.208e-12
1.385e-12
1.585e-12
1.809e-12
2.06e-12
2.34e-12
2.657e-12
4.305e-68
-3.414e-67
1.173e-66
-2.391e-66
3.01e-66
-2.29e-66
9.068e-67
-1.247e-67
-7.922e-68
4.622e-66
-5.85e-65
9.54e-64
-1.439e-62
2.034e-61
-2.692e-60
3.347e-59
-3.922e-58
4.35e-57
-4.588e-56
4.616e-55
-4.443e-54
4.092e-53
-3.602e-52
3.02e-51
-2.395e-50
1.777e-49
-1.212e-48
7.2e-48
-3.826e-47
1.662e-46
-2.315e-46
-5.912e-45
9.854e-44
-1.076e-42
9.995e-42
-8.168e-41
6.071e-40
-4.121e-39
2.49e-38
-1.263e-37
6.054e-37
-9.301e-37
-8.83e-36
1.539e-34
-1.427e-33
9.809e-33
-5.678e-32
2.869e-31
-1.142e-30
3.397e-30
-4.747e-30
-2.088e-29
4.778e-28
-1.889e-27
1.679e-26
-9.608e-27
1.298e-25
9.777e-25
2.383e-24
2.247e-23
9.685e-23
6.866e-22
2.598e-21
7.55e-21
3.911e-20
1.265e-19
3.142e-19
1.306e-18
3.429e-18
7.023e-18
1.307e-17
2.29e-17
3.837e-17
6.19e-17
9.672e-17
1.469e-16
2.176e-16
3.149e-16
4.463e-16
6.209e-16
8.49e-16
1.143e-15
1.518e-15
1.991e-15
2.582e-15
3.316e-15
4.22e-15
5.328e-15
6.68e-15
8.323e-15
1.031e-14
1.271e-14
1.559e-14
1.904e-14
2.317e-14
2.809e-14
3.395e-14
4.089e-14
4.911e-14
5.882e-14
7.025e-14
8.369e-14
9.945e-14
1.179e-13
1.394e-13
1.645e-13
1.937e-13
2.275e-13
2.667e-13
3.119e-13
3.641e-13
4.242e-13
4.932e-13
5.723e-13
6.628e-13
7.662e-13
8.841e-13
1.018e-12
1.171e-12
1.343e-12
1.539e-12
1.76e-12
2.008e-12
2.288e-12
2.603e-12
2.955e-12
3.353e-12
3.861e-12
-6.243e-67
5.386e-66
-2.292e-65
6.25e-65
-1.131e-64
1.356e-64
-9.819e-65
2.716e-65
4.073e-66
2.338e-64
-2.871e-63
4.648e-62
-6.97e-61
9.766e-60
-1.279e-58
1.57e-57
-1.815e-56
1.986e-55
-2.067e-54
2.056e-53
-1.958e-52
1.788e-51
-1.564e-50
1.307e-49
-1.037e-48
7.736e-48
-5.343e-47
3.281e-46
-1.854e-45
8.9e-45
-2.932e-44
-8.334e-44
2.895e-42
-3.616e-41
3.572e-40
-3.029e-39
2.323e-38
-1.639e-37
1.036e-36
-5.707e-36
2.774e-35
-8.674e-35
7.31e-35
3.168e-33
-4.104e-32
3.159e-31
-1.967e-30
1.089e-29
-4.746e-29
1.724e-28
-4.642e-28
7.371e-28
1.194e-26
-4.362e-26
7.287e-25
3.933e-25
8.398e-24
4.299e-23
1.791e-22
1.195e-21
5.425e-21
3.321e-20
1.152e-19
3.369e-19
1.394e-18
3.906e-18
8.62e-18
1.72e-17
3.215e-17
5.704e-17
9.682e-17
1.58e-16
2.486e-16
3.788e-16
5.601e-16
8.059e-16
1.131e-15
1.552e-15
2.087e-15
2.755e-15
3.579e-15
4.581e-15
5.791e-15
7.238e-15
8.961e-15
1.1e-14
1.341e-14
1.624e-14
1.958e-14
2.349e-14
2.807e-14
3.345e-14
3.974e-14
4.71e-14
5.57e-14
6.576e-14
7.75e-14
9.12e-14
1.072e-13
1.257e-13
1.474e-13
1.724e-13
2.015e-13
2.352e-13
2.742e-13
3.192e-13
3.711e-13
4.308e-13
4.995e-13
5.783e-13
6.685e-13
7.718e-13
8.897e-13
1.024e-12
1.177e-12
1.351e-12
1.548e-12
1.771e-12
2.024e-12
2.309e-12
2.63e-12
2.991e-12
3.396e-12
3.849e-12
4.356e-12
4.922e-12
5.56e-12
6.435e-12
8.43e-66
-7.69e-65
3.801e-64
-1.277e-63
2.987e-63
-4.859e-63
5.087e-63
-1.94e-63
-3.787e-63
1.62e-62
-1.393e-61
2.165e-60
-3.202e-59
4.413e-58
-5.669e-57
6.817e-56
-7.717e-55
8.275e-54
-8.453e-53
8.264e-52
-7.758e-51
7.002e-50
-6.075e-49
5.053e-48
-4.011e-47
3.013e-46
-2.113e-45
1.347e-44
-8.094e-44
4.356e-43
-2.141e-42
4.638e-42
4.467e-41
-9.076e-40
1.018e-38
-9.269e-38
7.462e-37
-5.577e-36
3.729e-35
-2.222e-34
1.179e-33
-5.218e-33
2.037e-32
-1.071e-32
-6.471e-31
7.444e-30
-5.331e-29
3.418e-28
-1.635e-27
7.011e-27
-2.395e-26
8.386e-26
6.513e-26
-7.259e-26
2.616e-23
3.744e-23
4.954e-22
2.427e-21
1.037e-20
5.921e-20
2.64e-19
1.237e-18
3.885e-18
9.682e-18
2.166e-17
4.501e-17
8.799e-17
1.629e-16
2.87e-16
4.831e-16
7.791e-16
1.208e-15
1.806e-15
2.612e-15
3.662e-15
4.995e-15
6.643e-15
8.637e-15
1.101e-14
1.378e-14
1.698e-14
2.065e-14
2.482e-14
2.955e-14
3.489e-14
4.093e-14
4.775e-14
5.548e-14
6.425e-14
7.421e-14
8.557e-14
9.853e-14
1.134e-13
1.304e-13
1.498e-13
1.722e-13
1.98e-13
2.275e-13
2.615e-13
3.006e-13
3.456e-13
3.972e-13
4.565e-13
5.245e-13
6.025e-13
6.919e-13
7.941e-13
9.108e-13
1.044e-12
1.196e-12
1.369e-12
1.566e-12
1.789e-12
2.042e-12
2.329e-12
2.653e-12
3.019e-12
3.431e-12
3.894e-12
4.415e-12
4.999e-12
5.653e-12
6.383e-12
7.197e-12
8.103e-12
9.11e-12
1.023e-11
1.185e-11
-1.093e-64
1.035e-63
-5.713e-63
2.252e-62
-6.441e-62
1.333e-61
-1.871e-61
1.247e-61
1.047e-61
2.904e-62
-5.96e-60
9.558e-59
-1.387e-57
1.859e-56
-2.317e-55
2.7e-54
-2.964e-53
3.087e-52
-3.071e-51
2.934e-50
-2.7e-49
2.399e-48
-2.058e-47
1.702e-46
-1.35e-45
1.022e-44
-7.296e-44
4.838e-43
-3.079e-42
1.838e-41
-9.806e-41
4.826e-40
-9.444e-40
-9.399e-39
1.941e-37
-2.14e-36
1.863e-35
-1.532e-34
1.101e-33
-7.025e-33
4.188e-32
-2.192e-31
1.224e-30
-4.163e-30
6.106e-30
5.116e-29
-8.224e-28
7.616e-27
-4.162e-26
2.101e-25
-8.953e-25
4.8e-24
-5.587e-24
4.533e-23
5.177e-22
3.26e-21
2.667e-20
1.21e-19
4.845e-19
2.319e-18
7.83e-18
2.126e-17
5.191e-17
1.174e-16
2.481e-16
4.928e-16
9.235e-16
1.638e-15
2.761e-15
4.437e-15
6.817e-15
1.005e-14
1.427e-14
1.956e-14
2.599e-14
3.356e-14
4.224e-14
5.198e-14
6.27e-14
7.435e-14
8.687e-14
1.003e-13
1.145e-13
1.298e-13
1.461e-13
1.638e-13
1.829e-13
2.038e-13
2.267e-13
2.521e-13
2.805e-13
3.121e-13
3.478e-13
3.88e-13
4.335e-13
4.851e-13
5.438e-13
6.105e-13
6.865e-13
7.731e-13
8.718e-13
9.842e-13
1.112e-12
1.258e-12
1.424e-12
1.613e-12
1.827e-12
2.071e-12
2.347e-12
2.66e-12
3.015e-12
3.415e-12
3.868e-12
4.378e-12
4.952e-12
5.599e-12
6.325e-12
7.139e-12
8.051e-12
9.07e-12
1.021e-11
1.148e-11
1.289e-11
1.445e-11
1.619e-11
1.811e-11
2.023e-11
2.338e-11
1.379e-63
-1.341e-62
8.047e-62
-3.605e-61
1.217e-60
-3.086e-60
5.575e-60
-5.609e-60
-5.958e-60
4.723e-59
-3.258e-58
4.068e-57
-5.59e-56
7.176e-55
-8.55e-54
9.525e-53
-1.001e-51
1.002e-50
-9.621e-50
8.912e-49
-7.996e-48
6.963e-47
-5.887e-46
4.826e-45
-3.826e-44
2.918e-43
-2.122e-42
1.462e-41
-9.803e-41
6.314e-40
-3.845e-39
2.144e-38
-1.052e-37
3.409e-37
3.699e-37
-2.092e-35
2.861e-34
-2.984e-33
2.431e-32
-1.659e-31
1.101e-30
-6.882e-30
3.829e-29
-2.003e-28
9.088e-28
-2.577e-27
2.076e-27
3.704e-26
-3.205e-25
3.15e-24
-1.868e-23
1.607e-22
-1.028e-22
2.818e-21
2.462e-20
1.688e-19
1.04e-18
4.243e-18
1.4e-17
4.139e-17
1.126e-16
2.84e-16
6.659e-16
1.456e-15
2.976e-15
5.702e-15
1.028e-14
1.748e-14
2.815e-14
4.312e-14
6.301e-14
8.82e-14
1.187e-13
1.541e-13
1.937e-13
2.365e-13
2.814e-13
3.274e-13
3.735e-13
4.193e-13
4.643e-13
5.085e-13
5.522e-13
5.957e-13
6.398e-13
6.852e-13
7.326e-13
7.832e-13
8.377e-13
8.973e-13
9.633e-13
1.037e-12
1.119e-12
1.212e-12
1.317e-12
1.435e-12
1.57e-12
1.722e-12
1.895e-12
2.091e-12
2.313e-12
2.566e-12
2.852e-12
3.176e-12
3.543e-12
3.958e-12
4.427e-12
4.957e-12
5.555e-12
6.229e-12
6.988e-12
7.842e-12
8.802e-12
9.879e-12
1.109e-11
1.244e-11
1.395e-11
1.564e-11
1.752e-11
1.961e-11
2.194e-11
2.452e-11
2.738e-11
3.054e-11
3.403e-11
3.788e-11
4.208e-11
4.848e-11
-1.699e-62
1.682e-61
-1.078e-60
5.369e-60
-2.089e-59
6.331e-59
-1.439e-58
2.094e-58
-9.595e-59
-6.399e-59
-8.388e-57
1.519e-55
-2.042e-54
2.464e-53
-2.752e-52
2.878e-51
-2.852e-50
2.708e-49
-2.483e-48
2.212e-47
-1.922e-46
1.633e-45
-1.356e-44
1.1e-43
-8.7e-43
6.682e-42
-4.952e-41
3.541e-40
-2.485e-39
1.7e-38
-1.126e-37
7.149e-37
-4.287e-36
2.353e-35
-1.173e-34
4.049e-34
1.953e-35
-1.638e-32
2.018e-31
-1.972e-30
1.744e-29
-1.351e-28
8.806e-28
-5.835e-27
2.943e-26
-1.279e-25
5.503e-25
-2.298e-24
9.095e-24
-2.628e-24
-4.661e-23
2.435e-21
4.47e-21
1.223e-19
1.004e-18
4.815e-18
1.857e-17
6.394e-17
2.013e-16
5.836e-16
1.561e-15
3.86e-15
8.839e-15
1.878e-14
3.714e-14
6.856e-14
1.186e-13
1.929e-13
2.963e-13
4.317e-13
5.988e-13
7.944e-13
1.012e-12
1.242e-12
1.474e-12
1.7e-12
1.911e-12
2.1e-12
2.267e-12
2.408e-12
2.527e-12
2.628e-12
2.715e-12
2.791e-12
2.862e-12
2.932e-12
3.005e-12
3.085e-12
3.174e-12
3.279e-12
3.402e-12
3.544e-12
3.71e-12
3.903e-12
4.126e-12
4.384e-12
4.681e-12
5.022e-12
5.411e-12
5.854e-12
6.358e-12
6.931e-12
7.58e-12
8.313e-12
9.142e-12
1.008e-11
1.113e-11
1.232e-11
1.365e-11
1.515e-11
1.682e-11
1.87e-11
2.081e-11
2.316e-11
2.578e-11
2.871e-11
3.196e-11
3.558e-11
3.96e-11
4.406e-11
4.899e-11
5.444e-11
6.045e-11
6.707e-11
7.435e-11
8.235e-11
9.098e-11
1.044e-10
2.033e-61
-2.037e-60
1.376e-59
-7.5e-59
3.306e-58
-1.177e-57
3.285e-57
-6.498e-57
-6.998e-58
5.468e-56
-5.073e-55
5.622e-54
-6.521e-53
7.143e-52
-7.272e-51
6.971e-50
-6.389e-49
5.668e-48
-4.908e-47
4.17e-46
-3.488e-45
2.877e-44
-2.34e-43
1.875e-42
-1.479e-41
1.143e-40
-8.641e-40
6.401e-39
-4.68e-38
3.366e-37
-2.373e-36
1.633e-35
-1.091e-34
7.037e-34
-4.351e-33
2.53e-32
-1.341e-31
6.958e-31
-2.586e-30
3.842e-30
4.447e-29
-6.89e-28
5.231e-27
-4.403e-26
2.878e-25
-1.774e-24
1.089e-23
-5.759e-23
4.189e-22
-9.453e-22
5.054e-21
4.758e-20
4.567e-19
3.517e-18
1.774e-17
7.371e-17
2.751e-16
9.387e-16
2.935e-15
8.424e-15
2.22e-14
5.38e-14
1.201e-13
2.475e-13
4.723e-13
8.377e-13
1.387e-12
2.152e-12
3.145e-12
4.348e-12
5.713e-12
7.169e-12
8.626e-12
9.999e-12
1.12e-11
1.219e-11
1.292e-11
1.341e-11
1.37e-11
1.378e-11
1.372e-11
1.357e-11
1.335e-11
1.31e-11
1.284e-11
1.26e-11
1.239e-11
1.224e-11
1.212e-11
1.211e-11
1.216e-11
1.228e-11
1.247e-11
1.277e-11
1.315e-11
1.364e-11
1.424e-11
1.495e-11
1.579e-11
1.676e-11
1.789e-11
1.918e-11
2.065e-11
2.232e-11
2.421e-11
2.634e-11
2.874e-11
3.144e-11
3.447e-11
3.786e-11
4.165e-11
4.588e-11
5.06e-11
5.586e-11
6.171e-11
6.82e-11
7.539e-11
8.337e-11
9.218e-11
1.019e-10
1.126e-10
1.245e-10
1.375e-10
1.517e-10
1.673e-10
1.844e-10
2.027e-10
2.314e-10
-2.336e-60
2.355e-59
-1.661e-58
9.788e-58
-4.826e-57
1.993e-56
-6.793e-56
1.82e-55
-3.801e-55
8.82e-55
-1.02e-53
1.462e-52
-1.644e-51
1.584e-50
-1.407e-49
1.195e-48
-9.887e-48
8.061e-47
-6.515e-46
5.238e-45
-4.195e-44
3.349e-43
-2.663e-42
2.108e-41
-1.657e-40
1.291e-39
-9.983e-39
7.682e-38
-5.857e-37
4.416e-36
-3.286e-35
2.407e-34
-1.732e-33
1.221e-32
-8.423e-32
5.59e-31
-3.585e-30
2.197e-29
-1.281e-28
7.128e-28
-3.758e-27
1.763e-26
-1.108e-25
3.324e-25
-8.49e-25
2.627e-25
2.133e-23
-1.767e-22
3.424e-21
9.396e-22
1.915e-19
1.979e-18
1.198e-17
5.97e-17
2.674e-16
1.092e-15
4.077e-15
1.39e-14
4.323e-14
1.227e-13
3.183e-13
7.544e-13
1.638e-12
3.265e-12
5.994e-12
1.018e-11
1.609e-11
2.375e-11
3.292e-11
4.311e-11
5.354e-11
6.347e-11
7.202e-11
7.872e-11
8.296e-11
8.537e-11
8.502e-11
8.353e-11
8.085e-11
7.727e-11
7.316e-11
6.885e-11
6.459e-11
6.055e-11
5.684e-11
5.352e-11
5.063e-11
4.818e-11
4.615e-11
4.454e-11
4.333e-11
4.252e-11
4.196e-11
4.198e-11
4.221e-11
4.277e-11
4.368e-11
4.495e-11
4.659e-11
4.859e-11
5.1e-11
5.383e-11
5.711e-11
6.089e-11
6.519e-11
7.007e-11
7.559e-11
8.179e-11
8.874e-11
9.652e-11
1.052e-10
1.149e-10
1.256e-10
1.376e-10
1.509e-10
1.655e-10
1.817e-10
1.996e-10
2.194e-10
2.411e-10
2.649e-10
2.91e-10
3.197e-10
3.51e-10
3.851e-10
4.225e-10
4.62e-10
5.249e-10
2.521e-59
-2.545e-58
1.86e-57
-1.172e-56
6.391e-56
-3.019e-55
1.22e-54
-4.004e-54
5.595e-54
2.832e-53
-4.21e-52
3.737e-51
-2.898e-50
2.09e-49
-1.49e-48
1.066e-47
-7.709e-47
5.654e-46
-4.203e-45
3.168e-44
-2.419e-43
1.867e-42
-1.454e-41
1.141e-40
-8.984e-40
7.095e-39
-5.599e-38
4.395e-37
-3.424e-36
2.641e-35
-2.014e-34
1.516e-33
-1.123e-32
8.17e-32
-5.832e-31
4.054e-30
-2.775e-29
1.841e-28
-1.199e-27
7.583e-27
-4.646e-26
2.753e-25
-1.574e-24
8.661e-24
-4.585e-23
2.336e-22
-1.084e-21
6.542e-21
2.711e-20
4.698e-19
4.8e-18
3.136e-17
1.724e-16
8.563e-16
3.878e-15
1.6e-14
6.002e-14
2.045e-13
6.322e-13
1.773e-12
4.514e-12
1.044e-11
2.199e-11
4.226e-11
7.439e-11
1.206e-10
1.813e-10
2.538e-10
3.329e-10
4.121e-10
4.826e-10
5.399e-10
5.761e-10
5.923e-10
5.864e-10
5.685e-10
5.391e-10
5.016e-10
4.599e-10
4.173e-10
3.76e-10
3.375e-10
3.026e-10
2.717e-10
2.448e-10
2.218e-10
2.023e-10
1.86e-10
1.725e-10
1.615e-10
1.527e-10
1.458e-10
1.406e-10
1.369e-10
1.346e-10
1.336e-10
1.34e-10
1.354e-10
1.379e-10
1.415e-10
1.462e-10
1.521e-10
1.592e-10
1.675e-10
1.772e-10
1.883e-10
2.01e-10
2.152e-10
2.313e-10
2.493e-10
2.693e-10
2.917e-10
3.165e-10
3.44e-10
3.744e-10
4.079e-10
4.45e-10
4.857e-10
5.304e-10
5.795e-10
6.333e-10
6.92e-10
7.562e-10
8.26e-10
9.02e-10
9.848e-10
1.072e-09
1.211e-09
-2.479e-58
2.491e-57
-1.871e-56
1.251e-55
-7.477e-55
4.031e-54
-1.977e-53
8.889e-53
-3.679e-52
1.398e-51
-4.822e-51
1.43e-50
-2.929e-50
-7.306e-50
1.122e-48
-1.085e-47
9.257e-47
-7.242e-46
5.625e-45
-4.22e-44
3.062e-43
-2.152e-42
1.47e-41
-9.858e-41
6.492e-40
-4.232e-39
2.753e-38
-1.761e-37
1.074e-36
-5.976e-36
2.732e-35
-5.487e-35
-7.731e-34
1.479e-32
-1.75e-31
1.762e-30
-1.572e-29
1.318e-28
-1.031e-27
7.682e-27
-5.46e-26
3.727e-25
-2.417e-24
1.517e-23
-8.956e-23
5.666e-22
-1.894e-21
9.857e-20
1.34e-18
1.058e-17
7.057e-17
4.276e-16
2.369e-15
1.197e-14
5.502e-14
2.292e-13
8.635e-13
2.937e-12
9.012e-12
2.492e-11
6.216e-11
1.399e-10
2.849e-10
5.26e-10
8.844e-10
1.364e-09
1.943e-09
2.57e-09
3.186e-09
3.72e-09
4.095e-09
4.323e-09
4.294e-09
4.162e-09
3.918e-09
3.591e-09
3.221e-09
2.841e-09
2.474e-09
2.137e-09
1.837e-09
1.577e-09
1.355e-09
1.169e-09
1.014e-09
8.87e-10
7.824e-10
6.971e-10
6.277e-10
5.717e-10
5.266e-10
4.907e-10
4.626e-10
4.41e-10
4.25e-10
4.14e-10
4.072e-10
4.048e-10
4.062e-10
4.107e-10
4.186e-10
4.298e-10
4.443e-10
4.621e-10
4.835e-10
5.084e-10
5.371e-10
5.699e-10
6.069e-10
6.484e-10
6.949e-10
7.467e-10
8.042e-10
8.679e-10
9.382e-10
1.016e-09
1.101e-09
1.195e-09
1.297e-09
1.409e-09
1.532e-09
1.665e-09
1.81e-09
1.968e-09
2.139e-09
2.325e-09
2.519e-09
2.832e-09
2.086e-57
-2.088e-56
1.598e-55
-1.114e-54
7.086e-54
-4.146e-53
2.25e-52
-1.142e-51
5.455e-51
-2.469e-50
1.064e-49
-4.393e-49
1.771e-48
-7.363e-48
3.439e-47
-2.076e-46
1.522e-45
-1.098e-44
8.552e-44
-6.317e-43
4.405e-42
-2.9e-41
1.805e-40
-1.091e-39
6.364e-39
-3.955e-38
2.788e-37
-2.207e-36
1.863e-35
-1.604e-34
1.372e-33
-1.149e-32
9.373e-32
-7.427e-31
5.714e-30
-4.267e-29
3.094e-28
-2.177e-27
1.486e-26
-9.838e-26
6.319e-25
-3.91e-24
2.388e-23
-1.369e-22
8.291e-22
-3.084e-21
1.342e-19
2e-18
1.745e-17
1.302e-16
8.851e-16
5.507e-15
3.124e-14
1.609e-13
7.501e-13
3.152e-12
1.191e-11
4.04e-11
1.228e-10
3.342e-10
8.143e-10
1.778e-09
3.487e-09
6.16e-09
9.851e-09
1.439e-08
1.935e-08
2.413e-08
2.826e-08
3.098e-08
3.192e-08
3.133e-08
2.971e-08
2.722e-08
2.419e-08
2.098e-08
1.785e-08
1.496e-08
1.241e-08
1.024e-08
8.427e-09
6.941e-09
5.739e-09
4.774e-09
4.003e-09
3.39e-09
2.902e-09
2.514e-09
2.205e-09
1.96e-09
1.764e-09
1.609e-09
1.487e-09
1.391e-09
1.317e-09
1.262e-09
1.222e-09
1.197e-09
1.181e-09
1.182e-09
1.19e-09
1.208e-09
1.235e-09
1.271e-09
1.316e-09
1.371e-09
1.436e-09
1.51e-09
1.595e-09
1.691e-09
1.799e-09
1.919e-09
2.053e-09
2.201e-09
2.364e-09
2.544e-09
2.741e-09
2.957e-09
3.194e-09
3.452e-09
3.733e-09
4.038e-09
4.369e-09
4.728e-09
5.116e-09
5.537e-09
5.973e-09
6.679e-09
-1.531e-56
1.522e-55
-1.181e-54
8.515e-54
-5.703e-53
3.573e-52
-2.11e-51
1.184e-50
-6.356e-50
3.283e-49
-1.631e-48
7.724e-48
-3.388e-47
1.265e-46
-3.23e-46
-1.347e-45
2.674e-44
-2.388e-43
1.955e-42
-1.443e-41
9.767e-41
-6.1e-40
3.466e-39
-1.72e-38
6.244e-38
1.67e-38
-2.729e-36
3.501e-35
-3.407e-34
2.945e-33
-2.377e-32
1.831e-31
-1.361e-30
9.823e-30
-6.904e-29
4.734e-28
-3.17e-27
2.073e-26
-1.323e-25
8.244e-25
-4.999e-24
2.985e-23
-1.65e-22
9.789e-22
-3.86e-21
1.484e-19
2.439e-18
2.352e-17
1.962e-16
1.498e-15
1.049e-14
6.702e-14
3.889e-13
2.04e-12
9.631e-12
4.078e-11
1.543e-10
5.209e-10
1.565e-09
4.18e-09
9.92e-09
2.094e-08
3.937e-08
6.621e-08
1.002e-07
1.38e-07
1.746e-07
2.053e-07
2.276e-07
2.29e-07
2.225e-07
2.075e-07
1.859e-07
1.61e-07
1.356e-07
1.117e-07
9.039e-08
7.23e-08
5.739e-08
4.54e-08
3.592e-08
2.851e-08
2.277e-08
1.834e-08
1.493e-08
1.229e-08
1.025e-08
8.666e-09
7.432e-09
6.466e-09
5.707e-09
5.111e-09
4.641e-09
4.273e-09
3.986e-09
3.765e-09
3.599e-09
3.479e-09
3.4e-09
3.349e-09
3.344e-09
3.361e-09
3.402e-09
3.47e-09
3.562e-09
3.68e-09
3.822e-09
3.99e-09
4.184e-09
4.404e-09
4.653e-09
4.932e-09
5.243e-09
5.587e-09
5.967e-09
6.384e-09
6.842e-09
7.343e-09
7.89e-09
8.485e-09
9.133e-09
9.835e-09
1.059e-08
1.142e-08
1.23e-08
1.326e-08
1.424e-08
1.585e-08
9.397e-56
-9.265e-55
7.253e-54
-5.361e-53
3.737e-52
-2.469e-51
1.557e-50
-9.461e-50
5.613e-49
-3.303e-48
1.961e-47
-1.193e-46
7.544e-46
-4.939e-45
3.143e-44
-2.139e-43
1.46e-42
-9.913e-42
6.672e-41
-4.438e-40
2.915e-39
-1.892e-38
1.214e-37
-7.722e-37
4.884e-36
-3.087e-35
1.956e-34
-1.244e-33
7.938e-33
-5.076e-32
3.249e-31
-2.078e-30
1.325e-29
-8.414e-29
5.304e-28
-3.314e-27
2.047e-26
-1.248e-25
7.494e-25
-4.421e-24
2.57e-23
-1.422e-22
9.025e-22
-3.723e-21
1.315e-19
2.384e-18
2.542e-17
2.369e-16
2.03e-15
1.6e-14
1.153e-13
7.553e-13
4.476e-12
2.386e-11
1.139e-10
4.848e-10
1.834e-09
6.143e-09
1.819e-08
4.751e-08
1.094e-07
2.22e-07
3.981e-07
6.338e-07
9.035e-07
1.168e-06
1.39e-06
1.557e-06
1.554e-06
1.499e-06
1.38e-06
1.216e-06
1.031e-06
8.476e-07
6.792e-07
5.336e-07
4.132e-07
3.17e-07
2.419e-07
1.844e-07
1.41e-07
1.084e-07
8.405e-08
6.585e-08
5.224e-08
4.2e-08
3.427e-08
2.84e-08
2.39e-08
2.043e-08
1.774e-08
1.565e-08
1.401e-08
1.273e-08
1.173e-08
1.095e-08
1.035e-08
9.904e-09
9.581e-09
9.367e-09
9.234e-09
9.215e-09
9.26e-09
9.37e-09
9.548e-09
9.792e-09
1.01e-08
1.047e-08
1.091e-08
1.142e-08
1.199e-08
1.264e-08
1.336e-08
1.415e-08
1.504e-08
1.601e-08
1.707e-08
1.823e-08
1.95e-08
2.088e-08
2.237e-08
2.398e-08
2.573e-08
2.761e-08
2.963e-08
3.182e-08
3.405e-08
3.77e-08
-4.576e-55
4.525e-54
-3.573e-53
2.692e-52
-1.929e-51
1.313e-50
-8.466e-50
5.14e-49
-2.909e-48
1.505e-47
-6.801e-47
2.367e-46
1.477e-46
-8.47e-45
9.623e-44
-8.703e-43
6.935e-42
-5.096e-41
3.541e-40
-2.354e-39
1.506e-38
-9.278e-38
5.49e-37
-3.094e-36
1.629e-35
-7.738e-35
3.21e-34
-9.412e-34
-8.592e-34
4.702e-32
-5.448e-31
4.877e-30
-3.883e-29
2.882e-28
-2.037e-27
1.386e-26
-9.133e-26
5.851e-25
-3.652e-24
2.225e-23
-1.313e-22
7.996e-22
-2.91e-21
9.068e-20
1.84e-18
2.171e-17
2.255e-16
2.164e-15
1.915e-14
1.555e-13
1.151e-12
7.717e-12
4.658e-11
2.516e-10
1.211e-09
5.161e-09
1.943e-08
6.434e-08
1.869e-07
4.75e-07
1.055e-06
2.046e-06
3.478e-06
5.213e-06
6.968e-06
8.424e-06
9.607e-06
9.604e-06
9.25e-06
8.465e-06
7.379e-06
6.17e-06
4.982e-06
3.91e-06
3e-06
2.263e-06
1.687e-06
1.249e-06
9.221e-07
6.817e-07
5.064e-07
3.792e-07
2.869e-07
2.198e-07
1.708e-07
1.348e-07
1.081e-07
8.811e-08
7.306e-08
6.162e-08
5.284e-08
4.605e-08
4.078e-08
3.667e-08
3.346e-08
3.095e-08
2.901e-08
2.753e-08
2.642e-08
2.564e-08
2.513e-08
2.48e-08
2.482e-08
2.496e-08
2.528e-08
2.577e-08
2.642e-08
2.724e-08
2.823e-08
2.937e-08
3.069e-08
3.218e-08
3.384e-08
3.569e-08
3.774e-08
3.999e-08
4.246e-08
4.515e-08
4.808e-08
5.126e-08
5.471e-08
5.843e-08
6.244e-08
6.676e-08
7.139e-08
7.637e-08
8.145e-08
8.976e-08
2.19e-54
-1.94e-53
1.465e-52
-1.133e-51
8.851e-51
-6.907e-50
5.332e-49
-4.042e-48
2.996e-47
-2.169e-46
1.534e-45
-1.061e-44
7.203e-44
-4.807e-43
3.163e-42
-2.058e-41
1.326e-40
-8.454e-40
5.362e-39
-3.386e-38
2.13e-37
-1.336e-36
8.364e-36
-5.222e-35
3.251e-34
-2.016e-33
1.243e-32
-7.61e-32
4.631e-31
-2.799e-30
1.68e-29
-1.001e-28
5.92e-28
-3.472e-27
2.019e-26
-1.164e-25
6.645e-25
-3.755e-24
2.1e-23
-1.157e-22
6.485e-22
-2.819e-21
3.53e-20
1.072e-18
1.446e-17
1.674e-16
1.791e-15
1.774e-14
1.618e-13
1.35e-12
1.023e-11
6.993e-11
4.282e-10
2.333e-09
1.125e-08
4.779e-08
1.779e-07
5.783e-07
1.636e-06
4.014e-06
8.527e-06
1.568e-05
2.511e-05
3.528e-05
4.406e-05
5.065e-05
5.217e-05
5.035e-05
4.607e-05
4.004e-05
3.327e-05
2.662e-05
2.064e-05
1.56e-05
1.156e-05
8.44e-06
6.104e-06
4.393e-06
3.16e-06
2.28e-06
1.657e-06
1.215e-06
9.027e-07
6.8e-07
5.202e-07
4.047e-07
3.204e-07
2.582e-07
2.118e-07
1.769e-07
1.503e-07
1.299e-07
1.142e-07
1.019e-07
9.231e-08
8.483e-08
7.901e-08
7.453e-08
7.112e-08
6.862e-08
6.689e-08
6.582e-08
6.525e-08
6.54e-08
6.593e-08
6.688e-08
6.826e-08
7.005e-08
7.224e-08
7.484e-08
7.785e-08
8.127e-08
8.511e-08
8.939e-08
9.413e-08
9.934e-08
1.051e-07
1.113e-07
1.181e-07
1.254e-07
1.333e-07
1.419e-07
1.511e-07
1.61e-07
1.716e-07
1.829e-07
1.945e-07
2.134e-07
1.055e-53
-1.043e-52
8.357e-52
-6.459e-51
4.8e-50
-3.434e-49
2.367e-48
-1.574e-47
1.012e-46
-6.3e-46
3.81e-45
-2.244e-44
1.292e-43
-7.306e-43
4.08e-42
-2.267e-41
1.266e-40
-7.206e-40
4.218e-39
-2.561e-38
1.619e-37
-1.064e-36
7.216e-36
-5.006e-35
3.524e-34
-2.473e-33
1.705e-32
-1.155e-31
7.703e-31
-5.069e-30
3.294e-29
-2.117e-28
1.346e-27
-8.472e-27
5.28e-26
-3.26e-25
1.993e-24
-1.207e-23
7.248e-23
-4.28e-22
2.636e-21
-9.792e-21
3.15e-19
7.191e-18
9.611e-17
1.143e-15
1.26e-14
1.285e-13
1.204e-12
1.028e-11
7.945e-11
5.508e-10
3.401e-09
1.857e-08
8.911e-08
3.735e-07
1.361e-06
4.295e-06
1.169e-05
2.735e-05
5.492e-05
9.496e-05
0.0001425
0.000187
0.000221
0.0002361
0.0002297
0.0002121
0.0001856
0.0001549
0.0001242
9.62e-05
7.244e-05
5.331e-05
3.854e-05
2.75e-05
1.947e-05
1.373e-05
9.697e-06
6.88e-06
4.922e-06
3.561e-06
2.612e-06
1.945e-06
1.473e-06
1.136e-06
8.919e-07
7.135e-07
5.815e-07
4.827e-07
4.08e-07
3.509e-07
3.068e-07
2.727e-07
2.46e-07
2.252e-07
2.089e-07
1.963e-07
1.866e-07
1.794e-07
1.742e-07
1.708e-07
1.685e-07
1.685e-07
1.692e-07
1.71e-07
1.739e-07
1.778e-07
1.827e-07
1.885e-07
1.954e-07
2.032e-07
2.121e-07
2.22e-07
2.329e-07
2.45e-07
2.581e-07
2.725e-07
2.881e-07
3.05e-07
3.233e-07
3.429e-07
3.64e-07
3.866e-07
4.106e-07
4.365e-07
4.626e-07
5.054e-07
-3.947e-53
3.622e-52
-2.783e-51
2.141e-50
-1.634e-49
1.232e-48
-9.166e-48
6.705e-47
-4.816e-46
3.394e-45
-2.348e-44
1.595e-43
-1.066e-42
7.008e-42
-4.544e-41
2.91e-40
-1.843e-39
1.156e-38
-7.194e-38
4.444e-37
-2.729e-36
1.667e-35
-1.014e-34
6.142e-34
-3.707e-33
2.227e-32
-1.33e-31
7.911e-31
-4.684e-30
2.761e-29
-1.621e-28
9.486e-28
-5.53e-27
3.213e-26
-1.861e-25
1.074e-24
-6.185e-24
3.552e-23
-2.027e-22
1.191e-21
-5.192e-21
8.956e-20
2.866e-18
4.284e-17
5.615e-16
6.847e-15
7.76e-14
8.118e-13
7.779e-12
6.768e-11
5.302e-10
3.706e-09
2.291e-08
1.243e-07
5.867e-07
2.397e-06
8.428e-06
2.54e-05
6.533e-05
0.0001434
0.0002684
0.0004332
0.0006071
0.0007483
0.0008452
0.0008351
0.0007865
0.0007012
0.000595
0.0004839
0.0003797
0.0002889
0.0002142
0.0001554
0.0001108
7.81e-05
5.463e-05
3.811e-05
2.663e-05
1.872e-05
1.328e-05
9.534e-06
6.946e-06
5.144e-06
3.878e-06
2.978e-06
2.33e-06
1.859e-06
1.511e-06
1.252e-06
1.056e-06
9.067e-07
7.917e-07
7.024e-07
6.327e-07
5.782e-07
5.355e-07
5.023e-07
4.767e-07
4.574e-07
4.432e-07
4.336e-07
4.276e-07
4.252e-07
4.264e-07
4.3e-07
4.361e-07
4.446e-07
4.556e-07
4.69e-07
4.847e-07
5.027e-07
5.23e-07
5.458e-07
5.71e-07
5.988e-07
6.291e-07
6.622e-07
6.98e-07
7.368e-07
7.785e-07
8.234e-07
8.714e-07
9.227e-07
9.773e-07
1.036e-06
1.095e-06
1.191e-06
-8.359e-53
8.266e-52
-6.68e-51
5.251e-50
-3.997e-49
2.947e-48
-2.107e-47
1.463e-46
-9.877e-46
6.504e-45
-4.189e-44
2.646e-43
-1.645e-42
1.011e-41
-6.156e-41
3.732e-40
-2.259e-39
1.37e-38
-8.351e-38
5.122e-37
-3.165e-36
1.972e-35
-1.239e-34
7.839e-34
-4.998e-33
3.184e-32
-2.016e-31
1.268e-30
-7.928e-30
4.932e-29
-3.054e-28
1.884e-27
-1.159e-26
7.105e-26
-4.347e-25
2.656e-24
-1.62e-23
9.882e-23
-5.986e-22
3.846e-21
-1.319e-20
5.653e-19
1.428e-17
2.128e-16
2.853e-15
3.568e-14
4.141e-13
4.426e-12
4.318e-11
3.809e-10
3.008e-09
2.105e-08
1.292e-07
6.885e-07
3.158e-06
1.238e-05
4.125e-05
0.0001163
0.0002769
0.0005591
0.0009663
0.00145
0.001907
0.002234
0.002331
0.002251
0.002063
0.0018
0.001506
0.001215
0.0009493
0.0007206
0.0005334
0.0003865
0.0002752
0.0001936
0.0001351
9.4e-05
6.553e-05
4.596e-05
3.255e-05
2.334e-05
1.7e-05
1.259e-05
9.495e-06
7.297e-06
5.718e-06
4.568e-06
3.72e-06
3.087e-06
2.608e-06
2.243e-06
1.961e-06
1.742e-06
1.571e-06
1.437e-06
1.331e-06
1.249e-06
1.185e-06
1.137e-06
1.102e-06
1.077e-06
1.062e-06
1.054e-06
1.056e-06
1.063e-06
1.076e-06
1.096e-06
1.12e-06
1.151e-06
1.187e-06
1.228e-06
1.275e-06
1.328e-06
1.386e-06
1.449e-06
1.519e-06
1.595e-06
1.677e-06
1.765e-06
1.86e-06
1.962e-06
2.07e-06
2.186e-06
2.309e-06
2.439e-06
2.57e-06
2.784e-06
2.581e-52
-2.395e-51
1.855e-50
-1.432e-49
1.093e-48
-8.225e-48
6.091e-47
-4.432e-46
3.167e-45
-2.221e-44
1.529e-43
-1.034e-42
6.872e-42
-4.494e-41
2.896e-40
-1.841e-39
1.156e-38
-7.177e-38
4.414e-37
-2.691e-36
1.628e-35
-9.791e-35
5.854e-34
-3.484e-33
2.065e-32
-1.218e-31
7.153e-31
-4.187e-30
2.445e-29
-1.426e-28
8.306e-28
-4.838e-27
2.819e-26
-1.645e-25
9.622e-25
-5.644e-24
3.324e-23
-1.961e-22
1.201e-21
-5.394e-21
1.135e-19
3.838e-18
6.292e-17
9.196e-16
1.259e-14
1.609e-13
1.905e-12
2.071e-11
2.048e-10
1.822e-09
1.443e-08
1.003e-07
6.06e-07
3.139e-06
1.38e-05
5.101e-05
0.0001578
0.0004069
0.0008782
0.001609
0.002578
0.003591
0.004561
0.004933
0.004858
0.004601
0.004163
0.003614
0.003035
0.002473
0.001956
0.001505
0.001127
0.0008257
0.0005936
0.0004207
0.0002956
0.0002068
0.0001449
0.0001021
7.27e-05
5.241e-05
3.837e-05
2.857e-05
2.167e-05
1.675e-05
1.32e-05
1.061e-05
8.684e-06
7.244e-06
6.151e-06
5.314e-06
4.666e-06
4.161e-06
3.766e-06
3.454e-06
3.21e-06
3.019e-06
2.87e-06
2.757e-06
2.674e-06
2.616e-06
2.58e-06
2.561e-06
2.566e-06
2.582e-06
2.613e-06
2.658e-06
2.715e-06
2.786e-06
2.869e-06
2.965e-06
3.073e-06
3.193e-06
3.326e-06
3.472e-06
3.631e-06
3.803e-06
3.989e-06
4.188e-06
4.402e-06
4.629e-06
4.871e-06
5.128e-06
5.399e-06
5.687e-06
5.973e-06
6.437e-06
3.943e-52
-3.867e-51
3.126e-50
-2.48e-49
1.918e-48
-1.446e-47
1.062e-46
-7.606e-46
5.318e-45
-3.635e-44
2.434e-43
-1.599e-42
1.034e-41
-6.587e-41
4.148e-40
-2.587e-39
1.601e-38
-9.852e-38
6.038e-37
-3.692e-36
2.254e-35
-1.377e-34
8.413e-34
-5.151e-33
3.162e-32
-1.94e-31
1.185e-30
-7.216e-30
4.384e-29
-2.661e-28
1.614e-27
-9.804e-27
5.965e-26
-3.64e-25
2.23e-24
-1.374e-23
8.517e-23
-5.291e-22
3.496e-21
-1.335e-20
5.083e-19
1.412e-17
2.312e-16
3.443e-15
4.807e-14
6.259e-13
7.534e-12
8.305e-11
8.292e-10
7.41e-09
5.848e-08
4.018e-07
2.369e-06
1.18e-05
4.902e-05
0.0001683
0.0004739
0.001095
0.002111
0.003499
0.005351
0.006856
0.009461
0.01021
0.01005
0.008853
0.006973
0.005891
0.005049
0.004217
0.003417
0.002688
0.002057
0.001536
0.001124
0.000809
0.0005763
0.0004085
0.0002897
0.0002065
0.0001486
0.0001083
8.013e-05
6.031e-05
4.623e-05
3.61e-05
2.874e-05
2.331e-05
1.927e-05
1.621e-05
1.388e-05
1.208e-05
1.068e-05
9.589e-06
8.728e-06
8.049e-06
7.514e-06