/*--------------------------------*- C++ -*----------------------------------*\
  =========                 |
  \\      /  F ield         | OpenFOAM: The Open Source CFD Toolbox
   \\    /   O peration     | Website:  https://openfoam.org
    \\  /    A nd           | Version:  7
     \\/     M anipulation  |
\*---------------------------------------------------------------------------*/
FoamFile
{
    version     2.0;
    format      ascii;
    class       volScalarField;
    location    "15000";
    object      p;
}
// * * * * * * * * * * * * * * * * * * * * * * * * * * * * * * * * * * * * * //

dimensions      [1 -1 -2 0 0 0 0];

internalField   nonuniform List<scalar> 
3200
(
110.514
110.535
110.574
110.633
110.711
110.807
110.922
111.056
111.211
111.388
111.588
111.814
112.07
112.361
112.695
113.083
113.542
114.099
114.797
115.709
116.97
168.685
393.125
595.802
785.694
966.205
1139.17
1305.74
1466.73
1622.74
1774.22
1921.54
2064.98
2204.79
2341.16
2473.14
2586.81
2681.55
2755.19
2802.21
108.019
108.039
108.077
108.135
108.21
108.303
108.414
108.543
108.691
108.858
109.046
109.256
109.489
109.749
110.035
110.352
110.696
111.065
111.441
111.784
111.997
111.872
111.552
111.346
111.223
111.163
111.155
111.196
111.284
111.423
111.621
111.893
112.262
112.767
118.201
208.462
309.044
420.889
545.281
677.334
105.482
105.501
105.537
105.591
105.662
105.749
105.853
105.972
106.108
106.26
106.428
106.613
106.813
107.028
107.257
107.496
107.74
107.977
108.194
108.368
108.474
108.495
108.458
108.413
108.382
108.372
108.386
108.424
108.485
108.565
108.659
108.758
108.842
108.877
108.799
108.68
108.618
108.608
108.9
123.794
102.906
102.923
102.957
103.007
103.072
103.151
103.245
103.353
103.474
103.607
103.753
103.91
104.077
104.251
104.43
104.611
104.787
104.953
105.101
105.222
105.312
105.369
105.401
105.422
105.439
105.461
105.488
105.524
105.566
105.613
105.661
105.705
105.737
105.753
105.749
105.736
105.726
105.722
105.727
107.437
100.293
100.309
100.339
100.384
100.443
100.514
100.597
100.692
100.798
100.913
101.037
101.168
101.305
101.446
101.588
101.728
101.863
101.989
102.102
102.2
102.281
102.346
102.398
102.441
102.478
102.513
102.548
102.583
102.618
102.653
102.685
102.714
102.738
102.756
102.768
102.777
102.784
102.791
102.811
103.999
97.6472
97.6612
97.6885
97.7283
97.7799
97.8426
97.9155
97.9979
98.0888
98.1872
98.2919
98.4016
98.5147
98.6295
98.744
98.8561
98.9636
99.0646
99.1572
99.2403
99.3135
99.3772
99.4326
99.4812
99.5247
99.5645
99.6016
99.6365
99.6694
99.7002
99.7285
99.754
99.7764
99.7957
99.8122
99.8264
99.839
99.8506
99.8761
101.026
94.9718
94.9842
95.0082
95.0431
95.0882
95.1428
95.206
95.2769
95.3547
95.4383
95.5266
95.6183
95.7122
95.8069
95.901
95.9929
96.0814
96.1652
96.2434
96.3154
96.3809
96.4402
96.4937
96.5421
96.5861
96.6264
96.6635
96.6978
96.7296
96.7589
96.7857
96.8102
96.8323
96.8521
96.8698
96.8857
96.9
96.9129
96.9402
98.0889
92.2705
92.2813
92.3022
92.3326
92.3717
92.4189
92.4733
92.5342
92.6005
92.6715
92.746
92.8232
92.9019
92.981
93.0595
93.1364
93.2108
93.2818
93.349
93.4119
93.4703
93.5242
93.574
93.6198
93.6619
93.7008
93.7367
93.7699
93.8006
93.8289
93.8549
93.8787
93.9005
93.9203
93.9383
93.9546
93.9694
93.9828
94.0112
95.1586
89.5466
89.5559
89.574
89.6003
89.6341
89.6747
89.7215
89.7736
89.8302
89.8906
89.9538
90.0191
90.0856
90.1525
90.2189
90.2842
90.3476
90.4086
90.4669
90.5222
90.5742
90.6229
90.6684
90.7108
90.7503
90.787
90.8211
90.8528
90.8821
90.9093
90.9344
90.9576
90.9789
90.9985
91.0164
91.0327
91.0476
91.0611
91.0905
92.2342
86.803
86.811
86.8267
86.8494
86.8785
86.9134
86.9536
86.9982
87.0466
87.0982
87.1521
87.2078
87.2645
87.3215
87.3783
87.4343
87.489
87.542
87.593
87.6417
87.6881
87.732
87.7734
87.8124
87.8489
87.8832
87.9152
87.9452
87.9731
87.9991
88.0233
88.0457
88.0664
88.0856
88.1032
88.1194
88.1343
88.1478
88.1781
89.3151
84.0423
84.0493
84.0628
84.0824
84.1075
84.1376
84.1721
84.2104
84.252
84.2962
84.3425
84.3903
84.4389
84.488
84.537
84.5855
84.6331
84.6795
84.7244
84.7677
84.8091
84.8487
84.8863
84.922
84.9557
84.9876
85.0176
85.0458
85.0722
85.097
85.1202
85.1418
85.1619
85.1806
85.198
85.214
85.2288
85.2423
85.2735
86.4012
81.2671
81.2731
81.2847
81.3016
81.3233
81.3492
81.379
81.412
81.4479
81.486
81.526
81.5672
81.6093
81.6519
81.6945
81.7369
81.7786
81.8195
81.8593
81.8979
81.9351
81.9709
82.0052
82.0379
82.069
82.0986
82.1267
82.1532
82.1782
82.2019
82.2241
82.2449
82.2645
82.2827
82.2998
82.3156
82.3303
82.3439
82.3763
83.492
78.4791
78.4843
78.4944
78.509
78.5278
78.5502
78.576
78.6046
78.6356
78.6687
78.7033
78.7392
78.7759
78.8131
78.8504
78.8877
78.9245
78.9608
78.9963
79.031
79.0646
79.097
79.1283
79.1584
79.1872
79.2148
79.2411
79.2662
79.29
79.3125
79.3339
79.3541
79.3731
79.391
79.4078
79.4236
79.4383
79.4519
79.4856
80.5872
75.6802
75.6847
75.6935
75.7062
75.7224
75.7419
75.7643
75.7892
75.8162
75.845
75.8753
75.9067
75.9388
75.9715
76.0045
76.0374
76.0702
76.1026
76.1345
76.1657
76.1962
76.2259
76.2546
76.2824
76.3092
76.335
76.3598
76.3835
76.4063
76.428
76.4486
76.4683
76.487
76.5046
76.5213
76.5371
76.5519
76.5657
76.6011
77.6868
72.8717
72.8757
72.8833
72.8944
72.9086
72.9256
72.9451
72.9668
72.9905
73.0157
73.0423
73.0699
73.0982
73.1272
73.1564
73.1858
73.2151
73.2442
73.273
73.3014
73.3292
73.3564
73.3829
73.4088
73.4338
73.4581
73.4816
73.5043
73.5261
73.5472
73.5673
73.5867
73.6052
73.6228
73.6396
73.6555
73.6705
73.6847
73.7224
74.7912
70.055
70.0585
70.0651
70.0748
70.0872
70.1021
70.1192
70.1383
70.1591
70.1813
70.2047
70.2292
70.2543
70.28
70.3061
70.3324
70.3588
70.3851
70.4113
70.4371
70.4627
70.4878
70.5124
70.5365
70.5601
70.5831
70.6055
70.6274
70.6485
70.6691
70.689
70.7083
70.7268
70.7447
70.7618
70.7782
70.7938
70.8086
70.8497
71.9012
67.231
67.2341
67.2399
67.2484
67.2593
67.2724
67.2875
67.3043
67.3226
67.3423
67.3631
67.3847
67.4072
67.4301
67.4535
67.4772
67.501
67.5249
67.5487
67.5725
67.596
67.6192
67.6422
67.6649
67.6871
67.7091
67.7306
67.7517
67.7724
67.7927
67.8126
67.832
67.8509
67.8694
67.8873
67.9046
67.9213
67.9372
67.9841
69.0182
64.4007
64.4034
64.4085
64.416
64.4256
64.4372
64.4505
64.4653
64.4816
64.499
64.5175
64.5369
64.5569
64.5775
64.5986
64.6199
64.6415
64.6633
64.6851
64.7068
64.7286
64.7502
64.7717
64.793
64.8141
64.835
64.8558
64.8763
64.8967
64.9168
64.9368
64.9565
64.9761
64.9955
65.0146
65.0335
65.0521
65.0702
65.1282
66.1445
61.5648
61.5671
61.5717
61.5783
61.5868
61.597
61.6088
61.622
61.6364
61.6519
61.6684
61.6857
61.7037
61.7222
61.7412
61.7605
61.7801
61.7999
61.8199
61.8399
61.86
61.8801
61.9001
61.9202
61.9402
61.9601
61.9801
62
62.02
62.0399
62.06
62.0801
62.1004
62.1208
62.1415
62.1624
62.1836
62.2051
62.2833
63.2814
58.7239
58.726
58.73
58.7359
58.7434
58.7525
58.7629
58.7746
58.7875
58.8013
58.816
58.8315
58.8476
58.8643
58.8814
58.8989
58.9167
58.9347
58.9529
58.9713
58.9898
59.0084
59.0271
59.0459
59.0647
59.0836
59.1026
59.1218
59.1411
59.1606
59.1804
59.2005
59.2211
59.2422
59.2639
59.2865
59.31
59.3348
59.4412
60.4252
55.8787
55.8806
55.8841
55.8893
55.896
55.904
55.9133
55.9237
55.9351
55.9475
55.9606
55.9744
55.9889
56.0038
56.0192
56.035
56.0511
56.0675
56.0841
56.1009
56.1179
56.135
56.1522
56.1696
56.1871
56.2048
56.2227
56.2407
56.259
56.2776
56.2966
56.316
56.336
56.3566
56.378
56.4004
56.4241
56.4493
56.5763
57.5645
53.0296
53.0313
53.0344
53.039
53.0449
53.052
53.0603
53.0695
53.0797
53.0906
53.1024
53.1147
53.1276
53.141
53.1548
53.169
53.1835
53.1983
53.2134
53.2286
53.244
53.2596
53.2753
53.2912
53.3073
53.3235
53.3399
53.3566
53.3734
53.3906
53.4081
53.4259
53.4442
53.463
53.4824
53.5025
53.5234
53.5453
53.6673
54.6908
50.1772
50.1786
50.1814
50.1854
50.1906
50.1969
50.2042
50.2124
50.2214
50.2312
50.2416
50.2526
50.2641
50.276
50.2883
50.301
50.314
50.3272
50.3407
50.3544
50.3682
50.3823
50.3964
50.4107
50.4252
50.4398
50.4546
50.4695
50.4846
50.4999
50.5154
50.531
50.547
50.5631
50.5794
50.596
50.6128
50.6297
50.7272
51.8117
47.3216
47.3229
47.3254
47.3289
47.3335
47.3391
47.3455
47.3528
47.3607
47.3693
47.3785
47.3882
47.3984
47.409
47.4199
47.4311
47.4426
47.4544
47.4663
47.4784
47.4907
47.5031
47.5157
47.5284
47.5411
47.554
47.567
47.58
47.5932
47.6064
47.6197
47.633
47.6464
47.6597
47.673
47.6861
47.699
47.7115
47.7834
48.9411
44.4635
44.4646
44.4667
44.4699
44.4739
44.4788
44.4844
44.4908
44.4978
44.5053
44.5134
44.5219
44.5308
44.5401
44.5497
44.5596
44.5696
44.5799
44.5904
44.601
44.6117
44.6225
44.6334
44.6444
44.6555
44.6666
44.6777
44.6889
44.7
44.7112
44.7223
44.7334
44.7444
44.7552
44.7658
44.7762
44.7861
44.7957
44.849
46.0862
41.603
41.6039
41.6058
41.6085
41.6121
41.6163
41.6213
41.6268
41.6329
41.6395
41.6465
41.6539
41.6617
41.6697
41.678
41.6865
41.6953
41.7041
41.7131
41.7222
41.7314
41.7406
41.7499
41.7592
41.7686
41.7779
41.7872
41.7965
41.8058
41.815
41.8241
41.8332
41.8421
41.8508
41.8593
41.8675
41.8755
41.883
41.9246
43.249
38.7404
38.7413
38.7429
38.7453
38.7483
38.752
38.7563
38.761
38.7663
38.772
38.778
38.7844
38.7911
38.798
38.8051
38.8123
38.8197
38.8272
38.8348
38.8425
38.8501
38.8578
38.8655
38.8732
38.8808
38.8885
38.896
38.9035
38.911
38.9183
38.9256
38.9328
38.9398
38.9468
38.9536
38.9602
38.9666
38.9728
39.0065
40.4299
35.8761
35.8768
35.8782
35.8803
35.8829
35.8861
35.8897
35.8938
35.8983
35.9031
35.9083
35.9137
35.9193
35.9251
35.9311
35.9372
35.9433
35.9495
35.9558
35.962
35.9682
35.9744
35.9806
35.9866
35.9926
35.9986
36.0044
36.0101
36.0158
36.0214
36.0269
36.0323
36.0377
36.043
36.0482
36.0534
36.0586
36.0638
36.0911
37.6304
33.0103
33.0109
33.0121
33.0138
33.0161
33.0187
33.0218
33.0253
33.0291
33.0332
33.0375
33.042
33.0467
33.0515
33.0564
33.0613
33.0663
33.0713
33.0763
33.0812
33.086
33.0908
33.0954
33.0999
33.1043
33.1086
33.1127
33.1167
33.1206
33.1243
33.128
33.1316
33.1352
33.1388
33.1425
33.1462
33.1501
33.1542
33.1755
34.8516
30.1432
30.1437
30.1447
30.1462
30.148
30.1503
30.1529
30.1558
30.1589
30.1623
30.1658
30.1695
30.1733
30.1772
30.1812
30.1851
30.189
30.1929
30.1966
30.2003
30.2038
30.2072
30.2104
30.2135
30.2163
30.2189
30.2213
30.2235
30.2255
30.2274
30.2291
30.2307
30.2323
30.2339
30.2356
30.2376
30.2399
30.2425
30.2568
32.0926
27.275
27.2754
27.2762
27.2774
27.279
27.2809
27.283
27.2854
27.2879
27.2907
27.2936
27.2965
27.2996
27.3026
27.3057
27.3087
27.3116
27.3144
27.3172
27.3197
27.322
27.3242
27.3261
27.3277
27.329
27.3301
27.3308
27.3312
27.3313
27.331
27.3305
27.3298
27.3289
27.328
27.3271
27.3264
27.3262
27.3267
27.3323
29.3366
24.4059
24.4062
24.4069
24.4079
24.4092
24.4107
24.4124
24.4143
24.4164
24.4186
24.4208
24.4232
24.4255
24.4278
24.4301
24.4323
24.4344
24.4364
24.4381
24.4397
24.441
24.442
24.4428
24.4431
24.4431
24.4427
24.4419
24.4405
24.4387
24.4363
24.4334
24.43
24.426
24.4216
24.4169
24.4121
24.4076
24.4037
24.4013
26.4273
21.536
21.5363
21.5368
21.5376
21.5387
21.5399
21.5412
21.5428
21.5444
21.5461
21.5478
21.5496
21.5514
21.5531
21.5547
21.5562
21.5576
21.5588
21.5598
21.5606
21.561
21.5612
21.561
21.5604
21.5593
21.5577
21.5556
21.5528
21.5493
21.5451
21.5399
21.5338
21.5265
21.518
21.5081
21.4967
21.4839
21.4701
21.4563
21.6969
18.6655
18.6658
18.6662
18.6668
18.6676
18.6686
18.6697
18.6708
18.6721
18.6734
18.6747
18.676
18.6773
18.6785
18.6796
18.6806
18.6814
18.682
18.6824
18.6826
18.6824
18.6819
18.6811
18.6798
18.678
18.6757
18.6728
18.6692
18.6648
18.6595
18.6531
18.6454
18.6362
18.6248
18.6107
18.5929
18.5697
18.5386
18.4952
18.4638
15.7946
15.7948
15.7951
15.7956
15.7962
15.797
15.7978
15.7987
15.7996
15.8006
15.8015
15.8025
15.8033
15.8041
15.8048
15.8054
15.8058
15.806
15.806
15.8058
15.8053
15.8044
15.8032
15.8016
15.7995
15.797
15.7939
15.7903
15.7859
15.7809
15.775
15.7682
15.7604
15.7515
15.7415
15.7305
15.7188
15.7071
15.6969
15.6916
12.9233
12.9234
12.9237
12.9241
12.9245
12.9251
12.9257
12.9263
12.927
12.9277
12.9284
12.929
12.9296
12.9301
12.9305
12.9308
12.9309
12.9309
12.9307
12.9302
12.9295
12.9285
12.9272
12.9256
12.9237
12.9213
12.9185
12.9153
12.9117
12.9076
12.903
12.8979
12.8925
12.8867
12.8808
12.8749
12.8694
12.8647
12.8614
12.8599
10.0517
10.0518
10.052
10.0523
10.0526
10.053
10.0534
10.0539
10.0543
10.0548
10.0553
10.0557
10.0561
10.0564
10.0566
10.0567
10.0567
10.0565
10.0562
10.0557
10.055
10.0541
10.0529
10.0515
10.0499
10.0479
10.0457
10.0432
10.0405
10.0375
10.0342
10.0308
10.0273
10.0238
10.0204
10.0173
10.0146
10.0124
10.011
10.0105
7.17993
7.18
7.18012
7.1803
7.18052
7.18078
7.18107
7.18137
7.18168
7.18198
7.18227
7.18252
7.18274
7.1829
7.18299
7.18301
7.18293
7.18275
7.18245
7.18201
7.18144
7.18071
7.17982
7.17877
7.17754
7.17614
7.17457
7.17284
7.17097
7.16898
7.1669
7.16478
7.16267
7.16063
7.15872
7.15703
7.15562
7.15456
7.15391
7.15368
4.30801
4.30805
4.30812
4.30822
4.30835
4.3085
4.30866
4.30883
4.309
4.30917
4.30933
4.30946
4.30957
4.30965
4.30968
4.30967
4.3096
4.30946
4.30925
4.30896
4.30859
4.30813
4.30757
4.30692
4.30617
4.30533
4.30441
4.3034
4.30233
4.30121
4.30006
4.29891
4.29778
4.29672
4.29575
4.29491
4.29422
4.29372
4.29342
4.29332
1.43601
1.43602
1.43605
1.43608
1.43612
1.43617
1.43622
1.43628
1.43633
1.43639
1.43644
1.43648
1.43651
1.43653
1.43654
1.43653
1.4365
1.43645
1.43638
1.43628
1.43615
1.43599
1.4358
1.43559
1.43534
1.43506
1.43475
1.43442
1.43407
1.43371
1.43335
1.43298
1.43263
1.4323
1.432
1.43175
1.43154
1.43139
1.4313
1.43128
2811.69
2783.2
2727.59
2651.67
2558.37
2447.62
2321.25
2192.37
2060.92
1926.82
1789.98
1650.29
1507.63
1361.84
1212.73
1060.08
903.573
742.764
576.981
405.025
224.199
118.341
116.716
115.633
114.827
114.198
113.69
113.269
112.913
112.608
112.345
112.117
111.92
111.751
111.608
111.49
111.395
111.323
111.275
111.25
683.68
555.303
436.902
333.662
242.838
164.68
113.413
112.674
112.221
111.889
111.644
111.467
111.345
111.271
111.242
111.258
111.324
111.446
111.638
111.924
112.339
112.633
112.46
112.103
111.696
111.296
110.924
110.587
110.285
110.016
109.778
109.568
109.384
109.225
109.089
108.976
108.885
108.816
108.769
108.746
119.109
108.745
108.646
108.667
108.737
108.863
109.015
109.024
108.956
108.857
108.756
108.666
108.595
108.547
108.524
108.529
108.561
108.622
108.71
108.815
108.916
108.959
108.891
108.733
108.517
108.273
108.021
107.774
107.539
107.319
107.118
106.936
106.774
106.631
106.508
106.404
106.321
106.257
106.213
106.191
106.456
105.791
105.794
105.806
105.828
105.856
105.88
105.883
105.866
105.833
105.793
105.752
105.715
105.686
105.668
105.663
105.669
105.686
105.709
105.731
105.74
105.721
105.661
105.559
105.423
105.263
105.089
104.909
104.73
104.558
104.394
104.243
104.105
103.981
103.873
103.781
103.707
103.649
103.61
103.59
103.248
102.874
102.872
102.874
102.878
102.881
102.882
102.878
102.868
102.851
102.831
102.809
102.787
102.767
102.75
102.738
102.729
102.721
102.714
102.702
102.679
102.642
102.584
102.505
102.406
102.291
102.164
102.03
101.894
101.759
101.628
101.504
101.39
101.286
101.193
101.114
101.049
100.999
100.965
100.947
100.295
99.9364
99.9319
99.93
99.9278
99.9248
99.9203
99.9135
99.9041
99.8921
99.8779
99.862
99.8452
99.8282
99.8113
99.7945
99.7776
99.7594
99.7386
99.713
99.6803
99.638
99.5844
99.5184
99.4405
99.352
99.2551
99.1523
99.0464
98.94
98.8356
98.7354
98.6412
98.5547
98.4774
98.4105
98.355
98.3121
98.2826
98.2674
97.3657
96.9967
96.9908
96.9876
96.9836
96.9787
96.9726
96.965
96.9558
96.945
96.9326
96.9187
96.9036
96.8872
96.8698
96.851
96.8306
96.8081
96.7824
96.7526
96.7176
96.6761
96.6274
96.571
96.507
96.4361
96.3593
96.2782
96.1944
96.1097
96.0259
95.9447
95.8678
95.7965
95.7323
95.6763
95.6297
95.5934
95.5683
95.5554
94.4425
94.0609
94.0542
94.0505
94.0458
94.0403
94.0336
94.0258
94.0168
94.0063
93.9945
93.9814
93.9668
93.9507
93.9331
93.9137
93.8924
93.8687
93.8421
93.8122
93.7782
93.7397
93.6963
93.6477
93.5941
93.5357
93.4734
93.408
93.3405
93.2722
93.2044
93.1385
93.0756
93.017
92.964
92.9175
92.8786
92.8482
92.8272
92.8163
91.5246
91.1305
91.1233
91.1193
91.1144
91.1086
91.1018
91.094
91.085
91.0748
91.0634
91.0506
91.0364
91.0208
91.0035
90.9845
90.9635
90.9403
90.9147
90.8863
90.8548
90.8199
90.7816
90.7396
90.6942
90.6455
90.5941
90.5404
90.4853
90.4297
90.3744
90.3205
90.269
90.2208
90.177
90.1386
90.1063
90.081
90.0635
90.0544
88.6117
88.2057
88.1981
88.1939
88.1889
88.183
88.1762
88.1685
88.1596
88.1497
88.1387
88.1264
88.1127
88.0977
88.0812
88.063
88.0431
88.0213
87.9973
87.9712
87.9426
87.9115
87.8779
87.8416
87.8028
87.7618
87.7188
87.6743
87.6289
87.5831
87.5376
87.4933
87.4509
87.4112
87.3751
87.3433
87.3165
87.2955
87.281
87.2735
85.7036
85.2863
85.2784
85.274
85.269
85.2631
85.2564
85.2488
85.2402
85.2306
85.22
85.2082
85.1953
85.1811
85.1655
85.1485
85.13
85.1098
85.0879
85.0642
85.0386
85.0111
84.9816
84.9503
84.9171
84.8823
84.8461
84.8088
84.771
84.7329
84.6953
84.6587
84.6236
84.5908
84.5609
84.5346
84.5124
84.495
84.4829
84.4766
82.7998
82.3718
82.3636
82.3592
82.3541
82.3483
82.3417
82.3343
82.326
82.3169
82.3067
82.2956
82.2834
82.2701
82.2557
82.2399
82.2229
82.2045
82.1847
82.1635
82.1407
82.1164
82.0906
82.0635
82.0349
82.0052
81.9746
81.9432
81.9114
81.8797
81.8483
81.8178
81.7887
81.7615
81.7367
81.7148
81.6964
81.6819
81.6719
81.6667
79.8997
79.4617
79.4534
79.4489
79.4438
79.4381
79.4316
79.4245
79.4166
79.4078
79.3983
79.3878
79.3765
79.3641
79.3508
79.3363
79.3208
79.3042
79.2864
79.2674
79.2472
79.2258
79.2033
79.1797
79.1551
79.1297
79.1036
79.077
79.0502
79.0235
78.9972
78.9717
78.9474
78.9247
78.904
78.8858
78.8705
78.8584
78.8501
78.8457
77.0028
76.5555
76.5471
76.5426
76.5375
76.5319
76.5256
76.5187
76.5112
76.5029
76.4939
76.4842
76.4736
76.4622
76.45
76.4368
76.4227
76.4077
76.3918
76.3749
76.357
76.3382
76.3185
76.298
76.2768
76.2549
76.2326
76.21
76.1873
76.1647
76.1426
76.1211
76.1007
76.0817
76.0644
76.0492
76.0364
76.0263
76.0193
76.0157
74.1086
73.6528
73.6443
73.6397
73.6347
73.6292
73.6231
73.6165
73.6093
73.6015
73.5931
73.584
73.5742
73.5637
73.5525
73.5406
73.5279
73.5144
73.5001
73.4851
73.4693
73.4527
73.4355
73.4177
73.3993
73.3805
73.3613
73.342
73.3226
73.3035
73.2847
73.2666
73.2494
73.2334
73.2189
73.2061
73.1954
73.1869
73.1811
73.1781
71.2168
70.7529
70.7444
70.7398
70.7349
70.7295
70.7236
70.7173
70.7104
70.7031
70.6952
70.6868
70.6777
70.6681
70.6579
70.647
70.6355
70.6234
70.6107
70.5973
70.5833
70.5688
70.5537
70.5382
70.5222
70.5059
70.4895
70.4729
70.4563
70.44
70.4241
70.4087
70.3942
70.3807
70.3684
70.3577
70.3486
70.3415
70.3366
70.3341
68.3268
67.8555
67.847
67.8424
67.8375
67.8322
67.8266
67.8205
67.814
67.8071
67.7997
67.7919
67.7836
67.7747
67.7654
67.7556
67.7452
67.7343
67.7229
67.7111
67.6987
67.6859
67.6727
67.6591
67.6453
67.6312
67.6169
67.6027
67.5885
67.5745
67.561
67.5479
67.5356
67.5241
67.5137
67.5046
67.497
67.491
67.4869
67.4847
65.4381
64.96
64.9516
64.947
64.9422
64.937
64.9316
64.9258
64.9196
64.9131
64.9062
64.8989
64.8913
64.8832
64.8747
64.8658
64.8564
64.8467
64.8365
64.8259
64.815
64.8037
64.7921
64.7803
64.7682
64.756
64.7437
64.7314
64.7192
64.7072
64.6956
64.6845
64.674
64.6642
64.6554
64.6477
64.6412
64.6362
64.6327
64.6309
62.5499
62.0661
62.0577
62.0532
62.0484
62.0434
62.0382
62.0326
62.0268
62.0207
62.0142
62.0075
62.0004
61.993
61.9853
61.9772
61.9688
61.96
61.951
61.9416
61.9319
61.922
61.9118
61.9015
61.8909
61.8803
61.8697
61.859
61.8486
61.8383
61.8283
61.8188
61.8098
61.8015
61.794
61.7875
61.782
61.7777
61.7747
61.7732
59.6609
59.1732
59.165
59.1605
59.1559
59.151
59.146
59.1407
59.1352
59.1294
59.1234
59.1172
59.1107
59.1039
59.0969
59.0896
59.082
59.0742
59.0661
59.0578
59.0492
59.0405
59.0316
59.0225
59.0133
59.0041
58.9949
58.9857
58.9767
58.9678
58.9593
58.9511
58.9435
58.9364
58.93
58.9244
58.9197
58.9161
58.9136
58.9123
56.7703
56.2811
56.2731
56.2687
56.2642
56.2595
56.2546
56.2496
56.2444
56.239
56.2335
56.2277
56.2217
56.2156
56.2092
56.2026
56.1958
56.1888
56.1816
56.1743
56.1667
56.159
56.1512
56.1433
56.1353
56.1273
56.1194
56.1114
56.1037
56.0961
56.0887
56.0818
56.0752
56.0692
56.0637
56.0589
56.055
56.0519
56.0497
56.0486
53.8785
53.3895
53.3817
53.3774
53.373
53.3685
53.3639
53.3591
53.3542
53.3492
53.3441
53.3387
53.3333
53.3277
53.3219
53.316
53.31
53.3038
53.2974
53.2909
53.2843
53.2776
53.2708
53.2639
53.257
53.25
53.2431
53.2363
53.2296
53.2231
53.2168
53.2109
53.2053
53.2001
53.1955
53.1914
53.188
53.1854
53.1836
53.1826
50.9876
50.4981
50.4906
50.4864
50.4821
50.4778
50.4734
50.4689
50.4643
50.4597
50.4549
50.4501
50.4452
50.4401
50.435
50.4297
50.4243
50.4188
50.4133
50.4076
50.4018
50.396
50.3901
50.3841
50.3782
50.3722
50.3663
50.3604
50.3547
50.3491
50.3438
50.3387
50.3339
50.3295
50.3255
50.3221
50.3192
50.317
50.3154
50.3146
48.0979
47.6068
47.5995
47.5954
47.5912
47.5871
47.5829
47.5787
47.5745
47.5702
47.5659
47.5615
47.5571
47.5526
47.548
47.5434
47.5387
47.534
47.5291
47.5242
47.5192
47.5142
47.5091
47.504
47.4989
47.4939
47.4888
47.4838
47.4789
47.4742
47.4697
47.4653
47.4613
47.4576
47.4542
47.4513
47.4489
47.447
47.4456
47.445
45.2083
44.7149
44.7079
44.7039
44.6999
44.696
44.6921
44.6883
44.6844
44.6805
44.6767
44.6728
44.6689
44.665
44.6611
44.6571
44.6531
44.649
44.6449
44.6407
44.6365
44.6323
44.628
44.6237
44.6194
44.6151
44.6108
44.6066
44.6025
44.5985
44.5947
44.591
44.5876
44.5845
44.5817
44.5792
44.5772
44.5756
44.5744
44.5739
42.3173
41.8221
41.8155
41.8116
41.8079
41.8043
41.8007
41.7973
41.7938
41.7905
41.7871
41.7838
41.7805
41.7773
41.774
41.7706
41.7673
41.7639
41.7605
41.7571
41.7536
41.7501
41.7466
41.743
41.7395
41.7359
41.7324
41.7289
41.7255
41.7222
41.719
41.7159
41.7131
41.7105
41.7081
41.706
41.7043
41.703
41.7021
41.7016
39.424
38.928
38.9218
38.9182
38.9148
38.9116
38.9085
38.9055
38.9026
38.8998
38.8971
38.8944
38.8918
38.8892
38.8866
38.884
38.8814
38.8788
38.8761
38.8734
38.8706
38.8678
38.865
38.8622
38.8593
38.8564
38.8536
38.8507
38.848
38.8452
38.8426
38.8401
38.8378
38.8356
38.8337
38.832
38.8306
38.8295
38.8287
38.8283
36.5274
36.0319
36.0263
36.0232
36.0202
36.0175
36.015
36.0127
36.0105
36.0084
36.0064
36.0045
36.0027
36.0009
35.9991
35.9973
35.9954
35.9935
35.9916
35.9896
35.9876
35.9855
35.9834
35.9812
35.979
35.9768
35.9745
35.9723
35.9701
35.9679
35.9658
35.9638
35.9619
35.9601
35.9586
35.9572
35.956
35.9551
35.9545
35.9542
33.6252
33.1332
33.1285
33.126
33.1237
33.1217
33.1201
33.1186
33.1173
33.1162
33.1151
33.1142
33.1133
33.1123
33.1114
33.1104
33.1094
33.1083
33.1072
33.1059
33.1046
33.1032
33.1018
33.1002
33.0986
33.097
33.0953
33.0936
33.0919
33.0903
33.0886
33.087
33.0855
33.0841
33.0829
33.0818
33.0809
33.0801
33.0796
33.0794
30.7145
30.231
30.2277
30.226
30.2247
30.2239
30.2234
30.2232
30.2231
30.2232
30.2234
30.2235
30.2237
30.2238
30.2239
30.2238
30.2237
30.2234
30.223
30.2225
30.2219
30.2211
30.2203
30.2194
30.2183
30.2172
30.2161
30.2149
30.2136
30.2124
30.2112
30.21
30.2088
30.2078
30.2068
30.2059
30.2052
30.2046
30.2042
30.204
27.7904
27.324
27.3225
27.3222
27.3227
27.3236
27.3249
27.3265
27.3281
27.3298
27.3315
27.333
27.3344
27.3357
27.3368
27.3377
27.3384
27.3389
27.3393
27.3395
27.3395
27.3394
27.3391
27.3387
27.3382
27.3376
27.3369
27.3361
27.3353
27.3345
27.3336
27.3327
27.3319
27.3311
27.3303
27.3297
27.3291
27.3287
27.3284
27.3282
24.8301
24.4097
24.4109
24.4135
24.417
24.421
24.4251
24.4292
24.4332
24.4369
24.4403
24.4433
24.4461
24.4486
24.4507
24.4525
24.4541
24.4554
24.4564
24.4572
24.4578
24.4582
24.4584
24.4585
24.4584
24.4582
24.4579
24.4575
24.457
24.4565
24.4559
24.4554
24.4548
24.4542
24.4537
24.4532
24.4528
24.4525
24.4522
24.4521
21.637
21.4811
21.4891
21.4986
21.5083
21.5175
21.5259
21.5335
21.5402
21.5461
21.5513
21.5558
21.5598
21.5633
21.5663
21.5689
21.5711
21.573
21.5746
21.5759
21.5769
21.5778
21.5784
21.5788
21.5791
21.5792
21.5792
21.5791
21.5789
21.5786
21.5783
21.578
21.5776
21.5772
21.5768
21.5765
21.5762
21.576
21.5758
21.5757
18.4709
18.5169
18.5559
18.5839
18.6047
18.6208
18.6336
18.644
18.6528
18.6602
18.6665
18.6719
18.6766
18.6807
18.6842
18.6873
18.6899
18.6922
18.6941
18.6957
18.6971
18.6982
18.6991
18.6997
18.7003
18.7006
18.7008
18.701
18.701
18.7009
18.7008
18.7006
18.7004
18.7002
18.6999
18.6997
18.6995
18.6994
18.6992
18.6992
15.6934
15.7019
15.7136
15.7259
15.7377
15.7486
15.7584
15.7671
15.7747
15.7815
15.7874
15.7927
15.7973
15.8013
15.8049
15.808
15.8107
15.8131
15.8151
15.8168
15.8183
15.8195
15.8205
15.8214
15.822
15.8225
15.8229
15.8231
15.8233
15.8234
15.8234
15.8233
15.8232
15.8231
15.823
15.8228
15.8227
15.8226
15.8226
15.8225
12.8606
12.8633
12.8677
12.8731
12.8792
12.8854
12.8916
12.8976
12.9032
12.9084
12.9131
12.9175
12.9214
12.925
12.9281
12.9309
12.9334
12.9356
12.9375
12.9392
12.9406
12.9418
12.9428
12.9437
12.9443
12.9449
12.9453
12.9456
12.9459
12.946
12.9461
12.9461
12.9461
12.9461
12.946
12.946
12.9459
12.9458
12.9458
12.9458
10.0108
10.012
10.0141
10.0167
10.0199
10.0235
10.0272
10.031
10.0347
10.0384
10.0418
10.0451
10.0481
10.0509
10.0534
10.0557
10.0577
10.0596
10.0612
10.0626
10.0638
10.0649
10.0658
10.0666
10.0672
10.0677
10.0681
10.0685
10.0687
10.0689
10.069
10.0691
10.0691
10.0691
10.0691
10.0691
10.069
10.069
10.069
10.069
7.15387
7.1545
7.15553
7.15695
7.15869
7.16068
7.16285
7.16513
7.16747
7.1698
7.17208
7.17427
7.17635
7.17831
7.18012
7.18178
7.18329
7.18465
7.18587
7.18695
7.18789
7.18871
7.18942
7.19002
7.19052
7.19094
7.19128
7.19155
7.19175
7.19191
7.19202
7.1921
7.19214
7.19217
7.19217
7.19217
7.19215
7.19214
7.19213
7.19212
4.29343
4.29374
4.29425
4.29495
4.29583
4.29685
4.29799
4.29921
4.30048
4.30177
4.30305
4.30431
4.30552
4.30667
4.30775
4.30875
4.30966
4.3105
4.31125
4.31191
4.3125
4.31302
4.31347
4.31385
4.31417
4.31444
4.31466
4.31484
4.31498
4.31509
4.31517
4.31522
4.31526
4.31528
4.31529
4.31529
4.31529
4.31528
4.31528
4.31528
1.43131
1.4314
1.43156
1.43178
1.43204
1.43236
1.43271
1.4331
1.4335
1.43391
1.43432
1.43473
1.43513
1.43551
1.43586
1.4362
1.4365
1.43678
1.43704
1.43726
1.43746
1.43764
1.43779
1.43792
1.43803
1.43813
1.4382
1.43827
1.43831
1.43835
1.43838
1.4384
1.43841
1.43842
1.43843
1.43843
1.43843
1.43843
1.43843
1.43843
)
;

boundaryField
{
    top
    {
        type            fixedValue;
        value           uniform 0;
    }
    inlet
    {
        type            darcyGradPressure;
        gradient        nonuniform List<scalar> 
80
(
9.81
9.81
9.81
9.81
9.81
9.81
9.81
9.81
9.81
9.81
9.81
9.81
9.81
9.81
9.81
9.81
9.81
9.81
9.81
9.81
9.81
544.451
9307.46
9612.86
9699.19
9738.78
9760.6
9773.92
9782.6
9788.56
9792.8
9795.93
9798.29
9800.12
9801.58
9802.8
9803.82
9804.7
9805.45
9806.13
9808.83
9808.57
9808.28
9807.97
9807.61
9807.2
9806.71
9806.13
9805.39
9804.45
9803.21
9801.54
9799.22
9795.91
9790.98
9783.22
9770.18
9745.86
9691.52
9504.05
3560.09
9.81164
9.81
9.81
9.81
9.81
9.81
9.81
9.81
9.81
9.81
9.81
9.81
9.81
9.81
9.81
9.81
9.81
9.81
9.81
)
;
        value           nonuniform List<scalar> 
80
(
111.74
111.761
111.801
111.86
111.937
112.033
112.148
112.283
112.437
112.614
112.814
113.04
113.296
113.587
113.921
114.309
114.768
115.325
116.023
116.935
118.196
236.741
1556.56
1797.41
1998.09
2183.55
2359.24
2527.48
2689.55
2846.31
2998.32
3146.03
3289.77
3429.81
3566.36
3698.49
3812.29
3907.14
3980.87
4027.98
4037.79
4009.27
3953.62
3877.66
3784.32
3673.52
3547.09
3418.14
3286.6
3152.38
3015.38
2875.49
2732.53
2586.33
2436.61
2282.99
2124.85
1961
1788.42
1593.03
669.21
119.568
117.942
116.859
116.053
115.424
114.916
114.495
114.139
113.834
113.571
113.343
113.146
112.977
112.834
112.716
112.621
112.549
112.501
112.476
)
;
    }
    axis
    {
        type            darcyGradPressure;
        gradient        uniform -0;
        value           nonuniform List<scalar> 
80
(
110.514
108.019
105.482
102.906
100.293
97.6472
94.9718
92.2705
89.5466
86.803
84.0423
81.2671
78.4791
75.6802
72.8717
70.055
67.231
64.4007
61.5648
58.7239
55.8787
53.0296
50.1772
47.3216
44.4635
41.603
38.7404
35.8761
33.0103
30.1432
27.275
24.4059
21.536
18.6655
15.7946
12.9233
10.0517
7.17993
4.30801
1.43601
111.25
108.746
106.191
103.59
100.947
98.2674
95.5554
92.8163
90.0544
87.2735
84.4766
81.6667
78.8457
76.0157
73.1781
70.3341
67.4847
64.6309
61.7732
58.9123
56.0486
53.1826
50.3146
47.445
44.5739
41.7016
38.8283
35.9542
33.0794
30.204
27.3282
24.4521
21.5757
18.6992
15.8225
12.9458
10.069
7.19212
4.31528
1.43843
)
;
    }
    frontAndBack
    {
        type            empty;
    }
}


// ************************************************************************* //
