/*--------------------------------*- C++ -*----------------------------------*\
  =========                 |
  \\      /  F ield         | OpenFOAM: The Open Source CFD Toolbox
   \\    /   O peration     | Website:  https://openfoam.org
    \\  /    A nd           | Version:  7
     \\/     M anipulation  |
\*---------------------------------------------------------------------------*/
FoamFile
{
    version     2.0;
    format      ascii;
    class       surfaceScalarField;
    location    "15000";
    object      phia;
}
// * * * * * * * * * * * * * * * * * * * * * * * * * * * * * * * * * * * * * //

dimensions      [0 3 -1 0 0 0 0];

internalField   nonuniform List<scalar> 
6280
(
-1.67632e-07
1.67632e-07
-3.34453e-07
1.66822e-07
-5.02562e-07
1.68109e-07
-6.74081e-07
1.71519e-07
-8.51288e-07
1.77206e-07
-1.03675e-06
1.85462e-07
-1.23351e-06
1.96756e-07
-1.4453e-06
2.11796e-07
-1.67693e-06
2.31631e-07
-1.93475e-06
2.57817e-07
-2.22745e-06
2.92703e-07
-2.56736e-06
3.39903e-07
-2.97248e-06
4.05128e-07
-3.47014e-06
4.97658e-07
-4.10316e-06
6.33013e-07
-4.94108e-06
8.3792e-07
-6.10074e-06
1.15966e-06
-7.78473e-06
1.68399e-06
-1.03545e-05
2.56975e-06
-1.4471e-05
4.11648e-06
-2.01797e-05
6.87317e-06
-1.34393e-06
4.86446e-06
-5.34645e-07
3.69903e-07
-3.03583e-07
2.71577e-07
-1.96729e-07
2.2146e-07
-1.37391e-07
1.84847e-07
-1.0092e-07
1.56402e-07
-7.70179e-08
1.3382e-07
-6.05264e-08
1.15738e-07
-4.87135e-08
1.01019e-07
-3.999e-08
8.89109e-08
-3.337e-08
7.88468e-08
-2.82204e-08
7.03735e-08
-2.41041e-08
6.31372e-08
-2.04941e-08
5.6703e-08
-1.55402e-08
4.89765e-08
-1.14133e-08
4.18558e-08
-7.81055e-09
3.53241e-08
-4.35153e-09
2.93434e-08
2.37553e-08
-3.13593e-10
-1.63042e-07
3.30673e-07
-3.25075e-07
3.28855e-07
-4.87908e-07
3.30942e-07
-6.53331e-07
3.36942e-07
-8.23195e-07
3.47071e-07
-9.99495e-07
3.61761e-07
-1.18444e-06
3.81706e-07
-1.38057e-06
4.0792e-07
-1.59078e-06
4.41845e-07
-1.81846e-06
4.85498e-07
-2.06745e-06
5.41685e-07
-2.34185e-06
6.14303e-07
-2.64545e-06
7.08735e-07
-2.98012e-06
8.32331e-07
-3.34197e-06
9.94862e-07
-3.71266e-06
1.20861e-06
-4.04014e-06
1.48714e-06
-4.19672e-06
1.84057e-06
-3.88882e-06
2.26184e-06
-2.46449e-06
2.69216e-06
1.4696e-06
2.93908e-06
3.83817e-06
2.49589e-06
2.50786e-06
1.70021e-06
1.52929e-06
1.25015e-06
7.58087e-07
9.92663e-07
9.35924e-08
8.49341e-07
-5.32084e-07
7.82078e-07
-1.17331e-06
7.7505e-07
-1.88468e-06
8.27106e-07
-2.7337e-06
9.50037e-07
-3.816e-06
1.17121e-06
-5.27792e-06
1.54077e-06
-7.35294e-06
2.14539e-06
-1.0384e-05
3.13117e-06
-1.19664e-06
1.91851e-06
-4.82462e-07
1.79904e-07
-2.60478e-07
1.27775e-07
-1.38436e-07
9.36988e-08
-5.78757e-08
6.05194e-08
2.92114e-08
-1.18299e-09
-1.5446e-07
4.85134e-07
-3.07586e-07
4.81981e-07
-4.60701e-07
4.84057e-07
-6.15052e-07
4.91293e-07
-7.71827e-07
5.03846e-07
-9.32163e-07
5.22097e-07
-1.09712e-06
5.46665e-07
-1.26764e-06
5.78433e-07
-1.44437e-06
6.18585e-07
-1.62752e-06
6.68646e-07
-1.81636e-06
7.30519e-07
-2.00854e-06
8.06486e-07
-2.19893e-06
8.99126e-07
-2.37766e-06
1.01106e-06
-2.5272e-06
1.1444e-06
-2.61813e-06
1.29954e-06
-2.60415e-06
1.47316e-06
-2.41847e-06
1.65489e-06
-1.97934e-06
1.82271e-06
-1.2258e-06
1.93863e-06
-2.37188e-07
1.95046e-06
4.41687e-07
1.81701e-06
5.40948e-07
1.60095e-06
3.86998e-07
1.4041e-06
1.25539e-07
1.25412e-06
-1.78831e-07
1.15371e-06
-4.95656e-07
1.0989e-06
-8.05837e-07
1.08523e-06
-1.08788e-06
1.10915e-06
-1.30518e-06
1.16733e-06
-1.38826e-06
1.25428e-06
-1.20499e-06
1.35751e-06
-5.07957e-07
1.44835e-06
1.15859e-06
1.46463e-06
1.79845e-06
1.27864e-06
9.45558e-07
1.0328e-06
1.64043e-07
9.0929e-07
-6.19564e-07
8.79338e-07
-1.13424e-07
1.91514e-07
1.28069e-08
3.59958e-08
-1.4291e-07
6.28043e-07
-2.84135e-07
6.23206e-07
-4.24451e-07
6.24373e-07
-5.64516e-07
6.31358e-07
-7.04846e-07
6.44176e-07
-8.45774e-07
6.63025e-07
-9.87374e-07
6.88265e-07
-1.12935e-06
7.20409e-07
-1.27087e-06
7.601e-07
-1.41029e-06
8.08074e-07
-1.54486e-06
8.6509e-07
-1.67019e-06
9.3181e-07
-1.77966e-06
1.00859e-06
-1.86377e-06
1.09518e-06
-1.9096e-06
1.19023e-06
-1.90073e-06
1.29067e-06
-1.81859e-06
1.39102e-06
-1.64646e-06
1.48277e-06
-1.37814e-06
1.55438e-06
-1.03229e-06
1.59278e-06
-6.69263e-07
1.58744e-06
-3.89935e-07
1.53769e-06
-2.4865e-07
1.45967e-06
-2.20586e-07
1.37603e-06
-2.68154e-07
1.30169e-06
-3.58449e-07
1.24401e-06
-4.64967e-07
1.20542e-06
-5.65147e-07
1.18541e-06
-6.37492e-07
1.1815e-06
-6.59624e-07
1.18947e-06
-6.08508e-07
1.20317e-06
-4.65169e-07
1.21417e-06
-2.28805e-07
1.21199e-06
4.98106e-08
1.18601e-06
1.96678e-07
1.13178e-06
1.62876e-07
1.0666e-06
6.09037e-08
1.01126e-06
-3.03501e-08
9.70594e-07
-3.00412e-08
3.78998e-07
2.0931e-09
1.73764e-08
-1.29574e-07
7.57617e-07
-2.5718e-07
7.50812e-07
-3.83093e-07
7.50286e-07
-5.07467e-07
7.55731e-07
-6.30287e-07
7.66997e-07
-7.51316e-07
7.84054e-07
-8.70016e-07
8.06965e-07
-9.85458e-07
8.35851e-07
-1.0962e-06
8.70843e-07
-1.20015e-06
9.1202e-07
-1.29439e-06
9.59331e-07
-1.37506e-06
1.01248e-06
-1.43724e-06
1.07078e-06
-1.47503e-06
1.13297e-06
-1.48188e-06
1.19707e-06
-1.45139e-06
1.26018e-06
-1.37884e-06
1.31846e-06
-1.2634e-06
1.36733e-06
-1.111e-06
1.40198e-06
-9.3668e-07
1.41846e-06
-7.6426e-07
1.41502e-06
-6.20063e-07
1.39349e-06
-5.19813e-07
1.35942e-06
-4.63655e-07
1.31988e-06
-4.42854e-07
1.28089e-06
-4.45285e-07
1.24644e-06
-4.5835e-07
1.21849e-06
-4.7026e-07
1.19732e-06
-4.70696e-07
1.18193e-06
-4.51543e-07
1.17031e-06
-4.08159e-07
1.15978e-06
-3.41348e-07
1.14736e-06
-2.59725e-07
1.13037e-06
-1.80977e-07
1.10726e-06
-1.27815e-07
1.07862e-06
-1.08735e-07
1.04752e-06
-1.15063e-07
1.01759e-06
-1.35446e-07
9.90984e-07
-2.04243e-08
4.20175e-07
1.08149e-09
1.30176e-08
-1.15565e-07
8.73182e-07
-2.28994e-07
8.64241e-07
-3.40175e-07
8.61467e-07
-4.48899e-07
8.64455e-07
-5.5481e-07
8.72908e-07
-6.57359e-07
8.86603e-07
-7.55751e-07
9.05357e-07
-8.4889e-07
9.2899e-07
-9.35328e-07
9.57281e-07
-1.01322e-06
9.89914e-07
-1.08031e-06
1.02642e-06
-1.13397e-06
1.06613e-06
-1.17126e-06
1.10807e-06
-1.18923e-06
1.15094e-06
-1.18525e-06
1.19309e-06
-1.15759e-06
1.23252e-06
-1.10614e-06
1.26701e-06
-1.03316e-06
1.29434e-06
-9.43793e-07
1.31262e-06
-8.46003e-07
1.32067e-06
-7.49429e-07
1.31844e-06
-6.63105e-07
1.30717e-06
-5.92813e-07
1.28912e-06
-5.39998e-07
1.26706e-06
-5.0261e-07
1.2435e-06
-4.76512e-07
1.22034e-06
-4.56725e-07
1.1987e-06
-4.3837e-07
1.17897e-06
-4.17365e-07
1.16093e-06
-3.90986e-07
1.14394e-06
-3.58329e-07
1.12713e-06
-3.20599e-07
1.10963e-06
-2.81048e-07
1.09082e-06
-2.4426e-07
1.07047e-06
-2.14576e-07
1.04893e-06
-1.94012e-07
1.02695e-06
-1.81858e-07
1.00544e-06
-1.75958e-07
9.85093e-07
-1.91304e-08
4.18838e-07
9.75366e-10
1.22743e-08
-1.0177e-07
9.74953e-07
-2.01361e-07
9.63832e-07
-2.98404e-07
9.58509e-07
-3.92469e-07
9.5852e-07
-4.83027e-07
9.63467e-07
-5.69417e-07
9.72993e-07
-6.50817e-07
9.86757e-07
-7.26222e-07
1.0044e-06
-7.94442e-07
1.0255e-06
-8.54107e-07
1.04958e-06
-9.0371e-07
1.07603e-06
-9.41683e-07
1.1041e-06
-9.66527e-07
1.13291e-06
-9.76987e-07
1.1614e-06
-9.72293e-07
1.1884e-06
-9.52421e-07
1.21265e-06
-9.1834e-07
1.23293e-06
-8.72176e-07
1.24818e-06
-8.17186e-07
1.25763e-06
-7.57458e-07
1.26094e-06
-6.97323e-07
1.25831e-06
-6.40576e-07
1.25042e-06
-5.89789e-07
1.23834e-06
-5.46011e-07
1.22328e-06
-5.08926e-07
1.20642e-06
-4.77259e-07
1.18867e-06
-4.49255e-07
1.17069e-06
-4.23109e-07
1.15282e-06
-3.97316e-07
1.13513e-06
-3.70918e-07
1.11754e-06
-3.43639e-07
1.09985e-06
-3.1588e-07
1.08187e-06
-2.88568e-07
1.0635e-06
-2.62847e-07
1.04475e-06
-2.39676e-07
1.02576e-06
-2.19483e-07
1.00676e-06
-2.02061e-07
9.88015e-07
-1.86685e-07
9.69727e-07
-1.84855e-08
4.08032e-07
9.29883e-10
1.17431e-08
-8.88041e-08
1.06376e-06
-1.75491e-07
1.05052e-06
-2.59549e-07
1.04257e-06
-3.40446e-07
1.03942e-06
-4.17597e-07
1.04062e-06
-4.90351e-07
1.04575e-06
-5.57972e-07
1.05438e-06
-6.19645e-07
1.06607e-06
-6.74485e-07
1.08034e-06
-7.21568e-07
1.09666e-06
-7.59974e-07
1.11443e-06
-7.88861e-07
1.13299e-06
-8.07552e-07
1.1516e-06
-8.15641e-07
1.16949e-06
-8.13103e-07
1.18586e-06
-8.00394e-07
1.19994e-06
-7.78509e-07
1.21105e-06
-7.48976e-07
1.21865e-06
-7.13757e-07
1.22241e-06
-6.75058e-07
1.22224e-06
-6.35059e-07
1.21831e-06
-5.95635e-07
1.21099e-06
-5.58137e-07
1.20084e-06
-5.233e-07
1.18845e-06
-4.91289e-07
1.1744e-06
-4.61835e-07
1.15922e-06
-4.34418e-07
1.14328e-06
-4.08447e-07
1.12685e-06
-3.83403e-07
1.11009e-06
-3.58938e-07
1.09307e-06
-3.34923e-07
1.07583e-06
-3.11433e-07
1.05838e-06
-2.88679e-07
1.04075e-06
-2.66918e-07
1.02299e-06
-2.46341e-07
1.00518e-06
-2.27003e-07
9.87423e-07
-2.08789e-07
9.69801e-07
-1.91434e-07
9.52383e-07
-1.78664e-08
3.95381e-07
8.8877e-10
1.12504e-08
-7.70228e-08
1.14078e-06
-1.52064e-07
1.12556e-06
-2.24559e-07
1.11506e-06
-2.9395e-07
1.10881e-06
-3.59672e-07
1.10634e-06
-4.21137e-07
1.10721e-06
-4.77738e-07
1.11098e-06
-5.28853e-07
1.11718e-06
-5.73861e-07
1.12535e-06
-6.12172e-07
1.13497e-06
-6.43261e-07
1.14552e-06
-6.66716e-07
1.15645e-06
-6.82287e-07
1.16718e-06
-6.89941e-07
1.17715e-06
-6.89903e-07
1.18582e-06
-6.82682e-07
1.19272e-06
-6.69067e-07
1.19743e-06
-6.50098e-07
1.19968e-06
-6.26982e-07
1.19929e-06
-6.00995e-07
1.19625e-06
-5.73359e-07
1.19067e-06
-5.45129e-07
1.18277e-06
-5.17118e-07
1.17283e-06
-4.8986e-07
1.16119e-06
-4.63631e-07
1.14818e-06
-4.38498e-07
1.13408e-06
-4.14388e-07
1.11917e-06
-3.91165e-07
1.10363e-06
-3.68685e-07
1.08761e-06
-3.46841e-07
1.07123e-06
-3.25579e-07
1.05457e-06
-3.049e-07
1.0377e-06
-2.8484e-07
1.02069e-06
-2.6544e-07
1.00359e-06
-2.46728e-07
9.86471e-07
-2.28692e-07
9.69387e-07
-2.11285e-07
9.52394e-07
-1.94418e-07
9.35529e-07
-1.72273e-08
3.81525e-07
8.4993e-10
1.07852e-08
-6.65791e-08
1.20736e-06
-1.31356e-07
1.19034e-06
-1.93769e-07
1.17748e-06
-2.53287e-07
1.16833e-06
-3.09396e-07
1.16245e-06
-3.61597e-07
1.15941e-06
-4.09405e-07
1.15879e-06
-4.52362e-07
1.16014e-06
-4.90044e-07
1.16303e-06
-5.22086e-07
1.16701e-06
-5.48206e-07
1.17164e-06
-5.68225e-07
1.17646e-06
-5.821e-07
1.18105e-06
-5.89938e-07
1.18499e-06
-5.92015e-07
1.1879e-06
-5.88769e-07
1.18947e-06
-5.80789e-07
1.18945e-06
-5.68782e-07
1.18767e-06
-5.53522e-07
1.18403e-06
-5.35801e-07
1.17853e-06
-5.16369e-07
1.17124e-06
-4.95883e-07
1.16228e-06
-4.74881e-07
1.15183e-06
-4.5376e-07
1.14007e-06
-4.32791e-07
1.12721e-06
-4.12133e-07
1.11343e-06
-3.91866e-07
1.0989e-06
-3.72014e-07
1.08377e-06
-3.5258e-07
1.06817e-06
-3.33556e-07
1.0522e-06
-3.14939e-07
1.03595e-06
-2.96732e-07
1.0195e-06
-2.78943e-07
1.0029e-06
-2.61575e-07
9.86224e-07
-2.44623e-07
9.6952e-07
-2.2807e-07
9.52833e-07
-2.1188e-07
9.36204e-07
-1.95988e-07
9.19651e-07
-1.65707e-08
3.67342e-07
8.13221e-10
1.03429e-08
-5.74832e-08
1.26484e-06
-1.13361e-07
1.24621e-06
-1.6711e-07
1.23122e-06
-2.18249e-07
1.21946e-06
-2.6633e-07
1.21053e-06
-3.10941e-07
1.20402e-06
-3.51703e-07
1.19955e-06
-3.88281e-07
1.19672e-06
-4.20389e-07
1.19514e-06
-4.47806e-07
1.19443e-06
-4.70387e-07
1.19422e-06
-4.88076e-07
1.19415e-06
-5.00916e-07
1.19389e-06
-5.09056e-07
1.19313e-06
-5.12749e-07
1.19159e-06
-5.12347e-07
1.18907e-06
-5.0828e-07
1.18539e-06
-5.0104e-07
1.18043e-06
-4.91148e-07
1.17414e-06
-4.79125e-07
1.16651e-06
-4.65464e-07
1.15758e-06
-4.50606e-07
1.14742e-06
-4.34927e-07
1.13615e-06
-4.18728e-07
1.12387e-06
-4.02242e-07
1.11072e-06
-3.85634e-07
1.09682e-06
-3.69023e-07
1.08229e-06
-3.52488e-07
1.06724e-06
-3.36081e-07
1.05177e-06
-3.19838e-07
1.03596e-06
-3.03785e-07
1.0199e-06
-2.87943e-07
1.00365e-06
-2.72326e-07
9.87284e-07
-2.56945e-07
9.70843e-07
-2.41807e-07
9.54381e-07
-2.26912e-07
9.37939e-07
-2.12259e-07
9.21552e-07
-1.97829e-07
9.05237e-07
-1.58994e-08
3.53486e-07
7.78776e-10
9.92371e-09
-4.96575e-08
1.3145e-06
-9.79053e-08
1.29446e-06
-1.44276e-07
1.2776e-06
-1.88348e-07
1.26354e-06
-2.29742e-07
1.25192e-06
-2.68121e-07
1.2424e-06
-3.03192e-07
1.23462e-06
-3.34708e-07
1.22823e-06
-3.62477e-07
1.22291e-06
-3.86364e-07
1.21832e-06
-4.06303e-07
1.21416e-06
-4.22294e-07
1.21015e-06
-4.34413e-07
1.20601e-06
-4.42805e-07
1.20152e-06
-4.47685e-07
1.19647e-06
-4.49325e-07
1.19071e-06
-4.48045e-07
1.18411e-06
-4.44194e-07
1.17658e-06
-4.38137e-07
1.16808e-06
-4.30233e-07
1.1586e-06
-4.20825e-07
1.14817e-06
-4.10222e-07
1.13682e-06
-3.98698e-07
1.12462e-06
-3.8648e-07
1.11165e-06
-3.73758e-07
1.098e-06
-3.60677e-07
1.08374e-06
-3.47353e-07
1.06897e-06
-3.33874e-07
1.05376e-06
-3.20304e-07
1.0382e-06
-3.06694e-07
1.02235e-06
-2.93082e-07
1.00629e-06
-2.79499e-07
9.90071e-07
-2.65969e-07
9.73754e-07
-2.52514e-07
9.57388e-07
-2.39153e-07
9.4102e-07
-2.25904e-07
9.24689e-07
-2.12785e-07
9.08433e-07
-1.99796e-07
8.92266e-07
-1.522e-08
3.39377e-07
7.46237e-10
9.52752e-09
-4.29774e-08
1.35748e-06
-8.47295e-08
1.33621e-06
-1.2485e-07
1.31772e-06
-1.62979e-07
1.30167e-06
-1.98799e-07
1.28774e-06
-2.32037e-07
1.27564e-06
-2.62466e-07
1.26505e-06
-2.89904e-07
1.25567e-06
-3.14218e-07
1.24722e-06
-3.35329e-07
1.23943e-06
-3.53209e-07
1.23204e-06
-3.67884e-07
1.22482e-06
-3.79436e-07
1.21756e-06
-3.87993e-07
1.21008e-06
-3.9373e-07
1.20221e-06
-3.96859e-07
1.19384e-06
-3.97618e-07
1.18487e-06
-3.96264e-07
1.17523e-06
-3.93058e-07
1.16488e-06
-3.8826e-07
1.15381e-06
-3.82115e-07
1.14202e-06
-3.74849e-07
1.12955e-06
-3.66663e-07
1.11644e-06
-3.5773e-07
1.10272e-06
-3.48198e-07
1.08846e-06
-3.38186e-07
1.07373e-06
-3.27792e-07
1.05857e-06
-3.17092e-07
1.04306e-06
-3.06146e-07
1.02725e-06
-2.95001e-07
1.01121e-06
-2.83694e-07
9.94981e-07
-2.72253e-07
9.78631e-07
-2.60706e-07
9.62207e-07
-2.49075e-07
9.45758e-07
-2.37385e-07
9.2933e-07
-2.25662e-07
9.12966e-07
-2.13934e-07
8.96705e-07
-2.02212e-07
8.80565e-07
-1.45406e-08
3.25215e-07
7.15029e-10
9.15658e-09
-3.73002e-08
1.39478e-06
-7.3542e-08
1.37246e-06
-1.0838e-07
1.35255e-06
-1.4151e-07
1.3348e-06
-1.72671e-07
1.31891e-06
-2.01643e-07
1.30461e-06
-2.28248e-07
1.29165e-06
-2.52352e-07
1.27977e-06
-2.73861e-07
1.26873e-06
-2.92727e-07
1.2583e-06
-3.08944e-07
1.24826e-06
-3.22549e-07
1.23843e-06
-3.33616e-07
1.22863e-06
-3.42256e-07
1.21872e-06
-3.4861e-07
1.20857e-06
-3.52843e-07
1.19807e-06
-3.55136e-07
1.18716e-06
-3.55682e-07
1.17577e-06
-3.54677e-07
1.16387e-06
-3.52311e-07
1.15144e-06
-3.48767e-07
1.13848e-06
-3.44211e-07
1.125e-06
-3.38796e-07
1.11102e-06
-3.32652e-07
1.09658e-06
-3.25891e-07
1.0817e-06
-3.18605e-07
1.06644e-06
-3.10869e-07
1.05084e-06
-3.0274e-07
1.03493e-06
-2.94261e-07
1.01877e-06
-2.85463e-07
1.00241e-06
-2.7637e-07
9.85888e-07
-2.66997e-07
9.69258e-07
-2.57357e-07
9.52567e-07
-2.47464e-07
9.35865e-07
-2.37334e-07
9.192e-07
-2.26988e-07
9.0262e-07
-2.16453e-07
8.8617e-07
-2.05738e-07
8.69875e-07
-1.38693e-08
3.10653e-07
6.84549e-10
8.81627e-09
-3.24824e-08
1.42726e-06
-6.40541e-08
1.40403e-06
-9.44248e-08
1.38292e-06
-1.23342e-07
1.36371e-06
-1.50593e-07
1.34616e-06
-1.75999e-07
1.33002e-06
-1.99421e-07
1.31508e-06
-2.20759e-07
1.30111e-06
-2.39947e-07
1.28792e-06
-2.56956e-07
1.2753e-06
-2.71791e-07
1.26309e-06
-2.8449e-07
1.25112e-06
-2.95121e-07
1.23926e-06
-3.03776e-07
1.22737e-06
-3.10569e-07
1.21536e-06
-3.15633e-07
1.20314e-06
-3.19109e-07
1.19064e-06
-3.21145e-07
1.17781e-06
-3.21892e-07
1.16462e-06
-3.21497e-07
1.15105e-06
-3.20098e-07
1.13708e-06
-3.17823e-07
1.12272e-06
-3.14788e-07
1.10799e-06
-3.11092e-07
1.09288e-06
-3.06821e-07
1.07743e-06
-3.02041e-07
1.06166e-06
-2.96804e-07
1.0456e-06
-2.91145e-07
1.02927e-06
-2.85085e-07
1.01271e-06
-2.78632e-07
9.95956e-07
-2.71782e-07
9.79038e-07
-2.64522e-07
9.61998e-07
-2.56835e-07
9.4488e-07
-2.48703e-07
9.27733e-07
-2.40113e-07
9.1061e-07
-2.31066e-07
8.93573e-07
-2.21585e-07
8.76689e-07
-2.11692e-07
8.60012e-07
-1.32143e-08
2.9555e-07
6.5429e-10
8.51519e-09
-2.83898e-08
1.45565e-06
-5.59972e-08
1.43163e-06
-8.25813e-08
1.40951e-06
-1.07935e-07
1.38907e-06
-1.31882e-07
1.3701e-06
-1.54283e-07
1.35242e-06
-1.75028e-07
1.33582e-06
-1.9404e-07
1.32012e-06
-2.11274e-07
1.30515e-06
-2.26712e-07
1.29074e-06
-2.40366e-07
1.27675e-06
-2.52274e-07
1.26303e-06
-2.62494e-07
1.24948e-06
-2.71105e-07
1.23598e-06
-2.78203e-07
1.22246e-06
-2.83894e-07
1.20883e-06
-2.88293e-07
1.19504e-06
-2.91521e-07
1.18104e-06
-2.93696e-07
1.16679e-06
-2.94937e-07
1.15229e-06
-2.95354e-07
1.1375e-06
-2.95051e-07
1.12242e-06
-2.94121e-07
1.10706e-06
-2.92643e-07
1.0914e-06
-2.90685e-07
1.07547e-06
-2.88296e-07
1.05927e-06
-2.85512e-07
1.04281e-06
-2.82349e-07
1.02611e-06
-2.78808e-07
1.00917e-06
-2.74869e-07
9.92017e-07
-2.70494e-07
9.74663e-07
-2.65626e-07
9.5713e-07
-2.60192e-07
9.39446e-07
-2.54102e-07
9.21643e-07
-2.47257e-07
9.03766e-07
-2.39558e-07
8.85873e-07
-2.30912e-07
8.68044e-07
-2.21216e-07
8.50352e-07
-1.25848e-08
2.78668e-07
6.23124e-10
8.26446e-09
-2.49019e-08
1.48055e-06
-4.91318e-08
1.45586e-06
-7.24915e-08
1.43287e-06
-9.48114e-08
1.41139e-06
-1.1595e-07
1.39124e-06
-1.35795e-07
1.37226e-06
-1.5426e-07
1.35429e-06
-1.71288e-07
1.33715e-06
-1.86846e-07
1.32071e-06
-2.00927e-07
1.30482e-06
-2.13545e-07
1.28937e-06
-2.24737e-07
1.27422e-06
-2.34554e-07
1.2593e-06
-2.43065e-07
1.24449e-06
-2.50352e-07
1.22974e-06
-2.56504e-07
1.21498e-06
-2.61619e-07
1.20015e-06
-2.65797e-07
1.18521e-06
-2.6914e-07
1.17014e-06
-2.71748e-07
1.15489e-06
-2.73718e-07
1.13947e-06
-2.75139e-07
1.12384e-06
-2.76093e-07
1.10801e-06
-2.76655e-07
1.09197e-06
-2.76884e-07
1.0757e-06
-2.7683e-07
1.05922e-06
-2.76525e-07
1.04251e-06
-2.75983e-07
1.02557e-06
-2.75198e-07
1.00839e-06
-2.74141e-07
9.9096e-07
-2.72752e-07
9.73273e-07
-2.70938e-07
9.55316e-07
-2.68567e-07
9.37075e-07
-2.65463e-07
9.18539e-07
-2.61398e-07
8.997e-07
-2.56087e-07
8.80562e-07
-2.49189e-07
8.61146e-07
-2.40252e-07
8.41465e-07
-1.19823e-08
2.5922e-07
5.90217e-10
8.08272e-09
-2.19139e-08
1.50246e-06
-4.32501e-08
1.4772e-06
-6.38468e-08
1.45346e-06
-8.3566e-08
1.43111e-06
-1.02294e-07
1.40997e-06
-1.1994e-07
1.38991e-06
-1.3644e-07
1.37079e-06
-1.51748e-07
1.35246e-06
-1.65843e-07
1.33481e-06
-1.78724e-07
1.3177e-06
-1.90407e-07
1.30105e-06
-2.00927e-07
1.28474e-06
-2.1033e-07
1.2687e-06
-2.18679e-07
1.25284e-06
-2.26044e-07
1.23711e-06
-2.32505e-07
1.22144e-06
-2.38147e-07
1.20579e-06
-2.43058e-07
1.19013e-06
-2.47331e-07
1.17441e-06
-2.51055e-07
1.15862e-06
-2.54322e-07
1.14273e-06
-2.57219e-07
1.12674e-06
-2.59828e-07
1.11062e-06
-2.62228e-07
1.09437e-06
-2.64491e-07
1.07797e-06
-2.66678e-07
1.06141e-06
-2.68843e-07
1.04467e-06
-2.71026e-07
1.02775e-06
-2.7325e-07
1.01061e-06
-2.75518e-07
9.93227e-07
-2.77804e-07
9.75559e-07
-2.80043e-07
9.57555e-07
-2.82122e-07
9.39154e-07
-2.8386e-07
9.20276e-07
-2.84985e-07
9.00825e-07
-2.85105e-07
8.80683e-07
-2.83673e-07
8.59713e-07
-2.79849e-07
8.37714e-07
-1.13998e-08
2.3725e-07
5.57091e-10
7.99456e-09
-1.93365e-08
1.5218e-06
-3.81756e-08
1.49604e-06
-5.63857e-08
1.47168e-06
-7.38551e-08
1.44857e-06
-9.04925e-08
1.42661e-06
-1.06227e-07
1.40565e-06
-1.21006e-07
1.38557e-06
-1.34799e-07
1.36625e-06
-1.47591e-07
1.3476e-06
-1.59384e-07
1.3295e-06
-1.70198e-07
1.31186e-06
-1.80063e-07
1.29461e-06
-1.89025e-07
1.27766e-06
-1.97138e-07
1.26096e-06
-2.04466e-07
1.24444e-06
-2.11081e-07
1.22806e-06
-2.1706e-07
1.21177e-06
-2.22485e-07
1.19555e-06
-2.2744e-07
1.17936e-06
-2.32012e-07
1.16319e-06
-2.36291e-07
1.14701e-06
-2.40366e-07
1.13081e-06
-2.44327e-07
1.11458e-06
-2.48266e-07
1.0983e-06
-2.52273e-07
1.08197e-06
-2.5644e-07
1.06557e-06
-2.60859e-07
1.04909e-06
-2.65623e-07
1.03251e-06
-2.70823e-07
1.01581e-06
-2.76551e-07
9.98955e-07
-2.82892e-07
9.819e-07
-2.89925e-07
9.64588e-07
-2.97712e-07
9.46941e-07
-3.06286e-07
9.2885e-07
-3.15631e-07
9.10171e-07
-3.25653e-07
8.90705e-07
-3.36126e-07
8.70186e-07
-3.4647e-07
8.48183e-07
-1.08361e-08
2.16218e-07
5.30131e-10
8.01291e-09
-1.70948e-08
1.5389e-06
-3.37604e-08
1.51271e-06
-4.98901e-08
1.4878e-06
-6.53937e-08
1.46408e-06
-8.01977e-08
1.44141e-06
-9.4246e-08
1.41969e-06
-1.07499e-07
1.39882e-06
-1.19933e-07
1.37869e-06
-1.31539e-07
1.3592e-06
-1.42323e-07
1.34028e-06
-1.52303e-07
1.32184e-06
-1.61511e-07
1.30382e-06
-1.69986e-07
1.28614e-06
-1.77778e-07
1.26875e-06
-1.84946e-07
1.2516e-06
-1.91554e-07
1.23466e-06
-1.97673e-07
1.21789e-06
-2.03377e-07
1.20125e-06
-2.08747e-07
1.18473e-06
-2.13866e-07
1.16831e-06
-2.1882e-07
1.15197e-06
-2.23702e-07
1.13569e-06
-2.28606e-07
1.11948e-06
-2.33635e-07
1.10333e-06
-2.38896e-07
1.08723e-06
-2.44506e-07
1.07118e-06
-2.50596e-07
1.05518e-06
-2.57309e-07
1.03923e-06
-2.64811e-07
1.02331e-06
-2.73293e-07
1.00744e-06
-2.82982e-07
9.91589e-07
-2.9415e-07
9.75756e-07
-3.07127e-07
9.59918e-07
-3.22322e-07
9.44045e-07
-3.40246e-07
9.28094e-07
-3.61542e-07
9.12002e-07
-3.87033e-07
8.95677e-07
-4.17507e-07
8.78886e-07
-1.03372e-08
2.02806e-07
5.18584e-10
8.10024e-09
-1.51272e-08
1.55402e-06
-2.98832e-08
1.52746e-06
-4.41812e-08
1.5021e-06
-5.79481e-08
1.47785e-06
-7.11251e-08
1.45459e-06
-8.36673e-08
1.43224e-06
-9.55441e-08
1.4107e-06
-1.06738e-07
1.38988e-06
-1.17244e-07
1.36971e-06
-1.2707e-07
1.35011e-06
-1.36234e-07
1.33101e-06
-1.44764e-07
1.31234e-06
-1.52696e-07
1.29407e-06
-1.60075e-07
1.27613e-06
-1.66954e-07
1.25848e-06
-1.7339e-07
1.2411e-06
-1.79445e-07
1.22395e-06
-1.85188e-07
1.207e-06
-1.90691e-07
1.19024e-06
-1.9603e-07
1.17365e-06
-2.01287e-07
1.15722e-06
-2.06546e-07
1.14095e-06
-2.119e-07
1.12484e-06
-2.17447e-07
1.10888e-06
-2.23295e-07
1.09308e-06
-2.29563e-07
1.07745e-06
-2.36387e-07
1.06201e-06
-2.43922e-07
1.04676e-06
-2.5235e-07
1.03174e-06
-2.61891e-07
1.01698e-06
-2.72811e-07
1.00251e-06
-2.85441e-07
9.88386e-07
-3.00199e-07
9.74676e-07
-3.17621e-07
9.61467e-07
-3.38405e-07
9.48877e-07
-3.63469e-07
9.37066e-07
-3.94042e-07
9.2625e-07
-4.31338e-07
9.16561e-07
-1.00383e-08
1.94324e-07
5.17444e-10
8.14033e-09
-1.33837e-08
1.56741e-06
-2.64455e-08
1.54052e-06
-3.91144e-08
1.51477e-06
-5.13306e-08
1.49006e-06
-6.30464e-08
1.4663e-06
-7.4226e-08
1.44342e-06
-8.48449e-08
1.42132e-06
-9.48903e-08
1.39993e-06
-1.0436e-07
1.37918e-06
-1.13261e-07
1.35901e-06
-1.2161e-07
1.33936e-06
-1.29432e-07
1.32017e-06
-1.36761e-07
1.3014e-06
-1.43634e-07
1.283e-06
-1.50096e-07
1.26495e-06
-1.56198e-07
1.2472e-06
-1.61995e-07
1.22974e-06
-1.67543e-07
1.21255e-06
-1.72906e-07
1.1956e-06
-1.78147e-07
1.17889e-06
-1.83337e-07
1.16241e-06
-1.88545e-07
1.14616e-06
-1.93848e-07
1.13014e-06
-1.99326e-07
1.11436e-06
-2.05063e-07
1.09882e-06
-2.11151e-07
1.08354e-06
-2.17692e-07
1.06855e-06
-2.24795e-07
1.05387e-06
-2.32584e-07
1.03953e-06
-2.412e-07
1.02559e-06
-2.50803e-07
1.01211e-06
-2.61578e-07
9.99161e-07
-2.73738e-07
9.86836e-07
-2.87529e-07
9.75258e-07
-3.03234e-07
9.64582e-07
-3.2117e-07
9.55002e-07
-3.41686e-07
9.46766e-07
-3.64581e-07
9.39928e-07
-1.00438e-08
1.82536e-07
5.06354e-10
8.04258e-09
-1.18247e-08
1.57923e-06
-2.33694e-08
1.55207e-06
-3.45752e-08
1.52598e-06
-4.53926e-08
1.50088e-06
-5.57824e-08
1.47669e-06
-6.57149e-08
1.45335e-06
-7.51705e-08
1.43077e-06
-8.41388e-08
1.40889e-06
-9.26183e-08
1.38766e-06
-1.00616e-07
1.36701e-06
-1.08146e-07
1.34689e-06
-1.1523e-07
1.32725e-06
-1.21896e-07
1.30806e-06
-1.28175e-07
1.28928e-06
-1.34107e-07
1.27088e-06
-1.39732e-07
1.25283e-06
-1.45095e-07
1.2351e-06
-1.50244e-07
1.21769e-06
-1.55227e-07
1.20058e-06
-1.60097e-07
1.18376e-06
-1.64904e-07
1.16722e-06
-1.69702e-07
1.15096e-06
-1.74542e-07
1.13498e-06
-1.79476e-07
1.11929e-06
-1.84555e-07
1.1039e-06
-1.89828e-07
1.08881e-06
-1.95339e-07
1.07406e-06
-2.01129e-07
1.05966e-06
-2.07232e-07
1.04563e-06
-2.13671e-07
1.03203e-06
-2.20453e-07
1.01889e-06
-2.27562e-07
1.00627e-06
-2.34949e-07
9.94222e-07
-2.42511e-07
9.82821e-07
-2.50073e-07
9.72144e-07
-2.57348e-07
9.62277e-07
-2.63892e-07
9.5331e-07
-2.68509e-07
9.44985e-07
-1.02678e-08
1.69515e-07
4.7879e-10
7.87216e-09
-1.04192e-08
1.58965e-06
-2.05941e-08
1.56224e-06
-3.04749e-08
1.53586e-06
-4.00198e-08
1.51042e-06
-4.91953e-08
1.48587e-06
-5.79765e-08
1.46213e-06
-6.63463e-08
1.43914e-06
-7.42958e-08
1.41684e-06
-8.18234e-08
1.39519e-06
-8.89343e-08
1.37412e-06
-9.56401e-08
1.35359e-06
-1.01958e-07
1.33357e-06
-1.07911e-07
1.31401e-06
-1.13525e-07
1.29489e-06
-1.1883e-07
1.27618e-06
-1.2386e-07
1.25786e-06
-1.2865e-07
1.23989e-06
-1.33236e-07
1.22228e-06
-1.37656e-07
1.205e-06
-1.41947e-07
1.18805e-06
-1.46146e-07
1.17142e-06
-1.50285e-07
1.1551e-06
-1.54395e-07
1.13909e-06
-1.58503e-07
1.1234e-06
-1.62627e-07
1.10802e-06
-1.66777e-07
1.09296e-06
-1.70955e-07
1.07824e-06
-1.75144e-07
1.06384e-06
-1.79311e-07
1.0498e-06
-1.834e-07
1.03612e-06
-1.87323e-07
1.02282e-06
-1.90953e-07
1.0099e-06
-1.94116e-07
9.97385e-07
-1.96573e-07
9.85278e-07
-1.9801e-07
9.73581e-07
-1.98014e-07
9.62282e-07
-1.96057e-07
9.51352e-07
-1.91085e-07
9.40358e-07
-1.05574e-08
1.60623e-07
4.43719e-10
7.75757e-09
-9.14383e-09
1.59879e-06
-1.80739e-08
1.57117e-06
-2.67469e-08
1.54453e-06
-3.51264e-08
1.5188e-06
-4.31831e-08
1.49393e-06
-5.08946e-08
1.46984e-06
-5.82456e-08
1.44649e-06
-6.52273e-08
1.42383e-06
-7.1837e-08
1.4018e-06
-7.80778e-08
1.38036e-06
-8.39582e-08
1.35947e-06
-8.94911e-08
1.3391e-06
-9.46939e-08
1.31922e-06
-9.95871e-08
1.29979e-06
-1.04194e-07
1.28079e-06
-1.08541e-07
1.2622e-06
-1.12654e-07
1.24401e-06
-1.16562e-07
1.22619e-06
-1.20292e-07
1.20873e-06
-1.23871e-07
1.19163e-06
-1.27322e-07
1.17487e-06
-1.30667e-07
1.15844e-06
-1.33923e-07
1.14235e-06
-1.37099e-07
1.12657e-06
-1.40197e-07
1.11112e-06
-1.43208e-07
1.09598e-06
-1.4611e-07
1.08114e-06
-1.48867e-07
1.0666e-06
-1.51421e-07
1.05236e-06
-1.53695e-07
1.0384e-06
-1.55582e-07
1.0247e-06
-1.56947e-07
1.01127e-06
-1.57621e-07
9.9806e-07
-1.574e-07
9.85057e-07
-1.56039e-07
9.72219e-07
-1.53257e-07
9.595e-07
-1.4874e-07
9.46836e-07
-1.41894e-07
9.33767e-07
-1.0844e-08
1.57207e-07
4.07888e-10
7.76386e-09
-7.98133e-09
1.60678e-06
-1.57751e-08
1.57897e-06
-2.33424e-08
1.5521e-06
-3.06505e-08
1.52611e-06
-3.76725e-08
1.50095e-06
-4.43876e-08
1.47656e-06
-5.07809e-08
1.45288e-06
-5.68427e-08
1.42989e-06
-6.2569e-08
1.40752e-06
-6.79602e-08
1.38575e-06
-7.30212e-08
1.36453e-06
-7.7761e-08
1.34384e-06
-8.21919e-08
1.32365e-06
-8.6329e-08
1.30392e-06
-9.019e-08
1.28465e-06
-9.37944e-08
1.26581e-06
-9.71627e-08
1.24738e-06
-1.00316e-07
1.22934e-06
-1.03276e-07
1.21169e-06
-1.06063e-07
1.19442e-06
-1.08696e-07
1.1775e-06
-1.11189e-07
1.16094e-06
-1.13556e-07
1.14471e-06
-1.15803e-07
1.12882e-06
-1.17929e-07
1.11325e-06
-1.19927e-07
1.09797e-06
-1.21777e-07
1.08299e-06
-1.2345e-07
1.06827e-06
-1.249e-07
1.05381e-06
-1.26069e-07
1.03956e-06
-1.26879e-07
1.02551e-06
-1.27237e-07
1.01162e-06
-1.27034e-07
9.97856e-07
-1.26143e-07
9.84166e-07
-1.2443e-07
9.70506e-07
-1.21755e-07
9.56825e-07
-1.17984e-07
9.43064e-07
-1.1283e-07
9.28806e-07
-1.11275e-08
1.58443e-07
3.72455e-10
7.89767e-09
-6.91952e-09
1.6137e-06
-1.3674e-08
1.58572e-06
-2.02275e-08
1.55865e-06
-2.65494e-08
1.53243e-06
-3.26142e-08
1.50701e-06
-3.84016e-08
1.48234e-06
-4.3896e-08
1.45838e-06
-4.90868e-08
1.43508e-06
-5.39676e-08
1.4124e-06
-5.85361e-08
1.39032e-06
-6.27936e-08
1.36879e-06
-6.67449e-08
1.34779e-06
-7.03976e-08
1.3273e-06
-7.37619e-08
1.30729e-06
-7.68504e-08
1.28774e-06
-7.96774e-08
1.26863e-06
-8.22586e-08
1.24996e-06
-8.4611e-08
1.23169e-06
-8.67522e-08
1.21383e-06
-8.87002e-08
1.19636e-06
-9.04725e-08
1.17927e-06
-9.20861e-08
1.16255e-06
-9.35568e-08
1.14619e-06
-9.48978e-08
1.13016e-06
-9.61198e-08
1.11447e-06
-9.72291e-08
1.09908e-06
-9.82275e-08
1.08399e-06
-9.911e-08
1.06916e-06
-9.98646e-08
1.05456e-06
-1.00471e-07
1.04017e-06
-1.00899e-07
1.02594e-06
-1.01111e-07
1.01184e-06
-1.01058e-07
9.97803e-07
-1.00687e-07
9.83794e-07
-9.99376e-08
9.69757e-07
-9.87528e-08
9.5564e-07
-9.70813e-08
9.41393e-07
-9.47813e-08
9.26651e-07
-1.14274e-08
1.63568e-07
3.36933e-10
8.14755e-09
-5.95014e-09
1.61965e-06
-1.17548e-08
1.59153e-06
-1.73798e-08
1.56428e-06
-2.27956e-08
1.53785e-06
-2.79772e-08
1.51219e-06
-3.2904e-08
1.48727e-06
-3.75595e-08
1.46303e-06
-4.19313e-08
1.43945e-06
-4.60106e-08
1.41648e-06
-4.97918e-08
1.3941e-06
-5.32727e-08
1.37227e-06
-5.64538e-08
1.35097e-06
-5.93382e-08
1.33018e-06
-6.19312e-08
1.30988e-06
-6.42405e-08
1.29005e-06
-6.62757e-08
1.27067e-06
-6.80481e-08
1.25173e-06
-6.95711e-08
1.23322e-06
-7.08599e-08
1.21512e-06
-7.19314e-08
1.19744e-06
-7.28047e-08
1.18015e-06
-7.35008e-08
1.16325e-06
-7.40428e-08
1.14673e-06
-7.4456e-08
1.13058e-06
-7.47681e-08
1.11478e-06
-7.50084e-08
1.09932e-06
-7.52079e-08
1.08419e-06
-7.53984e-08
1.06935e-06
-7.56116e-08
1.05478e-06
-7.58771e-08
1.04044e-06
-7.62214e-08
1.02629e-06
-7.66649e-08
1.01228e-06
-7.72201e-08
9.98358e-07
-7.78894e-08
9.84464e-07
-7.86639e-08
9.70532e-07
-7.95235e-08
9.565e-07
-8.04385e-08
9.42308e-07
-8.1318e-08
9.27637e-07
-1.17593e-08
1.72557e-07
3.01514e-10
8.50214e-09
-5.06789e-09
1.62471e-06
-1.00074e-08
1.59647e-06
-1.47853e-08
1.56905e-06
-1.93725e-08
1.54244e-06
-2.3744e-08
1.51657e-06
-2.78784e-08
1.4914e-06
-3.17578e-08
1.46691e-06
-3.53679e-08
1.44306e-06
-3.86972e-08
1.41981e-06
-4.17368e-08
1.39714e-06
-4.44807e-08
1.37502e-06
-4.6925e-08
1.35342e-06
-4.9068e-08
1.33233e-06
-5.091e-08
1.31172e-06
-5.24532e-08
1.29159e-06
-5.37021e-08
1.27192e-06
-5.46628e-08
1.25269e-06
-5.53442e-08
1.2339e-06
-5.57576e-08
1.21554e-06
-5.59176e-08
1.1976e-06
-5.58427e-08
1.18007e-06
-5.55562e-08
1.16296e-06
-5.50867e-08
1.14626e-06
-5.447e-08
1.12996e-06
-5.37495e-08
1.11406e-06
-5.2978e-08
1.09855e-06
-5.22177e-08
1.08343e-06
-5.15417e-08
1.06867e-06
-5.10328e-08
1.05427e-06
-5.07827e-08
1.04019e-06
-5.08885e-08
1.02639e-06
-5.14484e-08
1.01284e-06
-5.2554e-08
9.99464e-07
-5.42819e-08
9.86191e-07
-5.66824e-08
9.72932e-07
-5.97695e-08
9.59587e-07
-6.35129e-08
9.46051e-07
-6.78222e-08
9.32019e-07
-1.21241e-08
1.86332e-07
2.68104e-10
8.95052e-09
-4.2694e-09
1.62898e-06
-8.42554e-09
1.60062e-06
-1.24357e-08
1.57307e-06
-1.62711e-08
1.54627e-06
-1.9906e-08
1.5202e-06
-2.33185e-08
1.49482e-06
-2.64891e-08
1.47009e-06
-2.94014e-08
1.44597e-06
-3.20411e-08
1.42245e-06
-3.43962e-08
1.39949e-06
-3.64566e-08
1.37708e-06
-3.8214e-08
1.35518e-06
-3.96616e-08
1.33378e-06
-4.0794e-08
1.31286e-06
-4.16075e-08
1.29241e-06
-4.20998e-08
1.27241e-06
-4.22703e-08
1.25286e-06
-4.21205e-08
1.23375e-06
-4.16547e-08
1.21507e-06
-4.08804e-08
1.19682e-06
-3.98097e-08
1.179e-06
-3.84607e-08
1.16161e-06
-3.68588e-08
1.14466e-06
-3.50398e-08
1.12814e-06
-3.30519e-08
1.11207e-06