/*--------------------------------*- C++ -*----------------------------------*\
  =========                 |
  \\      /  F ield         | OpenFOAM: The Open Source CFD Toolbox
   \\    /   O peration     | Website:  https://openfoam.org
    \\  /    A nd           | Version:  7
     \\/     M anipulation  |
\*---------------------------------------------------------------------------*/
FoamFile
{
    version     2.0;
    format      ascii;
    class       surfaceScalarField;
    location    "15000";
    object      phib;
}
// * * * * * * * * * * * * * * * * * * * * * * * * * * * * * * * * * * * * * //

dimensions      [0 3 -1 0 0 0 0];

internalField   nonuniform List<scalar> 
6280
(
-2.98599e-21
-1.71013e-16
-5.95755e-21
-1.68e-16
-8.95204e-21
-1.6504e-16
-1.20073e-20
-1.62133e-16
-1.51638e-20
-1.59277e-16
-1.84674e-20
-1.56471e-16
-2.19722e-20
-1.53714e-16
-2.57449e-20
-1.51006e-16
-2.98709e-20
-1.48345e-16
-3.44633e-20
-1.45732e-16
-3.96772e-20
-1.43164e-16
-4.57318e-20
-1.40641e-16
-5.29483e-20
-1.38162e-16
-6.1813e-20
-1.35726e-16
-7.30887e-20
-1.33333e-16
-8.80144e-20
-1.3098e-16
-1.08671e-19
-1.28667e-16
-1.38668e-19
-1.2639e-16
-1.84442e-19
-1.24148e-16
-1.42728e-17
-1.21932e-16
-1.16441e-06
-1.19733e-16
-2.48647e-05
-1.15133e-16
-2.60438e-05
-1.02493e-16
-2.65465e-05
-9.12779e-17
-2.68748e-05
-8.10122e-17
-2.7119e-05
-7.15027e-17
-2.73119e-05
-6.26374e-17
-2.74696e-05
-5.43404e-17
-2.76018e-05
-4.65549e-17
-2.77146e-05
-3.92368e-17
-2.78123e-05
-3.23499e-17
-2.78977e-05
-2.5864e-17
-2.79733e-05
-1.97534e-17
-2.80405e-05
-2.31127e-17
-2.78754e-05
-2.25458e-07
-2.46476e-05
-3.28174e-06
-2.10847e-05
-3.6088e-06
-1.68128e-05
-4.31088e-06
-1.10175e-05
-5.82813e-06
-8.41069e-06
-2.63456e-06
-2.90423e-21
-1.7101e-16
-5.79049e-21
-1.67997e-16
-8.691e-21
-1.65038e-16
-1.16376e-20
-1.6213e-16
-1.46634e-20
-1.59274e-16
-1.78038e-20
-1.56467e-16
-2.10983e-20
-1.53711e-16
-2.45918e-20
-1.51002e-16
-2.83363e-20
-1.48342e-16
-3.23919e-20
-1.45727e-16
-3.6827e-20
-1.43159e-16
-4.17148e-20
-1.40636e-16
-4.71229e-20
-1.38156e-16
-5.30843e-20
-1.3572e-16
-5.95299e-20
-1.33326e-16
-6.61328e-20
-1.30974e-16
-7.19662e-20
-1.28661e-16
-7.47553e-20
-1.26388e-16
-6.92707e-20
-1.24153e-16
-4.38995e-20
-1.21958e-16
2.61777e-20
-1.19804e-16
6.83685e-20
-1.17701e-16
4.4672e-20
-1.15641e-16
2.72409e-20
-1.13611e-16
1.35036e-20
-1.11614e-16
1.66714e-21
-1.0965e-16
-9.4779e-21
-1.07719e-16
-2.09e-20
-1.05821e-16
-3.35715e-20
-1.03956e-16
-4.86948e-20
-1.02122e-16
-6.79736e-20
-1.00319e-16
-9.40146e-20
-9.8545e-17
-2.164e-19
-9.67977e-17
-3.69447e-08
-9.50743e-17
-1.13116e-05
-9.31892e-17
-1.54384e-05
-8.81609e-17
-1.93551e-05
-8.2903e-17
-2.38464e-05
-1.36917e-16
-2.80298e-05
-1.75653e-06
-3.47907e-05
-1.71188e-06
-2.75137e-21
-1.71007e-16
-5.47897e-21
-1.67994e-16
-8.20638e-21
-1.65035e-16
-1.09558e-20
-1.62127e-16
-1.37484e-20
-1.59271e-16
-1.66044e-20
-1.56465e-16
-1.95428e-20
-1.53708e-16
-2.25801e-20
-1.50999e-16
-2.57284e-20
-1.48338e-16
-2.89907e-20
-1.45724e-16
-3.23544e-20
-1.43156e-16
-3.57777e-20
-1.40632e-16
-3.91691e-20
-1.38153e-16
-4.23528e-20
-1.35717e-16
-4.50165e-20
-1.33324e-16
-4.66362e-20
-1.30972e-16
-4.63872e-20
-1.28661e-16
-4.30798e-20
-1.26391e-16
-3.52575e-20
-1.24161e-16
-2.1835e-20
-1.21971e-16
-4.22497e-21
-1.19822e-16
7.86767e-21
-1.17713e-16
9.6358e-21
-1.15642e-16
6.89351e-21
-1.13608e-16
2.23619e-21
-1.11609e-16
-3.18548e-21
-1.09644e-16
-8.82902e-21
-1.07713e-16
-1.43542e-20
-1.05816e-16
-1.93782e-20
-1.03951e-16
-2.32489e-20
-1.02118e-16
-2.47287e-20
-1.00318e-16
-2.14643e-20
-9.85482e-17
-9.04813e-21
-9.68102e-17
2.06376e-20
-9.5104e-17
3.20354e-20
-9.34315e-17
1.6843e-20
-9.17896e-17
2.92206e-21
-9.01745e-17
-2.03245e-09
-8.89555e-17
-2.25618e-06
-1.3952e-07
-3.78959e-05
7.16014e-07
-2.54562e-21
-1.71004e-16
-5.06123e-21
-1.67992e-16
-7.56065e-21
-1.65032e-16
-1.00556e-20
-1.62125e-16
-1.25553e-20
-1.59268e-16
-1.50656e-20
-1.56462e-16
-1.75879e-20
-1.53705e-16
-2.01169e-20
-1.50997e-16
-2.26377e-20
-1.48336e-16
-2.51213e-20
-1.45722e-16
-2.75184e-20
-1.43153e-16
-2.97507e-20
-1.4063e-16
-3.17007e-20
-1.38151e-16
-3.3199e-20
-1.35716e-16
-3.40154e-20
-1.33323e-16
-3.38573e-20
-1.30972e-16
-3.23941e-20
-1.28663e-16
-2.93281e-20
-1.26394e-16
-2.45485e-20
-1.24166e-16
-1.83879e-20
-1.21977e-16
-1.19214e-20
-1.19828e-16
-6.94583e-21
-1.17718e-16
-4.42914e-21
-1.15645e-16
-3.92925e-21
-1.13609e-16
-4.77657e-21
-1.11608e-16
-6.38498e-21
-1.09643e-16
-8.28235e-21
-1.07712e-16
-1.00669e-20
-1.05814e-16
-1.13555e-20
-1.0395e-16
-1.17497e-20
-1.02118e-16
-1.08392e-20
-1.00319e-16
-8.28596e-21
-9.85508e-17
-4.07566e-21
-9.68144e-17
8.87266e-22
-9.5109e-17
3.50338e-21
-9.34341e-17
2.90128e-21
-9.1789e-17
1.08486e-21
-9.01727e-17
-2.11316e-12
-8.92145e-17
-2.19961e-07
-1.07355e-07
-3.82798e-05
1.27229e-07
-2.30808e-21
-1.71002e-16
-4.5811e-21
-1.6799e-16
-6.82396e-21
-1.6503e-16
-9.0394e-21
-1.62123e-16
-1.12272e-20
-1.59266e-16
-1.3383e-20
-1.5646e-16
-1.54974e-20
-1.53703e-16
-1.75538e-20
-1.50995e-16
-1.95264e-20
-1.48334e-16
-2.1378e-20
-1.4572e-16
-2.30567e-20
-1.43152e-16
-2.44936e-20
-1.40629e-16
-2.56012e-20
-1.3815e-16
-2.62744e-20
-1.35715e-16
-2.63964e-20
-1.33323e-16
-2.58534e-20
-1.30973e-16
-2.4561e-20
-1.28664e-16
-2.25046e-20
-1.26396e-16
-1.979e-20
-1.24168e-16
-1.66849e-20
-1.2198e-16
-1.36136e-20
-1.19831e-16
-1.10451e-20
-1.1772e-16
-9.25933e-21
-1.15647e-16
-8.259e-21
-1.1361e-16
-7.88847e-21
-1.11609e-16
-7.93178e-21
-1.09643e-16
-8.1645e-21
-1.07711e-16
-8.37665e-21
-1.05814e-16
-8.3844e-21
-1.0395e-16
-8.04324e-21
-1.02118e-16
-7.27046e-21
-1.00319e-16
-6.08035e-21
-9.8552e-17
-4.62643e-21
-9.68158e-17
-3.22371e-21
-9.51104e-17
-2.27675e-21
-9.34351e-17
-1.93688e-21
-9.17893e-17
-2.06419e-21
-9.01726e-17
-6.8117e-12
-8.93381e-17
-1.53561e-07
-1.1e-07
-3.85637e-05
9.78735e-08
-2.05853e-21
-1.71e-16
-4.07902e-21
-1.67988e-16
-6.05947e-21
-1.65028e-16
-7.99614e-21
-1.62121e-16
-9.88271e-21
-1.59264e-16
-1.17094e-20
-1.56458e-16
-1.3462e-20
-1.53701e-16
-1.51211e-20
-1.50993e-16
-1.66608e-20
-1.48332e-16
-1.80483e-20
-1.45718e-16
-1.92434e-20
-1.43151e-16
-2.01991e-20
-1.40628e-16
-2.08634e-20
-1.38149e-16
-2.11835e-20
-1.35715e-16
-2.11126e-20
-1.33323e-16
-2.062e-20
-1.30973e-16
-1.97035e-20
-1.28665e-16
-1.84035e-20
-1.26397e-16
-1.68116e-20
-1.2417e-16
-1.50697e-20
-1.21982e-16
-1.33494e-20
-1.19833e-16
-1.18118e-20
-1.17722e-16
-1.05597e-20
-1.15648e-16
-9.61887e-21
-1.13611e-16
-8.95289e-21
-1.11609e-16
-8.48801e-21
-1.09643e-16
-8.13555e-21
-1.07712e-16
-7.80859e-21
-1.05814e-16
-7.43443e-21
-1.0395e-16
-6.96455e-21
-1.02119e-16
-6.38284e-21
-1.0032e-16
-5.71077e-21
-9.85526e-17
-5.00625e-21
-9.68165e-17
-4.35094e-21
-9.5111e-17
-3.8222e-21
-9.34356e-17
-3.4559e-21
-9.17897e-17
-3.267e-21
-9.01728e-17
-9.11854e-12
-8.94105e-17
-1.49716e-07
-1.15784e-07
-3.88408e-05
9.60597e-08
-1.81281e-21
-1.70998e-16
-3.58681e-21
-1.67986e-16
-5.3154e-21
-1.65026e-16
-6.99096e-21
-1.62119e-16
-8.60406e-21
-1.59263e-16
-1.01429e-20
-1.56457e-16
-1.15929e-20
-1.537e-16
-1.2936e-20
-1.50992e-16
-1.41512e-20
-1.48331e-16
-1.5214e-20
-1.45717e-16
-1.60976e-20
-1.4315e-16
-1.6774e-20
-1.40627e-16
-1.72165e-20
-1.38149e-16
-1.74029e-20
-1.35714e-16
-1.73193e-20
-1.33323e-16
-1.69653e-20
-1.30973e-16
-1.63582e-20
-1.28665e-16
-1.55359e-20
-1.26398e-16
-1.45564e-20
-1.24171e-16
-1.34925e-20
-1.21983e-16
-1.24213e-20
-1.19834e-16
-1.14104e-20
-1.17723e-16
-1.05058e-20
-1.15649e-16
-9.72599e-21
-1.13611e-16
-9.0654e-21
-1.1161e-16
-8.50132e-21
-1.09644e-16
-8.00248e-21
-1.07712e-16
-7.53675e-21
-1.05815e-16
-7.0773e-21
-1.03951e-16
-6.60709e-21
-1.02119e-16
-6.12117e-21
-1.0032e-16
-5.62671e-21
-9.85531e-17
-5.14021e-21
-9.6817e-17
-4.68204e-21
-9.51115e-17
-4.26929e-21
-9.3436e-17
-3.9096e-21
-9.17901e-17
-3.63287e-21
-9.01731e-17
-1.03065e-11
-8.94719e-17
-1.50591e-07
-1.22596e-07
-3.91172e-05
9.56648e-08
-1.58185e-21
-1.70997e-16
-3.12598e-21
-1.67984e-16
-4.62329e-21
-1.65025e-16
-6.06429e-21
-1.62117e-16
-7.43858e-21
-1.59261e-16
-8.73452e-21
-1.56455e-16
-9.93904e-21
-1.53699e-16
-1.10376e-20
-1.50991e-16
-1.20145e-20
-1.4833e-16
-1.28531e-20
-1.45717e-16
-1.35373e-20
-1.43149e-16
-1.40518e-20
-1.40627e-16
-1.43848e-20
-1.38149e-16
-1.45288e-20
-1.35714e-16
-1.44836e-20
-1.33323e-16
-1.42573e-20
-1.30974e-16
-1.38674e-20
-1.28666e-16
-1.33413e-20
-1.26399e-16
-1.2714e-20
-1.24172e-16
-1.20247e-20
-1.21984e-16
-1.13122e-20
-1.19835e-16
-1.06099e-20
-1.17723e-16
-9.94198e-21
-1.15649e-16
-9.32144e-21
-1.13612e-16
-8.75123e-21
-1.1161e-16
-8.22657e-21
-1.09644e-16
-7.73821e-21
-1.07713e-16
-7.27559e-21
-1.05815e-16
-6.82947e-21
-1.03951e-16
-6.39368e-21
-1.0212e-16
-5.96592e-21
-1.00321e-16
-5.54748e-21
-9.85536e-17
-5.14218e-21
-9.68174e-17
-4.75455e-21
-9.51119e-17
-4.38803e-21
-9.34364e-17
-4.04355e-21
-9.17904e-17
-3.75641e-21
-9.01734e-17
-1.13442e-11
-8.9566e-17
-1.51508e-07
-1.32016e-07
-3.93932e-05
9.54042e-08
-1.37199e-21
-1.70995e-16
-2.70869e-21
-1.67983e-16
-4.00002e-21
-1.65024e-16
-5.23607e-21
-1.62116e-16
-6.40676e-21
-1.5926e-16
-7.50162e-21
-1.56454e-16
-8.50985e-21
-1.53698e-16
-9.42035e-21
-1.5099e-16
-1.02221e-20
-1.48329e-16
-1.09045e-20
-1.45716e-16
-1.14583e-20
-1.43148e-16
-1.18761e-20
-1.40626e-16
-1.21534e-20
-1.38148e-16
-1.22898e-20
-1.35714e-16
-1.22891e-20
-1.33323e-16
-1.21605e-20
-1.30974e-16
-1.1918e-20
-1.28666e-16
-1.15801e-20
-1.26399e-16
-1.11683e-20
-1.24172e-16
-1.07054e-20
-1.21984e-16
-1.02131e-20
-1.19835e-16
-9.71027e-21
-1.17724e-16
-9.21132e-21
-1.1565e-16
-8.72578e-21
-1.13612e-16
-8.25857e-21
-1.11611e-16
-7.81087e-21
-1.09645e-16
-7.38141e-21
-1.07713e-16
-6.96774e-21
-1.05816e-16
-6.56731e-21
-1.03951e-16
-6.1782e-21
-1.0212e-16
-5.79948e-21
-1.00321e-16
-5.43113e-21
-9.85539e-17
-5.07379e-21
-9.68178e-17
-4.72823e-21
-9.51122e-17
-4.39491e-21
-9.34367e-17
-4.07364e-21
-9.17907e-17
-3.8053e-21
-9.01737e-17
-1.2632e-11
-8.96814e-17
-1.52069e-07
-1.43294e-07
-3.96685e-05
9.5203e-08
-1.18596e-21
-1.70994e-16
-2.33982e-21
-1.67982e-16
-3.45157e-21
-1.65022e-16
-4.51175e-21
-1.62115e-16
-5.51121e-21
-1.59259e-16
-6.44105e-21
-1.56453e-16
-7.29265e-21
-1.53697e-16
-8.05783e-21
-1.50989e-16
-8.72905e-21
-1.48329e-16
-9.29982e-21
-1.45715e-16
-9.76508e-21
-1.43148e-16
-1.01217e-20
-1.40626e-16
-1.03688e-20
-1.38148e-16
-1.05084e-20
-1.35714e-16
-1.05454e-20
-1.33323e-16
-1.04876e-20
-1.30974e-16
-1.03455e-20
-1.28666e-16
-1.01316e-20
-1.26399e-16
-9.85977e-21
-1.24172e-16
-9.54412e-21
-1.21985e-16
-9.19797e-21
-1.19836e-16
-8.83307e-21
-1.17724e-16
-8.45895e-21
-1.1565e-16
-8.08273e-21
-1.13613e-16
-7.70922e-21
-1.11611e-16
-7.34125e-21
-1.09645e-16
-6.98022e-21
-1.07713e-16
-6.62662e-21
-1.05816e-16
-6.28043e-21
-1.03952e-16
-5.94156e-21
-1.02121e-16
-5.60994e-21
-1.00322e-16
-5.28563e-21
-9.85542e-17
-4.96876e-21
-9.68181e-17
-4.65938e-21
-9.51125e-17
-4.35743e-21
-9.3437e-17
-4.06256e-21
-9.1791e-17
-3.82092e-21
-9.0174e-17
-1.41076e-11
-8.98116e-17
-1.52253e-07
-1.5629e-07
-3.99426e-05
9.50316e-08
-1.02394e-21
-1.70993e-16
-2.01927e-21
-1.67981e-16
-2.97669e-21
-1.65021e-16
-3.88762e-21
-1.62114e-16
-4.74408e-21
-1.59258e-16
-5.53873e-21
-1.56452e-16
-6.26482e-21
-1.53696e-16
-6.91637e-21
-1.50988e-16
-7.4883e-21
-1.48328e-16
-7.97667e-21
-1.45715e-16
-8.3789e-21
-1.43148e-16
-8.69399e-21
-1.40625e-16
-8.92271e-21
-1.38148e-16
-9.06771e-21
-1.35714e-16
-9.1335e-21
-1.33323e-16
-9.12632e-21
-1.30974e-16
-9.05389e-21
-1.28666e-16
-8.92493e-21
-1.26399e-16
-8.74872e-21
-1.24173e-16
-8.53455e-21
-1.21985e-16
-8.29121e-21
-1.19836e-16
-8.02655e-21
-1.17725e-16
-7.74726e-21
-1.15651e-16
-7.45872e-21
-1.13613e-16
-7.16505e-21
-1.11612e-16
-6.86922e-21
-1.09645e-16
-6.57334e-21
-1.07714e-16
-6.27879e-21
-1.05816e-16
-5.98653e-21
-1.03952e-16
-5.6972e-21
-1.02121e-16
-5.41126e-21
-1.00322e-16
-5.12907e-21
-9.85545e-17
-4.85089e-21
-9.68184e-17
-4.57691e-21
-9.51128e-17
-4.30725e-21
-9.34373e-17
-4.04193e-21
-9.17913e-17
-3.83331e-21
-9.01743e-17
-1.58811e-11
-8.99895e-17
-1.52041e-07
-1.72338e-07
-4.02153e-05
9.48973e-08
-8.84539e-22
-1.70992e-16
-1.74397e-21
-1.6798e-16
-2.56996e-21
-1.65021e-16
-3.35501e-21
-1.62113e-16
-4.09235e-21
-1.59258e-16
-4.77599e-21
-1.56452e-16
-5.4007e-21
-1.53696e-16
-5.96208e-21
-1.50988e-16
-6.45672e-21
-1.48328e-16
-6.88223e-21
-1.45714e-16
-7.23739e-21
-1.43147e-16
-7.52224e-21
-1.40625e-16
-7.7381e-21
-1.38148e-16
-7.88759e-21
-1.35714e-16
-7.97452e-21
-1.33323e-16
-8.00373e-21
-1.30974e-16
-7.98093e-21
-1.28666e-16
-7.91234e-21
-1.264e-16
-7.80445e-21
-1.24173e-16
-7.66366e-21
-1.21985e-16
-7.49607e-21
-1.19836e-16
-7.30721e-21
-1.17725e-16
-7.10192e-21
-1.15651e-16
-6.8843e-21
-1.13613e-16
-6.65767e-21
-1.11612e-16
-6.42466e-21
-1.09646e-16
-6.18733e-21
-1.07714e-16
-5.94723e-21
-1.05816e-16
-5.70551e-21
-1.03952e-16
-5.46308e-21
-1.02121e-16
-5.22061e-21
-1.00322e-16
-4.97866e-21
-9.85548e-17
-4.73766e-21
-9.68186e-17
-4.49799e-21
-9.5113e-17
-4.25999e-21
-9.34375e-17
-4.02398e-21
-9.17915e-17
-3.85042e-21
-9.01745e-17
-1.81481e-11
-9.02064e-17
-1.51455e-07
-1.91368e-07
-4.04863e-05
9.48089e-08
-7.65547e-22
-1.70991e-16
-1.50927e-21
-1.67979e-16
-2.22393e-21
-1.6502e-16
-2.90311e-21
-1.62113e-16
-3.54116e-21
-1.59257e-16
-4.13323e-21
-1.56451e-16
-4.67525e-21
-1.53695e-16
-5.164e-21
-1.50987e-16
-5.59711e-21
-1.48327e-16
-5.97315e-21
-1.45714e-16
-6.29163e-21
-1.43147e-16
-6.55305e-21
-1.40625e-16
-6.75881e-21
-1.38147e-16
-6.91124e-21
-1.35714e-16
-7.01344e-21
-1.33323e-16
-7.06917e-21
-1.30974e-16
-7.08269e-21
-1.28666e-16
-7.05857e-21
-1.264e-16
-7.00147e-21
-1.24173e-16
-6.916e-21
-1.21985e-16
-6.80654e-21
-1.19836e-16
-6.67711e-21
-1.17725e-16
-6.53128e-21
-1.15651e-16
-6.37217e-21
-1.13614e-16
-6.20237e-21
-1.11612e-16
-6.02404e-21
-1.09646e-16
-5.83889e-21
-1.07714e-16
-5.6483e-21
-1.05817e-16
-5.45332e-21
-1.03953e-16
-5.25479e-21
-1.02121e-16
-5.05337e-21
-1.00322e-16
-4.84959e-21
-9.8555e-17
-4.6439e-21
-9.68188e-17
-4.43672e-21
-9.51132e-17
-4.2285e-21
-9.34377e-17
-4.01967e-21
-9.17917e-17
-3.88054e-21
-9.01747e-17
-2.09863e-11
-9.04912e-17
-1.50541e-07
-2.14358e-07
-4.07553e-05
9.47996e-08
-6.64421e-22
-1.70991e-16
-1.30999e-21
-1.67978e-16
-1.93055e-21
-1.65019e-16
-2.52069e-21
-1.62112e-16
-3.07575e-21
-1.59256e-16
-3.59183e-21
-1.56451e-16
-4.06574e-21
-1.53694e-16
-4.49509e-21
-1.50987e-16
-4.87822e-21
-1.48327e-16
-5.21428e-21
-1.45714e-16
-5.50316e-21
-1.43147e-16
-5.7455e-21
-1.40625e-16
-5.94264e-21
-1.38147e-16
-6.09654e-21
-1.35713e-16
-6.20972e-21
-1.33322e-16
-6.28511e-21
-1.30974e-16
-6.32596e-21
-1.28666e-16
-6.3357e-21
-1.264e-16
-6.31779e-21
-1.24173e-16
-6.27564e-21
-1.21985e-16
-6.21251e-21
-1.19836e-16
-6.13137e-21
-1.17725e-16
-6.0349e-21
-1.15651e-16
-5.92546e-21
-1.13614e-16
-5.80503e-21
-1.11612e-16
-5.67525e-21
-1.09646e-16
-5.53745e-21
-1.07714e-16
-5.39264e-21
-1.05817e-16
-5.2416e-21
-1.03953e-16
-5.0849e-21
-1.02121e-16
-4.92292e-21
-1.00322e-16
-4.75596e-21
-9.85551e-17
-4.58425e-21
-9.6819e-17
-4.40803e-21
-9.51134e-17
-4.22758e-21
-9.34379e-17
-4.04328e-21
-9.17919e-17
-3.93863e-21
-9.01749e-17
-2.46954e-11
-9.08493e-17
-1.49359e-07
-2.4233e-07
-4.10223e-05
9.49432e-08
-5.78603e-22
-1.7099e-16
-1.14098e-21
-1.67978e-16
-1.68197e-21
-1.65019e-16
-2.19707e-21
-1.62112e-16
-2.68247e-21
-1.59256e-16
-3.13503e-21
-1.5645e-16
-3.55225e-21
-1.53694e-16
-3.93234e-21
-1.50986e-16
-4.27413e-21
-1.48326e-16
-4.5771e-21
-1.45713e-16
-4.84135e-21
-1.43146e-16
-5.06756e-21
-1.40624e-16
-5.25692e-21
-1.38147e-16
-5.41109e-21
-1.35713e-16
-5.53211e-21
-1.33322e-16
-5.6223e-21
-1.30974e-16
-5.68422e-21
-1.28666e-16
-5.72049e-21
-1.26399e-16
-5.7338e-21
-1.24173e-16
-5.72676e-21
-1.21985e-16
-5.70183e-21
-1.19836e-16
-5.66131e-21
-1.17725e-16
-5.60725e-21
-1.15651e-16
-5.54142e-21
-1.13614e-16
-5.46534e-21
-1.11612e-16
-5.38019e-21
-1.09646e-16
-5.2869e-21
-1.07714e-16
-5.1861e-21
-1.05817e-16
-5.07817e-21
-1.03953e-16
-4.96322e-21
-1.02122e-16
-4.8412e-21
-1.00323e-16
-4.71188e-21
-9.85553e-17
-4.57495e-21
-9.68191e-17
-4.4301e-21
-9.51136e-17
-4.27709e-21
-9.34381e-17
-4.11593e-21
-9.17921e-17
-4.04797e-21
-9.01751e-17
-2.97774e-11
-9.13523e-17
-1.47988e-07
-2.77746e-07
-4.12873e-05
9.5362e-08
-5.05702e-22
-1.7099e-16
-9.97466e-22
-1.67977e-16
-1.471e-21
-1.65018e-16
-1.92262e-21
-1.62111e-16
-2.34919e-21
-1.59255e-16
-2.74821e-21
-1.5645e-16
-3.11774e-21
-1.53694e-16
-3.4564e-21
-1.50986e-16
-3.76337e-21
-1.48326e-16
-4.03837e-21
-1.45713e-16
-4.28159e-21
-1.43146e-16
-4.4937e-21
-1.40624e-16
-4.67574e-21
-1.38147e-16
-4.82914e-21
-1.35713e-16
-4.95557e-21
-1.33322e-16
-5.05694e-21
-1.30974e-16
-5.13531e-21
-1.28666e-16
-5.1928e-21
-1.26399e-16
-5.23155e-21
-1.24173e-16
-5.25364e-21
-1.21985e-16
-5.26108e-21
-1.19836e-16
-5.25568e-21
-1.17725e-16
-5.23912e-21
-1.15651e-16
-5.2128e-21
-1.13614e-16
-5.17791e-21
-1.11612e-16
-5.13536e-21
-1.09646e-16
-5.08576e-21
-1.07714e-16
-5.02943e-21
-1.05817e-16
-4.96635e-21
-1.03953e-16
-4.89619e-21
-1.02122e-16
-4.81826e-21
-1.00323e-16
-4.73155e-21
-9.85554e-17
-4.63474e-21
-9.68192e-17
-4.52626e-21
-9.51137e-17
-4.40434e-21
-9.34382e-17
-4.26719e-21
-9.17922e-17
-4.24174e-21
-9.01752e-17
-3.71835e-11
-9.20581e-17
-1.46532e-07
-3.23001e-07
-4.15509e-05
9.62282e-08
-4.43573e-22
-1.70989e-16
-8.75174e-22
-1.67977e-16
-1.29128e-21
-1.65018e-16
-1.68886e-21
-1.62111e-16
-2.06539e-21
-1.59255e-16
-2.41888e-21
-1.56449e-16
-2.7478e-21
-1.53693e-16
-3.05111e-21
-1.50986e-16
-3.32825e-21
-1.48326e-16
-3.57907e-21
-1.45713e-16
-3.80384e-21
-1.43146e-16
-4.00319e-21
-1.40624e-16
-4.17805e-21
-1.38147e-16
-4.32967e-21
-1.35713e-16
-4.45946e-21
-1.33322e-16
-4.56905e-21
-1.30973e-16
-4.66016e-21
-1.28666e-16
-4.73459e-21
-1.26399e-16
-4.79414e-21
-1.24173e-16
-4.8406e-21
-1.21985e-16
-4.87568e-21
-1.19836e-16
-4.90099e-21
-1.17725e-16
-4.91799e-21
-1.15651e-16
-4.92799e-21
-1.13614e-16
-4.93208e-21
-1.11612e-16
-4.93112e-21
-1.09646e-16
-4.92568e-21
-1.07714e-16
-4.91603e-21
-1.05817e-16
-4.90205e-21
-1.03953e-16
-4.88322e-21
-1.02122e-16
-4.85847e-21
-1.00323e-16
-4.82616e-21
-9.85554e-17
-4.78393e-21
-9.68193e-17
-4.72864e-21
-9.51137e-17
-4.65622e-21
-9.34383e-17
-4.56162e-21
-9.17923e-17
-4.61287e-21
-9.01754e-17
-4.92908e-11
-9.31204e-17
-1.45034e-07
-3.86837e-07
-4.18138e-05
9.78332e-08
-3.90348e-22
-1.70989e-16
-7.70405e-22
-1.67977e-16
-1.13729e-21
-1.65018e-16
-1.48854e-21
-1.62111e-16
-1.82214e-21
-1.59255e-16
-2.13647e-21
-1.56449e-16
-2.43037e-21
-1.53693e-16
-2.70305e-21
-1.50986e-16
-2.95413e-21
-1.48326e-16
-3.18358e-21
-1.45713e-16
-3.39169e-21
-1.43146e-16
-3.57907e-21
-1.40624e-16
-3.74657e-21
-1.38147e-16
-3.89529e-21
-1.35713e-16
-4.02648e-21
-1.33322e-16
-4.14157e-21
-1.30973e-16
-4.24206e-21
-1.28666e-16
-4.32954e-21
-1.26399e-16
-4.40565e-21
-1.24173e-16
-4.472e-21
-1.21985e-16
-4.53019e-21
-1.19836e-16
-4.58178e-21
-1.17725e-16
-4.62826e-21
-1.15651e-16
-4.67102e-21
-1.13614e-16
-4.71131e-21
-1.11612e-16
-4.75028e-21
-1.09646e-16
-4.78885e-21
-1.07714e-16
-4.82773e-21
-1.05817e-16
-4.86735e-21
-1.03953e-16
-4.90775e-21
-1.02122e-16
-4.94846e-21
-1.00323e-16
-4.98834e-21
-9.85554e-17
-5.02538e-21
-9.68192e-17
-5.05633e-21
-9.51137e-17
-5.07637e-21
-9.34382e-17
-5.07852e-21
-9.17923e-17
-5.31186e-21
-9.01754e-17
-7.30923e-11
-9.50601e-17
-1.43434e-07
-4.89956e-07
-4.20772e-05
1.00588e-07
-3.44437e-22
-1.70988e-16
-6.80013e-22
-1.67976e-16
-1.00439e-21
-1.65017e-16
-1.31557e-21
-1.6211e-16
-1.61192e-21
-1.59254e-16
-1.89219e-21
-1.56449e-16
-2.15546e-21
-1.53693e-16
-2.40115e-21
-1.50985e-16
-2.62901e-21
-1.48325e-16
-2.83908e-21
-1.45712e-16
-3.0317e-21
-1.43145e-16
-3.20743e-21
-1.40624e-16
-3.36706e-21
-1.38146e-16
-3.51157e-21
-1.35713e-16
-3.64211e-21
-1.33322e-16
-3.75995e-21
-1.30973e-16
-3.86645e-21
-1.28666e-16
-3.96308e-21
-1.26399e-16
-4.05134e-21
-1.24172e-16
-4.13278e-21
-1.21985e-16
-4.209e-21
-1.19836e-16
-4.28159e-21
-1.17725e-16
-4.35215e-21
-1.15651e-16
-4.42231e-21
-1.13614e-16
-4.49368e-21
-1.11612e-16
-4.56791e-21
-1.09646e-16
-4.64663e-21
-1.07714e-16
-4.73149e-21
-1.05817e-16
-4.82412e-21
-1.03953e-16
-4.92615e-21
-1.02121e-16
-5.0391e-21
-1.00323e-16
-5.16438e-21
-9.85552e-17
-5.30308e-21
-9.68191e-17
-5.4558e-21
-9.51135e-17
-5.62228e-21
-9.34381e-17
-5.8008e-21
-9.17921e-17
-6.4253e-21
-9.01752e-17
-1.24893e-10
-9.88684e-17
-1.41746e-07
-6.62936e-07
-4.23426e-05
1.04816e-07
-3.04506e-22
-1.70988e-16
-6.01367e-22
-1.67976e-16
-8.88683e-22
-1.65017e-16
-1.16484e-21
-1.6211e-16
-1.42855e-21
-1.59254e-16
-1.67878e-21
-1.56449e-16
-1.91486e-21
-1.53693e-16
-2.13633e-21
-1.50985e-16
-2.34307e-21
-1.48325e-16
-2.53516e-21
-1.45712e-16
-2.71294e-21
-1.43145e-16
-2.87695e-21
-1.40624e-16
-3.02792e-21
-1.38146e-16
-3.16673e-21
-1.35713e-16
-3.29441e-21
-1.33322e-16
-3.41212e-21
-1.30973e-16
-3.52111e-21
-1.28666e-16
-3.62272e-21
-1.26399e-16
-3.71837e-21
-1.24172e-16
-3.80955e-21
-1.21985e-16
-3.8978e-21
-1.19836e-16
-3.98476e-21
-1.17725e-16
-4.07212e-21
-1.15651e-16
-4.16169e-21
-1.13614e-16
-4.2554e-21
-1.11612e-16
-4.35534e-21
-1.09646e-16
-4.46381e-21
-1.07714e-16
-4.58339e-21
-1.05817e-16
-4.71702e-21
-1.03953e-16
-4.86811e-21
-1.02121e-16
-5.04071e-21
-1.00322e-16
-5.23963e-21
-9.8555e-17
-5.4708e-21
-9.68189e-17
-5.74146e-21
-9.51133e-17
-6.06073e-21
-9.34378e-17
-6.44008e-21
-9.17917e-17
-7.69515e-21
-9.01747e-17
-2.29738e-10
-1.05849e-16
-1.40634e-07
-9.1629e-07
-4.26118e-05
1.10201e-07
-2.69457e-22
-1.70988e-16
-5.32303e-22
-1.67976e-16
-7.86991e-22
-1.65017e-16
-1.03222e-21
-1.6211e-16
-1.26694e-21
-1.59254e-16
-1.49035e-21
-1.56448e-16
-1.70191e-21
-1.53692e-16
-1.9013e-21
-1.50985e-16
-2.08845e-21
-1.48325e-16
-2.26348e-21
-1.45712e-16
-2.42671e-21
-1.43145e-16
-2.57864e-21
-1.40623e-16
-2.71994e-21
-1.38146e-16
-2.85139e-21
-1.35712e-16
-2.97392e-21
-1.33322e-16
-3.08855e-21
-1.30973e-16
-3.19642e-21
-1.28666e-16
-3.29872e-21
-1.26399e-16
-3.39674e-21
-1.24172e-16
-3.49185e-21
-1.21985e-16
-3.58548e-21
-1.19836e-16
-3.67916e-21
-1.17725e-16
-3.77453e-21
-1.15651e-16
-3.87334e-21
-1.13613e-16
-3.97751e-21
-1.11612e-16
-4.08916e-21
-1.09646e-16
-4.21071e-21
-1.07714e-16
-4.34493e-21
-1.05817e-16
-4.49507e-21
-1.03952e-16
-4.66502e-21
-1.02121e-16
-4.85953e-21
-1.00322e-16
-5.08451e-21
-9.85548e-17
-5.34739e-21
-9.68186e-17
-5.65772e-21
-9.5113e-17
-6.02793e-21
-9.34374e-17
-6.47439e-21
-9.17913e-17
-8.38832e-21
-9.01742e-17
-3.78996e-10
-1.15775e-16
-1.42133e-07
-1.18735e-06
-4.28874e-05
1.1526e-07
-2.38401e-22
-1.70988e-16
-4.71069e-22
-1.67976e-16
-6.96736e-22
-1.65016e-16
-9.14341e-22
-1.62109e-16
-1.12303e-21
-1.59254e-16
-1.32217e-21
-1.56448e-16
-1.51133e-21
-1.53692e-16
-1.69026e-21
-1.50985e-16
-1.85894e-21
-1.48325e-16
-2.01749e-21
-1.45712e-16
-2.16621e-21
-1.43145e-16
-2.30555e-21
-1.40623e-16
-2.43609e-21
-1.38146e-16
-2.55852e-21
-1.35712e-16
-2.67363e-21
-1.33321e-16
-2.78233e-21
-1.30973e-16
-2.88558e-21
-1.28666e-16
-2.98441e-21
-1.26399e-16
-3.07993e-21
-1.24172e-16
-3.1733e-21
-1.21985e-16
-3.26574e-21
-1.19836e-16
-3.35851e-21
-1.17725e-16
-3.45298e-21
-1.15651e-16
-3.55054e-21
-1.13613e-16
-3.65274e-21
-1.11612e-16
-3.7612e-21
-1.09646e-16
-3.8777e-21
-1.07714e-16
-4.00422e-21
-1.05816e-16
-4.14297e-21
-1.03952e-16
-4.29645e-21
-1.02121e-16
-4.46751e-21
-1.00322e-16
-4.65944e-21
-9.85546e-17
-4.87604e-21
-9.68184e-17
-5.1217e-21
-9.51127e-17
-5.40144e-21
-9.34371e-17
-5.72093e-21
-9.1791e-17
-7.9567e-21
-9.01738e-17
-4.72085e-10
-1.25099e-16
-1.48161e-07
-1.38241e-06
-4.31723e-05
1.1864e-07
-2.10631e-22
-1.70987e-16
-4.16274e-22
-1.67975e-16
-6.1588e-22
-1.65016e-16
-8.08569e-22
-1.62109e-16
-9.9364e-22
-1.59254e-16
-1.17057e-21
-1.56448e-16
-1.339e-21
-1.53692e-16
-1.49875e-21
-1.50985e-16
-1.64979e-21
-1.48325e-16
-1.79225e-21
-1.45712e-16
-1.92638e-21
-1.43145e-16
-2.05257e-21
-1.40623e-16
-2.1713e-21
-1.38146e-16
-2.28316e-21
-1.35712e-16
-2.38882e-21
-1.33321e-16
-2.48902e-21
-1.30973e-16
-2.58455e-21
-1.28665e-16
-2.67626e-21
-1.26399e-16
-2.76503e-21
-1.24172e-16
-2.85177e-21
-1.21985e-16
-2.93741e-21
-1.19836e-16
-3.02286e-21
-1.17725e-16
-3.10908e-21
-1.15651e-16
-3.19697e-21
-1.13613e-16
-3.28745e-21
-1.11612e-16
-3.38136e-21
-1.09646e-16
-3.47953e-21
-1.07714e-16
-3.58267e-21
-1.05816e-16
-3.69138e-21
-1.03952e-16
-3.80608e-21
-1.02121e-16
-3.92689e-21
-1.00322e-16
-4.05352e-21
-9.85545e-17
-4.18509e-21
-9.68182e-17
-4.3198e-21
-9.51126e-17
-4.4545e-21
-9.3437e-17
-4.58409e-21
-9.17909e-17
-6.6406e-21
-9.01737e-17
-4.39214e-10
-1.30337e-16
-1.58033e-07
-1.47004e-06
-4.34696e-05
1.21161e-07
-1.85595e-22
-1.70987e-16
-3.66839e-22
-1.67975e-16
-5.42843e-22
-1.65016e-16
-7.12864e-22
-1.62109e-16
-8.76307e-22
-1.59253e-16
-1.03272e-21
-1.56448e-16
-1.18181e-21
-1.53692e-16
-1.32342e-21
-1.50984e-16
-1.4575e-21
-1.48325e-16
-1.58417e-21
-1.45712e-16
-1.70362e-21
-1.43145e-16
-1.81616e-21
-1.40623e-16
-1.9222e-21
-1.38146e-16
-2.02219e-21
-1.35712e-16
-2.1167e-21
-1.33321e-16
-2.20629e-21
-1.30973e-16
-2.29161e-21
-1.28665e-16
-2.3733e-21
-1.26399e-16
-2.45204e-21
-1.24172e-16
-2.52848e-21
-1.21984e-16
-2.60326e-21
-1.19836e-16
-2.67699e-21
-1.17724e-16
-2.75021e-21
-1.15651e-16
-2.82338e-21
-1.13613e-16
-2.89683e-21
-1.11612e-16
-2.97077e-21
-1.09645e-16
-3.04518e-21
-1.07714e-16
-3.1198e-21
-1.05816e-16
-3.19404e-21
-1.03952e-16
-3.26687e-21
-1.02121e-16
-3.33674e-21
-1.00322e-16
-3.40141e-21
-9.85544e-17
-3.45774e-21
-9.68182e-17
-3.50151e-21
-9.51125e-17
-3.52711e-21
-9.34369e-17
-3.52718e-21
-9.17909e-17
-5.1404e-21
-9.01738e-17
-3.43994e-10
-1.30981e-16
-1.69862e-07
-1.47216e-06
-4.37826e-05
1.24814e-07
-1.62877e-22
-1.70987e-16
-3.21946e-22
-1.67975e-16
-4.76436e-22
-1.65016e-16
-6.25699e-22
-1.62109e-16
-7.69211e-22
-1.59253e-16
-9.06575e-22
-1.56448e-16
-1.03752e-21
-1.53692e-16
-1.16188e-21
-1.50984e-16
-1.27962e-21
-1.48324e-16
-1.39078e-21
-1.45712e-16
-1.49553e-21
-1.43145e-16
-1.59409e-21
-1.40623e-16
-1.68676e-21
-1.38146e-16
-1.77393e-21
-1.35712e-16
-1.85599e-21
-1.33321e-16
-1.93342e-21
-1.30973e-16
-2.00669e-21
-1.28665e-16
-2.0763e-21
-1.26399e-16
-2.14274e-21
-1.24172e-16
-2.20648e-21
-1.21984e-16
-2.26796e-21
-1.19835e-16
-2.32755e-21
-1.17724e-16
-2.38555e-21
-1.1565e-16
-2.44212e-21
-1.13613e-16
-2.4973e-21
-1.11612e-16
-2.55093e-21
-1.09645e-16
-2.60263e-21
-1.07714e-16
-2.65174e-21
-1.05816e-16
-2.69724e-21
-1.03952e-16
-2.73773e-21
-1.02121e-16
-2.77134e-21
-1.00322e-16
-2.79566e-21
-9.85544e-17
-2.80768e-21
-9.68182e-17
-2.80373e-21
-9.51125e-17
-2.77949e-21
-9.3437e-17
-2.72993e-21
-9.17909e-17
-3.9191e-21
-9.01738e-17
-2.56015e-10
-1.28244e-16
-1.82834e-07
-1.41721e-06
-4.41149e-05
1.30902e-07
-1.4217e-22
-1.70987e-16
-2.80998e-22
-1.67975e-16
-4.15793e-22
-1.65016e-16
-5.4597e-22
-1.62109e-16
-6.71052e-22
-1.59253e-16
-7.90668e-22
-1.56448e-16
-9.04549e-22
-1.53692e-16
-1.01253e-21
-1.50984e-16
-1.11453e-21
-1.48324e-16
-1.21056e-21
-1.45711e-16
-1.30071e-21
-1.43145e-16
-1.38514e-21
-1.40623e-16
-1.46407e-21
-1.38146e-16
-1.53776e-21
-1.35712e-16
-1.60654e-21
-1.33321e-16
-1.67074e-21
-1.30972e-16
-1.73074e-21
-1.28665e-16
-1.78691e-21
-1.26399e-16
-1.83964e-21
-1.24172e-16
-1.88929e-21
-1.21984e-16
-1.93618e-21
-1.19835e-16
-1.98059e-21
-1.17724e-16
-2.02275e-21
-1.1565e-16
-2.06277e-21
-1.13613e-16
-2.10065e-21
-1.11612e-16
-2.13623e-21
-1.09645e-16
-2.16919e-21
-1.07714e-16
-2.19898e-21
-1.05816e-16
-2.22482e-21
-1.03952e-16
-2.24564e-21
-1.02121e-16
-2.26007e-21
-1.00322e-16
-2.26645e-21
-9.85544e-17
-2.26282e-21
-9.68182e-17
-2.24696e-21
-9.51126e-17
-2.21645e-21
-9.3437e-17
-2.1688e-21
-9.17909e-17
-3.04367e-21
-9.01739e-17
-1.91834e-10
-1.23362e-16
-1.97203e-07
-1.32314e-06
-4.4471e-05
1.39963e-07
-1.23256e-22
-1.70987e-16
-2.43572e-22
-1.67975e-16
-3.60308e-22
-1.65016e-16
-4.72919e-22
-1.62109e-16
-5.8095e-22
-1.59253e-16
-6.84039e-22
-1.56448e-16
-7.81911e-22
-1.53692e-16
-8.74374e-22
-1.50984e-16
-9.61314e-22
-1.48324e-16
-1.04269e-21
-1.45711e-16
-1.11853e-21
-1.43144e-16
-1.18891e-21
-1.40623e-16
-1.25398e-21
-1.38145e-16
-1.31391e-21
-1.35712e-16
-1.36892e-21
-1.33321e-16
-1.41928e-21
-1.30972e-16
-1.46526e-21
-1.28665e-16
-1.50716e-21
-1.26399e-16
-1.5453e-21
-1.24172e-16
-1.58e-21
-1.21984e-16
-1.61157e-21
-1.19835e-16
-1.64031e-21
-1.17724e-16
-1.66651e-21
-1.1565e-16
-1.6904e-21
-1.13613e-16
-1.71216e-21
-1.11612e-16
-1.73192e-21
-1.09645e-16
-1.74971e-21
-1.07714e-16
-1.76543e-21
-1.05816e-16
-1.77887e-21
-1.03952e-16
-1.78967e-21
-1.02121e-16
-1.7973e-21
-1.00322e-16
-1.80107e-21
-9.85544e-17
-1.80013e-21
-9.68182e-17
-1.79351e-21
-9.51126e-17
-1.78017e-21
-9.3437e-17
-1.75906e-21
-9.1791e-17
-2.409e-21
-9.01739e-17
-1.44871e-10
-1.17243e-16
-2.13667e-07
-1.1981e-06
-4.48566e-05
1.5234e-07
-1.05989e-22
-1.70987e-16
-2.09386e-22
-1.67975e-16
-3.09583e-22
-1.65016e-16
-4.06053e-22
-1.62109e-16
-4.98352e-22
-1.59253e-16
-5.86112e-22
-1.56447e-16
-6.6904e-22
-1.53691e-16
-7.46914e-22
-1.50984e-16
-8.19577e-22
-1.48324e-16
-8.86931e-22
-1.45711e-16
-9.48936e-22
-1.43144e-16
-1.0056e-21
-1.40623e-16
-1.05698e-21
-1.38145e-16
-1.10317e-21
-1.35712e-16
-1.1443e-21
-1.33321e-16
-1.18055e-21
-1.30972e-16
-1.21213e-21
-1.28665e-16
-1.23926e-21
-1.26399e-16
-1.26221e-21
-1.24172e-16
-1.2813e-21
-1.21984e-16
-1.29686e-21
-1.19835e-16
-1.30925e-21
-1.17724e-16
-1.31891e-21
-1.1565e-16
-1.32627e-21
-1.13613e-16
-1.33183e-21
-1.11612e-16
-1.33611e-21
-1.09645e-16
-1.33966e-21
-1.07714e-16
-1.34306e-21
-1.05816e-16
-1.34685e-21
-1.03952e-16
-1.35158e-21
-1.02121e-16
-1.35772e-21
-1.00322e-16
-1.36562e-21
-9.85544e-17
-1.37551e-21
-9.68182e-17
-1.38743e-21
-9.51126e-17
-1.40122e-21
-9.3437e-17
-1.41654e-21
-9.1791e-17
-1.89691e-21
-9.01739e-17
-1.0675e-10
-1.10439e-16
-2.33053e-07
-1.0437e-06
-4.52783e-05
1.685e-07
-9.02733e-23
-1.70987e-16
-1.7826e-22
-1.67975e-16
-2.63367e-22
-1.65015e-16
-3.45079e-22
-1.62109e-16
-4.22947e-22
-1.59253e-16
-4.96591e-22
-1.56447e-16
-5.65696e-22
-1.53691e-16
-6.30002e-22
-1.50984e-16
-6.89304e-22
-1.48324e-16
-7.43449e-22
-1.45711e-16
-7.92326e-22
-1.43144e-16
-8.35865e-22
-1.40623e-16
-8.74038e-22
-1.38145e-16
-9.06849e-22
-1.35712e-16
-9.34339e-22
-1.33321e-16
-9.56584e-22
-1.30972e-16
-9.73697e-22
-1.28665e-16
-9.85834e-22
-1.26398e-16