/*--------------------------------*- C++ -*----------------------------------*\
  =========                 |
  \\      /  F ield         | OpenFOAM: The Open Source CFD Toolbox
   \\    /   O peration     | Website:  https://openfoam.org
    \\  /    A nd           | Version:  7
     \\/     M anipulation  |
\*---------------------------------------------------------------------------*/
FoamFile
{
    version     2.0;
    format      ascii;
    class       volVectorField;
    location    "15000";
    object      Ua;
}
// * * * * * * * * * * * * * * * * * * * * * * * * * * * * * * * * * * * * * //

dimensions      [0 1 -1 0 0 0 0];

internalField   nonuniform List<vector> 
3200
(
(-3.35263e-07 4.84176e-07 0)
(-1.00417e-06 4.90476e-07 0)
(-1.67403e-06 5.03123e-07 0)
(-2.35329e-06 5.22536e-07 0)
(-3.05074e-06 5.49541e-07 0)
(-3.77607e-06 5.85457e-07 0)
(-4.54051e-06 6.32248e-07 0)
(-5.35762e-06 6.92782e-07 0)
(-6.24447e-06 7.71246e-07 0)
(-7.22337e-06 8.7383e-07 0)
(-8.32441e-06 1.00986e-06 0)
(-9.58962e-06 1.19373e-06 0)
(-1.10797e-05 1.44832e-06 0)
(-1.28853e-05 1.81101e-06 0)
(-1.51466e-05 2.34489e-06 0)
(-1.80885e-05 3.15959e-06 0)
(-2.20836e-05 4.45121e-06 0)
(-2.77709e-05 6.57967e-06 0)
(-3.62784e-05 1.02205e-05 0)
(-4.96509e-05 1.66659e-05 0)
(-6.93013e-05 2.83255e-05 0)
(-4.30473e-05 7.05827e-05 0)
(-3.75715e-06 1.47339e-05 0)
(-1.67646e-06 7.06042e-06 0)
(-1.00062e-06 4.51213e-06 0)
(-6.6824e-07 3.20774e-06 0)
(-4.76622e-07 2.42158e-06 0)
(-3.55875e-07 1.90346e-06 0)
(-2.75089e-07 1.54276e-06 0)
(-2.1848e-07 1.28006e-06 0)
(-1.77407e-07 1.08249e-06 0)
(-1.4672e-07 9.29985e-07 0)
(-1.23181e-07 8.09385e-07 0)
(-1.04649e-07 7.11829e-07 0)
(-8.91965e-08 6.301e-07 0)
(-7.20686e-08 5.48679e-07 0)
(-5.39069e-08 4.75913e-07 0)
(-3.84477e-08 4.10473e-07 0)
(-2.43242e-08 3.51256e-07 0)
(-9.33025e-09 2.95573e-07 0)
(-3.26083e-07 1.43927e-06 0)
(-9.76233e-07 1.45735e-06 0)
(-1.62597e-06 1.49358e-06 0)
(-2.28248e-06 1.54903e-06 0)
(-2.95305e-06 1.62586e-06 0)
(-3.64538e-06 1.72745e-06 0)
(-4.36788e-06 1.8588e-06 0)
(-5.13002e-06 2.02708e-06 0)
(-5.9427e-06 2.24243e-06 0)
(-6.81849e-06 2.51935e-06 0)
(-7.77182e-06 2.87874e-06 0)
(-8.81858e-06 3.35116e-06 0)
(-9.97459e-06 3.98202e-06 0)
(-1.12512e-05 4.83992e-06 0)
(-1.26442e-05 6.03017e-06 0)
(-1.41093e-05 7.71693e-06 0)
(-1.55056e-05 1.01594e-05 0)
(-1.64737e-05 1.37711e-05 0)
(-1.61711e-05 1.92165e-05 0)
(-1.27066e-05 2.75653e-05 0)
(-1.98978e-06 4.0438e-05 0)
(1.06155e-05 3.08772e-05 0)
(1.26921e-05 8.84002e-06 0)
(8.0743e-06 6.61475e-06 0)
(4.57475e-06 5.37228e-06 0)
(1.70336e-06 4.65816e-06 0)
(-8.76983e-07 4.30287e-06 0)
(-3.4108e-06 4.24183e-06 0)
(-6.11599e-06 4.4793e-06 0)
(-9.23676e-06 5.08294e-06 0)
(-1.30994e-05 6.20325e-06 0)
(-1.81878e-05 8.11596e-06 0)
(-2.52617e-05 1.13024e-05 0)
(-3.54739e-05 1.6586e-05 0)
(-2.31613e-05 1.04399e-05 0)
(-3.3582e-06 1.23143e-06 0)
(-1.48588e-06 9.29019e-07 0)
(-7.97829e-07 7.19294e-07 0)
(-3.92624e-07 5.09963e-07 0)
(-1.18117e-07 3.05971e-07 0)
(-3.08921e-07 2.35632e-06 0)
(-9.24093e-07 2.38396e-06 0)
(-1.53657e-06 2.43916e-06 0)
(-2.15151e-06 2.52323e-06 0)
(-2.77376e-06 2.63881e-06 0)
(-3.40798e-06 2.79012e-06 0)
(-4.05857e-06 2.98319e-06 0)
(-4.72952e-06 3.22634e-06 0)
(-5.42402e-06 3.53084e-06 0)
(-6.14379e-06 3.91179e-06 0)
(-6.88776e-06 4.38925e-06 0)
(-7.64979e-06 4.98979e-06 0)
(-8.41494e-06 5.74804e-06 0)
(-9.15319e-06 6.70824e-06 0)
(-9.80973e-06 7.9245e-06 0)
(-1.02907e-05 9.45758e-06 0)
(-1.04446e-05 1.13627e-05 0)
(-1.00453e-05 1.36575e-05 0)
(-8.79562e-06 1.62453e-05 0)
(-6.41028e-06 1.87481e-05 0)
(-2.92598e-06 2.01506e-05 0)
(4.08998e-07 1.8093e-05 0)
(1.96527e-06 1.4097e-05 0)
(1.85589e-06 1.15377e-05 0)
(1.02507e-06 9.94163e-06 0)
(-1.06585e-07 9.02208e-06 0)
(-1.34897e-06 8.62418e-06 0)
(-2.60299e-06 8.68222e-06 0)
(-3.78744e-06 9.19886e-06 0)
(-4.78613e-06 1.02397e-05 0)
(-5.38687e-06 1.19401e-05 0)
(-5.1865e-06 1.45234e-05 0)
(-3.4259e-06 1.83313e-05 0)
(1.30126e-06 2.3863e-05 0)
(5.91407e-06 1.68984e-05 0)
(5.48802e-06 6.52462e-06 0)
(2.2192e-06 5.67971e-06 0)
(-9.11042e-07 5.42461e-06 0)
(-1.46598e-06 1.43026e-06 0)
(-1.54856e-07 2.42725e-07 0)
(-2.85819e-07 3.21522e-06 0)
(-8.54089e-07 3.24938e-06 0)
(-1.41717e-06 3.31736e-06 0)
(-1.97793e-06 3.42017e-06 0)
(-2.53872e-06 3.56018e-06 0)
(-3.10124e-06 3.74114e-06 0)
(-3.6663e-06 3.96827e-06 0)
(-4.23345e-06 4.24849e-06 0)
(-4.80043e-06 4.59052e-06 0)
(-5.36232e-06 5.0051e-06 0)
(-5.91032e-06 5.50504e-06 0)
(-6.43011e-06 6.10487e-06 0)
(-6.89969e-06 6.82002e-06 0)
(-7.28686e-06 7.66477e-06 0)
(-7.54676e-06 8.64819e-06 0)
(-7.62067e-06 9.76701e-06 0)
(-7.43863e-06 1.09938e-05 0)
(-6.93009e-06 1.22594e-05 0)
(-6.0492e-06 1.34315e-05 0)
(-4.82085e-06 1.42972e-05 0)
(-3.4031e-06 1.45803e-05 0)
(-2.1184e-06 1.40732e-05 0)
(-1.27717e-06 1.30698e-05 0)
(-9.3847e-07 1.20849e-05 0)
(-9.77479e-07 1.1309e-05 0)
(-1.25321e-06 1.07997e-05 0)
(-1.64683e-06 1.05652e-05 0)
(-2.06023e-06 1.05974e-05 0)
(-2.40528e-06 1.08825e-05 0)
(-2.59423e-06 1.13976e-05 0)
(-2.53626e-06 1.20974e-05 0)
(-2.14735e-06 1.28868e-05 0)
(-1.38795e-06 1.35701e-05 0)
(-3.57989e-07 1.37631e-05 0)
(4.92977e-07 1.27402e-05 0)
(7.19108e-07 1.12953e-05 0)
(4.4756e-07 1.05183e-05 0)
(6.11071e-08 1.03132e-05 0)
(-1.20783e-07 3.23759e-06 0)
(-2.53296e-08 8.60723e-08 0)
(-2.59148e-07 4.00224e-06 0)
(-7.73508e-07 4.03978e-06 0)
(-1.28055e-06 4.11414e-06 0)
(-1.78112e-06 4.22578e-06 0)
(-2.27551e-06 4.37625e-06 0)
(-2.76321e-06 4.56807e-06 0)
(-3.24266e-06 4.80471e-06 0)
(-3.71095e-06 5.0905e-06 0)
(-4.16332e-06 5.43044e-06 0)
(-4.59269e-06 5.82998e-06 0)
(-4.98907e-06 6.29447e-06 0)
(-5.33889e-06 6.82831e-06 0)
(-5.62459e-06 7.43367e-06 0)
(-5.82454e-06 8.1084e-06 0)
(-5.91382e-06 8.84332e-06 0)
(-5.86654e-06 9.6186e-06 0)
(-5.66046e-06 1.04e-05 0)
(-5.28447e-06 1.11359e-05 0)
(-4.74879e-06 1.17582e-05 0)
(-4.09536e-06 1.21912e-05 0)
(-3.40188e-06 1.23736e-05 0)
(-2.76865e-06 1.22965e-05 0)
(-2.27975e-06 1.20383e-05 0)
(-1.96694e-06 1.17188e-05 0)
(-1.81302e-06 1.14275e-05 0)
(-1.77628e-06 1.12174e-05 0)
(-1.80727e-06 1.11135e-05 0)
(-1.85722e-06 1.11206e-05 0)
(-1.88191e-06 1.12283e-05 0)
(-1.84448e-06 1.1412e-05 0)
(-1.7194e-06 1.16322e-05 0)
(-1.49901e-06 1.18337e-05 0)
(-1.20215e-06 1.19481e-05 0)
(-8.81404e-07 1.19075e-05 0)
(-6.17585e-07 1.16829e-05 0)
(-4.73101e-07 1.13745e-05 0)
(-4.47597e-07 1.11115e-05 0)
(-5.0102e-07 1.09357e-05 0)
(-3.11742e-07 4.53522e-06 0)
(-1.48134e-08 1.83385e-08 0)
(-2.3113e-07 4.71029e-06 0)
(-6.89117e-07 4.74845e-06 0)
(-1.13834e-06 4.82372e-06 0)
(-1.57815e-06 4.93592e-06 0)
(-2.00742e-06 5.08558e-06 0)
(-2.42434e-06 5.27385e-06 0)
(-2.82622e-06 5.5023e-06 0)
(-3.20928e-06 5.77276e-06 0)
(-3.56844e-06 6.08698e-06 0)
(-3.8971e-06 6.4463e-06 0)
(-4.18707e-06 6.85109e-06 0)
(-4.42856e-06 7.30004e-06 0)
(-4.61045e-06 7.78929e-06 0)
(-4.72098e-06 8.31133e-06 0)
(-4.74896e-06 8.85395e-06 0)
(-4.68569e-06 9.39936e-06 0)
(-4.52748e-06 9.92401e-06 0)
(-4.27861e-06 1.03997e-05 0)
(-3.95391e-06 1.07967e-05 0)
(-3.57959e-06 1.10895e-05 0)
(-3.19086e-06 1.12651e-05 0)
(-2.82507e-06 1.13295e-05 0)
(-2.51184e-06 1.13101e-05 0)
(-2.26562e-06 1.12451e-05 0)
(-2.08522e-06 1.117e-05 0)
(-1.95824e-06 1.11108e-05 0)
(-1.86647e-06 1.10826e-05 0)
(-1.79019e-06 1.10905e-05 0)
(-1.71147e-06 1.11306e-05 0)
(-1.6167e-06 1.11918e-05 0)
(-1.49863e-06 1.12579e-05 0)
(-1.35786e-06 1.13099e-05 0)
(-1.20329e-06 1.133e-05 0)
(-1.05061e-06 1.13076e-05 0)
(-9.17671e-07 1.12451e-05 0)
(-8.17177e-07 1.11612e-05 0)
(-7.51742e-07 1.10796e-05 0)
(-7.15633e-07 1.10165e-05 0)
(-3.90177e-07 4.76131e-06 0)
(-1.37121e-08 1.18818e-08 0)
(-2.03541e-07 5.33802e-06 0)
(-6.06263e-07 5.37476e-06 0)
(-9.9953e-07 5.44691e-06 0)
(-1.38174e-06 5.55371e-06 0)
(-1.75099e-06 5.69486e-06 0)
(-2.10489e-06 5.87028e-06 0)
(-2.44047e-06 6.08004e-06 0)
(-2.75408e-06 6.32407e-06 0)
(-3.04133e-06 6.60193e-06 0)
(-3.2971e-06 6.91253e-06 0)
(-3.51563e-06 7.2537e-06 0)
(-3.69079e-06 7.62183e-06 0)
(-3.81642e-06 8.01143e-06 0)
(-3.88703e-06 8.41479e-06 0)
(-3.89856e-06 8.82182e-06 0)
(-3.84943e-06 9.22013e-06 0)
(-3.74152e-06 9.59571e-06 0)
(-3.58103e-06 9.93414e-06 0)
(-3.37873e-06 1.02225e-05 0)
(-3.14929e-06 1.04518e-05 0)
(-2.90956e-06 1.06192e-05 0)
(-2.6758e-06 1.07293e-05 0)
(-2.46073e-06 1.0793e-05 0)
(-2.2716e-06 1.08252e-05 0)
(-2.10988e-06 1.08405e-05 0)
(-1.97237e-06 1.08506e-05 0)
(-1.85303e-06 1.08635e-05 0)
(-1.74473e-06 1.08828e-05 0)
(-1.64085e-06 1.09082e-05 0)
(-1.53647e-06 1.09366e-05 0)
(-1.42912e-06 1.09628e-05 0)
(-1.31904e-06 1.09817e-05 0)
(-1.2089e-06 1.09889e-05 0)
(-1.10283e-06 1.0983e-05 0)
(-1.00505e-06 1.09657e-05 0)
(-9.18317e-07 1.09419e-05 0)
(-8.43088e-07 1.09176e-05 0)
(-7.77492e-07 1.0898e-05 0)
(-4.10341e-07 4.6924e-06 0)
(-1.34848e-08 1.1006e-08 0)
(-1.77608e-07 5.88846e-06 0)
(-5.28589e-07 5.92243e-06 0)
(-8.70079e-07 5.98891e-06 0)
(-1.19999e-06 6.08674e-06 0)
(-1.51609e-06 6.21495e-06 0)
(-1.8159e-06 6.37266e-06 0)
(-2.09665e-06 6.55889e-06 0)
(-2.35523e-06 6.77245e-06 0)
(-2.58826e-06 7.01168e-06 0)
(-2.79211e-06 7.27434e-06 0)
(-2.96308e-06 7.55734e-06 0)
(-3.09767e-06 7.85664e-06 0)
(-3.19283e-06 8.16706e-06 0)
(-3.24639e-06 8.48229e-06 0)
(-3.25749e-06 8.79503e-06 0)
(-3.22699e-06 9.09728e-06 0)
(-3.15781e-06 9.38089e-06 0)
(-3.05497e-06 9.63837e-06 0)
(-2.92546e-06 9.86373e-06 0)
(-2.77763e-06 1.00533e-05 0)
(-2.62023e-06 1.02066e-05 0)
(-2.46139e-06 1.03258e-05 0)
(-2.30754e-06 1.0416e-05 0)
(-2.16287e-06 1.04835e-05 0)
(-2.02918e-06 1.05347e-05 0)
(-1.90625e-06 1.05753e-05 0)
(-1.79251e-06 1.06094e-05 0)
(-1.68573e-06 1.06396e-05 0)
(-1.5837e-06 1.06667e-05 0)
(-1.48468e-06 1.06906e-05 0)
(-1.38772e-06 1.07103e-05 0)
(-1.29271e-06 1.07249e-05 0)
(-1.20022e-06 1.07336e-05 0)
(-1.11119e-06 1.07365e-05 0)
(-1.02652e-06 1.07345e-05 0)
(-9.46688e-07 1.07292e-05 0)
(-8.71584e-07 1.07224e-05 0)
(-8.00448e-07 1.07156e-05 0)
(-4.18602e-07 4.55928e-06 0)
(-1.3232e-08 1.05057e-08 0)
(-1.54046e-07 6.36743e-06 0)
(-4.58174e-07 6.39793e-06 0)
(-7.53246e-07 6.45745e-06 0)
(-1.03702e-06 6.54459e-06 0)
(-1.30724e-06 6.65802e-06 0)
(-1.56162e-06 6.79635e-06 0)
(-1.79775e-06 6.95807e-06 0)
(-2.01318e-06 7.14137e-06 0)
(-2.20543e-06 7.34414e-06 0)
(-2.37207e-06 7.56376e-06 0)
(-2.51087e-06 7.79711e-06 0)
(-2.61995e-06 8.04047e-06 0)
(-2.69801e-06 8.28955e-06 0)
(-2.74446e-06 8.53958e-06 0)
(-2.75969e-06 8.78549e-06 0)
(-2.74517e-06 9.02212e-06 0)
(-2.7035e-06 9.24463e-06 0)
(-2.63833e-06 9.44887e-06 0)
(-2.55416e-06 9.63171e-06 0)
(-2.45595e-06 9.79145e-06 0)
(-2.34871e-06 9.92782e-06 0)
(-2.23698e-06 1.0042e-05 0)
(-2.12449e-06 1.01363e-05 0)
(-2.01396e-06 1.02136e-05 0)
(-1.90698e-06 1.0277e-05 0)
(-1.80426e-06 1.03294e-05 0)
(-1.70577e-06 1.03732e-05 0)
(-1.61111e-06 1.041e-05 0)
(-1.5197e-06 1.04409e-05 0)
(-1.43105e-06 1.04666e-05 0)
(-1.34484e-06 1.04875e-05 0)
(-1.26096e-06 1.05035e-05 0)
(-1.17948e-06 1.05152e-05 0)
(-1.10056e-06 1.05227e-05 0)
(-1.02434e-06 1.05268e-05 0)
(-9.50839e-07 1.05281e-05 0)
(-8.79954e-07 1.05273e-05 0)
(-8.11406e-07 1.0525e-05 0)
(-4.23291e-07 4.40886e-06 0)
(-1.28844e-08 1.00439e-08 0)
(-1.33158e-07 6.7822e-06 0)
(-3.9587e-07 6.80902e-06 0)
(-6.50251e-07 6.86121e-06 0)
(-8.94113e-07 6.93732e-06 0)
(-1.12537e-06 7.03583e-06 0)
(-1.34199e-06 7.15517e-06 0)
(-1.542e-06 7.29357e-06 0)
(-1.72353e-06 7.44908e-06 0)
(-1.88481e-06 7.61947e-06 0)
(-2.02426e-06 7.80221e-06 0)
(-2.14058e-06 7.99449e-06 0)
(-2.23286e-06 8.19315e-06 0)
(-2.30065e-06 8.39482e-06 0)
(-2.34408e-06 8.59597e-06 0)
(-2.36391e-06 8.79304e-06 0)
(-2.36157e-06 8.98265e-06 0)
(-2.33912e-06 9.16175e-06 0)
(-2.29914e-06 9.32783e-06 0)
(-2.24461e-06 9.47909e-06 0)
(-2.17865e-06 9.61449e-06 0)
(-2.10434e-06 9.73384e-06 0)
(-2.0245e-06 9.83764e-06 0)
(-1.94153e-06 9.92697e-06 0)
(-1.85728e-06 1.00033e-05 0)
(-1.7731e-06 1.00682e-05 0)
(-1.68985e-06 1.01232e-05 0)
(-1.608e-06 1.01697e-05 0)
(-1.52776e-06 1.02089e-05 0)
(-1.44919e-06 1.02418e-05 0)
(-1.37227e-06 1.0269e-05 0)
(-1.29699e-06 1.02911e-05 0)
(-1.22334e-06 1.03087e-05 0)
(-1.15135e-06 1.03221e-05 0)
(-1.08104e-06 1.03318e-05 0)
(-1.0124e-06 1.03383e-05 0)
(-9.45386e-07 1.0342e-05 0)
(-8.79899e-07 1.03433e-05 0)
(-8.15735e-07 1.03425e-05 0)
(-4.25117e-07 4.24975e-06 0)
(-1.24556e-08 9.60745e-09 0)
(-1.14966e-07 7.14053e-06 0)
(-3.41688e-07 7.16376e-06 0)
(-5.60942e-07 7.20887e-06 0)
(-7.70717e-07 7.27443e-06 0)
(-9.69158e-07 7.35894e-06 0)
(-1.15454e-06 7.46078e-06 0)
(-1.32529e-06 7.57818e-06 0)
(-1.47997e-06 7.70923e-06 0)
(-1.61734e-06 7.85184e-06 0)
(-1.73639e-06 8.00374e-06 0)
(-1.83639e-06 8.16251e-06 0)
(-1.91693e-06 8.32558e-06 0)
(-1.97798e-06 8.49032e-06 0)
(-2.01994e-06 8.65411e-06 0)
(-2.04361e-06 8.81441e-06 0)
(-2.05019e-06 8.96889e-06 0)
(-2.04125e-06 9.11551e-06 0)
(-2.01864e-06 9.25263e-06 0)
(-1.98438e-06 9.37905e-06 0)
(-1.94055e-06 9.49407e-06 0)
(-1.88918e-06 9.59746e-06 0)
(-1.83214e-06 9.68937e-06 0)
(-1.77107e-06 9.77033e-06 0)
(-1.70731e-06 9.84106e-06 0)
(-1.64194e-06 9.90243e-06 0)
(-1.57575e-06 9.95532e-06 0)
(-1.50932e-06 1.00006e-05 0)
(-1.44302e-06 1.00391e-05 0)
(-1.37714e-06 1.00715e-05 0)
(-1.31184e-06 1.00984e-05 0)
(-1.24725e-06 1.01205e-05 0)
(-1.18346e-06 1.01381e-05 0)
(-1.12054e-06 1.01517e-05 0)
(-1.05854e-06 1.01618e-05 0)
(-9.97503e-07 1.01687e-05 0)
(-9.37437e-07 1.01728e-05 0)
(-8.78342e-07 1.01744e-05 0)
(-8.20176e-07 1.01736e-05 0)
(-4.27457e-07 4.09062e-06 0)
(-1.19513e-08 9.19643e-09 0)
(-9.9315e-08 7.44999e-06 0)
(-2.95126e-07 7.4699e-06 0)
(-4.84363e-07 7.50851e-06 0)
(-6.65248e-07 7.56449e-06 0)
(-8.36181e-07 7.63642e-06 0)
(-9.95728e-07 7.72276e-06 0)
(-1.14263e-06 7.82186e-06 0)
(-1.2758e-06 7.93196e-06 0)
(-1.39437e-06 8.05121e-06 0)
(-1.49768e-06 8.17763e-06 0)
(-1.58533e-06 8.3092e-06 0)
(-1.65719e-06 8.44386e-06 0)
(-1.71341e-06 8.57955e-06 0)
(-1.75443e-06 8.71427e-06 0)
(-1.78098e-06 8.84617e-06 0)
(-1.79402e-06 8.97356e-06 0)
(-1.79474e-06 9.09499e-06 0)
(-1.78448e-06 9.20929e-06 0)
(-1.76466e-06 9.31562e-06 0)
(-1.73674e-06 9.4134e-06 0)
(-1.70212e-06 9.50238e-06 0)
(-1.66209e-06 9.58257e-06 0)
(-1.61784e-06 9.65416e-06 0)
(-1.57036e-06 9.71754e-06 0)
(-1.52048e-06 9.77318e-06 0)
(-1.46887e-06 9.82161e-06 0)
(-1.41606e-06 9.86337e-06 0)
(-1.36245e-06 9.89903e-06 0)
(-1.30836e-06 9.92909e-06 0)
(-1.254e-06 9.95408e-06 0)
(-1.19955e-06 9.97444e-06 0)
(-1.14516e-06 9.99062e-06 0)
(-1.09094e-06 1.0003e-05 0)
(-1.03697e-06 1.00121e-05 0)
(-9.83335e-07 1.00181e-05 0)
(-9.30114e-07 1.00214e-05 0)
(-8.77378e-07 1.00223e-05 0)
(-8.25163e-07 1.0021e-05 0)
(-4.30033e-07 3.93192e-06 0)
(-1.1385e-08 8.80948e-09 0)
(-8.59548e-08 7.71755e-06 0)
(-2.55414e-07 7.73451e-06 0)
(-4.19159e-07 7.76736e-06 0)
(-5.75657e-07 7.81492e-06 0)
(-7.23555e-07 7.87587e-06 0)
(-8.61672e-07 7.94884e-06 0)
(-9.89006e-07 8.03233e-06 0)
(-1.10474e-06 8.1248e-06 0)
(-1.20824e-06 8.22463e-06 0)
(-1.2991e-06 8.33015e-06 0)
(-1.37708e-06 8.43968e-06 0)
(-1.44219e-06 8.55156e-06 0)
(-1.49464e-06 8.66417e-06 0)
(-1.53486e-06 8.77595e-06 0)
(-1.56345e-06 8.8855e-06 0)
(-1.58118e-06 8.99154e-06 0)
(-1.58896e-06 9.09299e-06 0)
(-1.58776e-06 9.18896e-06 0)
(-1.57864e-06 9.27877e-06 0)
(-1.56264e-06 9.36197e-06 0)
(-1.54075e-06 9.43828e-06 0)
(-1.51393e-06 9.50761e-06 0)
(-1.48302e-06 9.56999e-06 0)
(-1.44878e-06 9.62561e-06 0)
(-1.41185e-06 9.6747e-06 0)
(-1.37277e-06 9.71759e-06 0)
(-1.33196e-06 9.75463e-06 0)
(-1.28977e-06 9.78618e-06 0)
(-1.24648e-06 9.81263e-06 0)
(-1.20229e-06 9.83436e-06 0)
(-1.15739e-06 9.85177e-06 0)
(-1.11189e-06 9.86523e-06 0)
(-1.06592e-06 9.87512e-06 0)
(-1.01956e-06 9.88181e-06 0)
(-9.72921e-07 9.88567e-06 0)
(-9.26095e-07 9.88703e-06 0)
(-8.79193e-07 9.88623e-06 0)
(-8.32294e-07 9.88341e-06 0)
(-4.33506e-07 3.77149e-06 0)
(-1.0768e-08 8.44123e-09 0)
(-7.46004e-08 7.94941e-06 0)
(-2.21684e-07 7.96382e-06 0)
(-3.63843e-07 7.9917e-06 0)
(-4.99779e-07 8.03201e-06 0)
(-6.28361e-07 8.08359e-06 0)
(-7.48628e-07 8.14522e-06 0)
(-8.59783e-07 8.2156e-06 0)
(-9.612e-07 8.29339e-06 0)
(-1.05242e-06 8.3772e-06 0)
(-1.13317e-06 8.46564e-06 0)
(-1.20334e-06 8.55732e-06 0)
(-1.26299e-06 8.65088e-06 0)
(-1.31233e-06 8.74503e-06 0)
(-1.35174e-06 8.83854e-06 0)
(-1.38173e-06 8.93029e-06 0)
(-1.40291e-06 9.0193e-06 0)
(-1.41596e-06 9.10471e-06 0)
(-1.42164e-06 9.1858e-06 0)
(-1.42072e-06 9.26203e-06 0)
(-1.41398e-06 9.33297e-06 0)
(-1.40216e-06 9.39835e-06 0)
(-1.38596e-06 9.45801e-06 0)
(-1.36601e-06 9.51191e-06 0)
(-1.3429e-06 9.56007e-06 0)
(-1.31709e-06 9.60261e-06 0)
(-1.28899e-06 9.63968e-06 0)
(-1.25895e-06 9.6715e-06 0)
(-1.22722e-06 9.6983e-06 0)
(-1.194e-06 9.72034e-06 0)
(-1.15945e-06 9.73792e-06 0)
(-1.12367e-06 9.75134e-06 0)
(-1.08673e-06 9.76093e-06 0)
(-1.04871e-06 9.76705e-06 0)
(-1.00964e-06 9.77005e-06 0)
(-9.69597e-07 9.77034e-06 0)
(-9.28644e-07 9.76829e-06 0)
(-8.86882e-07 9.76431e-06 0)
(-8.44382e-07 9.75858e-06 0)
(-4.39214e-07 3.60849e-06 0)
(-1.0106e-08 8.08488e-09 0)
(-6.49649e-08 8.15097e-06 0)
(-1.93073e-07 8.1632e-06 0)
(-3.16958e-07 8.18686e-06 0)
(-4.35534e-07 8.22104e-06 0)
(-5.4787e-07 8.26473e-06 0)
(-6.53182e-07 8.31688e-06 0)
(-7.5084e-07 8.37636e-06 0)
(-8.40361e-07 8.44203e-06 0)
(-9.21412e-07 8.51271e-06 0)
(-9.93805e-07 8.58723e-06 0)
(-1.05749e-06 8.66445e-06 0)
(-1.11256e-06 8.74326e-06 0)
(-1.15922e-06 8.8226e-06 0)
(-1.19779e-06 8.90148e-06 0)
(-1.22869e-06 8.97899e-06 0)
(-1.2524e-06 9.05435e-06 0)
(-1.26948e-06 9.12685e-06 0)
(-1.28051e-06 9.19589e-06 0)
(-1.28608e-06 9.261e-06 0)
(-1.28678e-06 9.32179e-06 0)
(-1.28319e-06 9.37798e-06 0)
(-1.27584e-06 9.42936e-06 0)
(-1.26522e-06 9.47582e-06 0)
(-1.25176e-06 9.5173e-06 0)
(-1.23583e-06 9.55379e-06 0)
(-1.21772e-06 9.58534e-06 0)
(-1.19769e-06 9.61202e-06 0)
(-1.1759e-06 9.63395e-06 0)
(-1.15246e-06 9.65127e-06 0)
(-1.12744e-06 9.66416e-06 0)
(-1.10083e-06 9.67285e-06 0)
(-1.07261e-06 9.67758e-06 0)
(-1.04272e-06 9.67867e-06 0)
(-1.01108e-06 9.67646e-06 0)
(-9.77633e-07 9.67139e-06 0)
(-9.42359e-07 9.66395e-06 0)
(-9.05301e-07 9.65469e-06 0)
(-8.66553e-07 9.64399e-06 0)
(-4.49813e-07 3.44014e-06 0)
(-9.39826e-09 7.73401e-09 0)
(-5.67796e-08 8.32679e-06 0)
(-1.68774e-07 8.33719e-06 0)
(-2.77157e-07 8.35732e-06 0)
(-3.81032e-07 8.38637e-06 0)
(-4.79634e-07 8.4235e-06 0)
(-5.72331e-07 8.46779e-06 0)
(-6.58623e-07 8.51829e-06 0)
(-7.38137e-07 8.57401e-06 0)
(-8.10628e-07 8.63398e-06 0)
(-8.75971e-07 8.69721e-06 0)
(-9.34156e-07 8.76275e-06 0)
(-9.8528e-07 8.82968e-06 0)
(-1.02953e-06 8.89714e-06 0)
(-1.0672e-06 8.96431e-06 0)
(-1.09862e-06 9.03045e-06 0)
(-1.12419e-06 9.09491e-06 0)
(-1.14437e-06 9.15708e-06 0)
(-1.15963e-06 9.21646e-06 0)
(-1.17043e-06 9.27262e-06 0)
(-1.17727e-06 9.32521e-06 0)
(-1.18058e-06 9.37393e-06 0)
(-1.18081e-06 9.41855e-06 0)
(-1.17834e-06 9.45889e-06 0)
(-1.17353e-06 9.49482e-06 0)
(-1.16666e-06 9.52623e-06 0)
(-1.15796e-06 9.55305e-06 0)
(-1.14761e-06 9.57524e-06 0)
(-1.13572e-06 9.59278e-06 0)
(-1.12231e-06 9.60566e-06 0)
(-1.10735e-06 9.61391e-06 0)
(-1.09073e-06 9.61759e-06 0)
(-1.07224e-06 9.61681e-06 0)
(-1.05164e-06 9.61173e-06 0)
(-1.02859e-06 9.60261e-06 0)
(-1.00272e-06 9.58982e-06 0)
(-9.73629e-07 9.57385e-06 0)
(-9.4094e-07 9.55541e-06 0)
(-9.04256e-07 9.53516e-06 0)
(-4.67601e-07 3.25863e-06 0)
(-8.64062e-09 7.37918e-09 0)
(-4.98038e-08 8.48071e-06 0)
(-1.48067e-07 8.4896e-06 0)
(-2.43247e-07 8.50679e-06 0)
(-3.34606e-07 8.53161e-06 0)
(-4.21523e-07 8.56332e-06 0)
(-5.03489e-07 8.60115e-06 0)
(-5.80109e-07 8.64429e-06 0)
(-6.51095e-07 8.6919e-06 0)
(-7.16267e-07 8.74316e-06 0)
(-7.75546e-07 8.79726e-06 0)
(-8.28945e-07 8.85339e-06 0)
(-8.76564e-07 8.9108e-06 0)
(-9.1858e-07 8.96877e-06 0)
(-9.55237e-07 9.02662e-06 0)
(-9.86833e-07 9.08374e-06 0)
(-1.01371e-06 9.13956e-06 0)
(-1.03625e-06 9.1936e-06 0)
(-1.05483e-06 9.24539e-06 0)
(-1.06987e-06 9.29457e-06 0)
(-1.08178e-06 9.34079e-06 0)
(-1.09093e-06 9.38376e-06 0)
(-1.09771e-06 9.42324e-06 0)
(-1.10246e-06 9.45899e-06 0)
(-1.1055e-06 9.49083e-06 0)
(-1.10708e-06 9.51857e-06 0)
(-1.10743e-06 9.54205e-06 0)
(-1.10671e-06 9.56107e-06 0)
(-1.10502e-06 9.57549e-06 0)
(-1.10236e-06 9.58511e-06 0)
(-1.09868e-06 9.58975e-06 0)
(-1.09379e-06 9.58921e-06 0)
(-1.08738e-06 9.58333e-06 0)
(-1.07901e-06 9.57192e-06 0)
(-1.06806e-06 9.55488e-06 0)
(-1.05372e-06 9.53215e-06 0)
(-1.03497e-06 9.50385e-06 0)
(-1.01055e-06 9.47029e-06 0)
(-9.78882e-07 9.43176e-06 0)
(-5.04469e-07 3.05246e-06 0)
(-7.79916e-09 7.00905e-09 0)
(-4.38278e-08 8.61593e-06 0)
(-1.30328e-07 8.62357e-06 0)
(-2.14194e-07 8.63835e-06 0)
(-2.94826e-07 8.65968e-06 0)
(-3.7172e-07 8.68696e-06 0)
(-4.44469e-07 8.7195e-06 0)
(-5.1276e-07 8.75664e-06 0)
(-5.76375e-07 8.79767e-06 0)
(-6.35183e-07 8.8419e-06 0)
(-6.89135e-07 8.88864e-06 0)
(-7.38263e-07 8.93724e-06 0)
(-7.82668e-07 8.98705e-06 0)
(-8.22514e-07 9.03748e-06 0)
(-8.58019e-07 9.08798e-06 0)
(-8.89447e-07 9.13801e-06 0)
(-9.17099e-07 9.18712e-06 0)
(-9.41304e-07 9.23488e-06 0)
(-9.6241e-07 9.28091e-06 0)
(-9.80777e-07 9.32486e-06 0)
(-9.96772e-07 9.36643e-06 0)
(-1.01075e-06 9.40534e-06 0)
(-1.02308e-06 9.44135e-06 0)
(-1.03409e-06 9.47421e-06 0)
(-1.04411e-06 9.50371e-06 0)
(-1.05344e-06 9.5296e-06 0)
(-1.06234e-06 9.55165e-06 0)
(-1.07104e-06 9.5696e-06 0)
(-1.07974e-06 9.58315e-06 0)
(-1.08855e-06 9.59195e-06 0)
(-1.09754e-06 9.5956e-06 0)
(-1.10664e-06 9.59362e-06 0)
(-1.11569e-06 9.58546e-06 0)
(-1.12433e-06 9.57043e-06 0)
(-1.13196e-06 9.54778e-06 0)
(-1.13769e-06 9.51661e-06 0)
(-1.14018e-06 9.47593e-06 0)
(-1.13756e-06 9.42466e-06 0)
(-1.12704e-06 9.3613e-06 0)
(-5.82497e-07 2.81742e-06 0)
(-6.81047e-09 6.62761e-09 0)
(-3.86729e-08 8.73508e-06 0)
(-1.15024e-07 8.74169e-06 0)
(-1.89122e-07 8.75449e-06 0)
(-2.60482e-07 8.77298e-06 0)
(-3.28695e-07 8.79663e-06 0)
(-3.93438e-07 8.82488e-06 0)
(-4.54466e-07 8.85715e-06 0)
(-5.11611e-07 8.89286e-06 0)
(-5.6478e-07 8.93142e-06 0)
(-6.13951e-07 8.97227e-06 0)
(-6.59164e-07 9.01485e-06 0)
(-7.00522e-07 9.05864e-06 0)
(-7.38176e-07 9.10314e-06 0)
(-7.72325e-07 9.14788e-06 0)
(-8.03208e-07 9.19244e-06 0)
(-8.31095e-07 9.23643e-06 0)
(-8.56283e-07 9.27949e-06 0)
(-8.7909e-07 9.32129e-06 0)
(-8.99849e-07 9.36156e-06 0)
(-9.18904e-07 9.40002e-06 0)
(-9.36606e-07 9.43644e-06 0)
(-9.53314e-07 9.4706e-06 0)
(-9.69386e-07 9.50227e-06 0)
(-9.85186e-07 9.53126e-06 0)
(-1.00108e-06 9.55734e-06 0)
(-1.01743e-06 9.58027e-06 0)
(-1.0346e-06 9.59979e-06 0)
(-1.05296e-06 9.61557e-06 0)
(-1.07289e-06 9.62722e-06 0)
(-1.09475e-06 9.63427e-06 0)
(-1.11889e-06 9.63609e-06 0)
(-1.14563e-06 9.63192e-06 0)
(-1.17527e-06 9.62076e-06 0)
(-1.20799e-06 9.60132e-06 0)
(-1.24383e-06 9.57195e-06 0)
(-1.28257e-06 9.5305e-06 0)
(-1.32356e-06 9.47417e-06 0)
(-1.36519e-06 9.39875e-06 0)
(-7.14613e-07 2.57338e-06 0)
(-5.64637e-09 6.28051e-09 0)
(-3.41895e-08 8.8403e-06 0)
(-1.0171e-07 8.84608e-06 0)
(-1.67301e-07 8.85726e-06 0)
(-2.30568e-07 8.87343e-06 0)
(-2.91183e-07 8.89413e-06 0)
(-3.48887e-07 8.91889e-06 0)
(-4.0349e-07 8.94723e-06 0)
(-4.54863e-07 8.97864e-06 0)
(-5.02942e-07 9.01266e-06 0)
(-5.47723e-07 9.04879e-06 0)
(-5.89252e-07 9.08659e-06 0)
(-6.27627e-07 9.12562e-06 0)
(-6.62992e-07 9.16547e-06 0)
(-6.95528e-07 9.20576e-06 0)
(-7.25449e-07 9.24614e-06 0)
(-7.53001e-07 9.28629e-06 0)
(-7.78455e-07 9.32592e-06 0)
(-8.02101e-07 9.36478e-06 0)
(-8.24249e-07 9.40262e-06 0)
(-8.45226e-07 9.43926e-06 0)
(-8.65372e-07 9.47449e-06 0)
(-8.85044e-07 9.50817e-06 0)
(-9.04616e-07 9.54013e-06 0)
(-9.24482e-07 9.57024e-06 0)
(-9.45061e-07 9.59835e-06 0)
(-9.66804e-07 9.62431e-06 0)
(-9.90204e-07 9.64797e-06 0)
(-1.01581e-06 9.66913e-06 0)
(-1.04424e-06 9.68757e-06 0)
(-1.07621e-06 9.70299e-06 0)
(-1.11255e-06 9.715e-06 0)
(-1.15426e-06 9.72312e-06 0)
(-1.20255e-06 9.72667e-06 0)
(-1.2589e-06 9.72474e-06 0)
(-1.32514e-06 9.71608e-06 0)
(-1.40358e-06 9.699e-06 0)
(-1.49715e-06 9.67113e-06 0)
(-1.60908e-06 9.62829e-06 0)
(-8.55688e-07 2.37791e-06 0)
(-4.47386e-09 6.05807e-09 0)
(-3.02543e-08 8.93337e-06 0)
(-9.00207e-08 8.93846e-06 0)
(-1.48129e-07 8.94833e-06 0)
(-2.04259e-07 8.9626e-06 0)
(-2.58146e-07 8.98091e-06 0)
(-3.09585e-07 9.00283e-06 0)
(-3.58423e-07 9.02798e-06 0)
(-4.04564e-07 9.05593e-06 0)
(-4.47965e-07 9.08628e-06 0)
(-4.88629e-07 9.11865e-06 0)
(-5.26609e-07 9.15264e-06 0)
(-5.61995e-07 9.18791e-06 0)
(-5.94919e-07 9.22413e-06 0)
(-6.25542e-07 9.26098e-06 0)
(-6.54059e-07 9.29818e-06 0)
(-6.80687e-07 9.33548e-06 0)
(-7.05669e-07 9.37265e-06 0)
(-7.29266e-07 9.4095e-06 0)
(-7.51758e-07 9.44587e-06 0)
(-7.73442e-07 9.4816e-06 0)
(-7.94634e-07 9.51658e-06 0)
(-8.15666e-07 9.55071e-06 0)
(-8.36892e-07 9.58394e-06 0)
(-8.58694e-07 9.61621e-06 0)
(-8.81484e-07 9.6475e-06 0)
(-9.05716e-07 9.67782e-06 0)
(-9.319e-07 9.70718e-06 0)
(-9.60618e-07 9.73563e-06 0)
(-9.92545e-07 9.76325e-06 0)
(-1.02848e-06 9.79015e-06 0)
(-1.06941e-06 9.81646e-06 0)
(-1.1165e-06 9.84238e-06 0)
(-1.17128e-06 9.86815e-06 0)
(-1.23564e-06 9.8941e-06 0)
(-1.31205e-06 9.92067e-06 0)
(-1.40375e-06 9.94843e-06 0)
(-1.51502e-06 9.97818e-06 0)
(-1.65076e-06 1.00095e-05 0)
(-8.82752e-07 2.25367e-06 0)
(-3.79597e-09 5.98478e-09 0)
(-2.67674e-08 9.01572e-06 0)
(-7.96585e-08 9.02025e-06 0)
(-1.3112e-07 9.02904e-06 0)
(-1.8089e-07 9.04176e-06 0)
(-2.28754e-07 9.0581e-06 0)
(-2.74545e-07 9.07772e-06 0)
(-3.18142e-07 9.10026e-06 0)
(-3.59471e-07 9.1254e-06 0)
(-3.985e-07 9.15279e-06 0)
(-4.35241e-07 9.18212e-06 0)
(-4.69741e-07 9.21306e-06 0)
(-5.02085e-07 9.24534e-06 0)
(-5.32386e-07 9.27868e-06 0)
(-5.60789e-07 9.31284e-06 0)
(-5.8746e-07 9.3476e-06 0)
(-6.12589e-07 9.38275e-06 0)
(-6.36386e-07 9.41814e-06 0)
(-6.59076e-07 9.45362e-06 0)
(-6.80898e-07 9.48908e-06 0)
(-7.02106e-07 9.52443e-06 0)
(-7.22968e-07 9.55962e-06 0)
(-7.43763e-07 9.59463e-06 0)
(-7.64786e-07 9.62945e-06 0)
(-7.86347e-07 9.66413e-06 0)
(-8.08776e-07 9.69877e-06 0)
(-8.32428e-07 9.73348e-06 0)
(-8.57686e-07 9.76845e-06 0)
(-8.84973e-07 9.80395e-06 0)
(-9.14758e-07 9.8403e-06 0)
(-9.47569e-07 9.87796e-06 0)
(-9.84008e-07 9.91749e-06 0)
(-1.02476e-06 9.95966e-06 0)
(-1.07063e-06 1.00055e-05 0)
(-1.12253e-06 1.00562e-05 0)
(-1.18153e-06 1.01135e-05 0)
(-1.24881e-06 1.01798e-05 0)
(-1.32571e-06 1.0258e-05 0)
(-1.41254e-06 1.03498e-05 0)
(-7.4925e-07 2.13864e-06 0)
(-4.00253e-09 5.91413e-09 0)
(-2.36494e-08 9.08853e-06 0)
(-7.03882e-08 9.0926e-06 0)
(-1.15889e-07 9.10049e-06 0)
(-1.59936e-07 9.11193e-06 0)
(-2.0235e-07 9.12665e-06 0)
(-2.42995e-07 9.14436e-06 0)
(-2.81771e-07 9.16477e-06 0)
(-3.18619e-07 9.1876e-06 0)
(-3.53514e-07 9.21256e-06 0)
(-3.86468e-07 9.23939e-06 0)
(-4.17524e-07 9.26785e-06 0)
(-4.46752e-07 9.29769e-06 0)
(-4.74252e-07 9.32871e-06 0)
(-5.00142e-07 9.36071e-06 0)
(-5.24565e-07 9.39351e-06 0)
(-5.47678e-07 9.42697e-06 0)
(-5.69655e-07 9.46098e-06 0)
(-5.90678e-07 9.49542e-06 0)
(-6.10943e-07 9.53023e-06 0)
(-6.30649e-07 9.56537e-06 0)
(-6.50003e-07 9.60082e-06 0)
(-6.69212e-07 9.6366e-06 0)
(-6.88488e-07 9.67276e-06 0)
(-7.08036e-07 9.70939e-06 0)
(-7.28063e-07 9.74663e-06 0)
(-7.48766e-07 9.78465e-06 0)
(-7.70333e-07 9.82371e-06 0)
(-7.92936e-07 9.86412e-06 0)
(-8.16723e-07 9.9063e-06 0)
(-8.41807e-07 9.95076e-06 0)
(-8.68248e-07 9.99815e-06 0)
(-8.96031e-07 1.00493e-05 0)
(-9.25022e-07 1.01052e-05 0)
(-9.54919e-07 1.0167e-05 0)
(-9.85168e-07 1.02365e-05 0)
(-1.01484e-06 1.03154e-05 0)
(-1.04248e-06 1.04062e-05 0)
(-1.0648e-06 1.05083e-05 0)
(-5.57554e-07 1.99786e-06 0)
(-4.79138e-09 5.69084e-09 0)
(-2.08384e-08 9.15278e-06 0)
(-6.20267e-08 9.15646e-06 0)
(-1.02138e-07 9.1636e-06 0)
(-1.40989e-07 9.17397e-06 0)
(-1.7843e-07 9.18733e-06 0)
(-2.14344e-07 9.20344e-06 0)
(-2.48646e-07 9.22205e-06 0)
(-2.81284e-07 9.24293e-06 0)
(-3.12238e-07 9.26586e-06 0)
(-3.41515e-07 9.2906e-06 0)
(-3.69149e-07 9.31697e-06 0)
(-3.95197e-07 9.34476e-06 0)
(-4.19738e-07 9.37382e-06 0)
(-4.42872e-07 9.40399e-06 0)
(-4.6471e-07 9.43513e-06 0)
(-4.8538e-07 9.46715e-06 0)
(-5.05019e-07 9.49995e-06 0)
(-5.23771e-07 9.53346e-06 0)
(-5.41784e-07 9.56763e-06 0)
(-5.59207e-07 9.60246e-06 0)
(-5.76186e-07 9.63794e-06 0)
(-5.9286e-07 9.67409e-06 0)
(-6.0936e-07 9.71098e-06 0)
(-6.25796e-07 9.74869e-06 0)
(-6.42258e-07 9.78735e-06 0)
(-6.58808e-07 9.82709e-06 0)
(-6.75464e-07 9.86813e-06 0)
(-6.92198e-07 9.9107e-06 0)
(-7.08911e-07 9.9551e-06 0)
(-7.25423e-07 1.00017e-05 0)
(-7.41446e-07 1.00508e-05 0)
(-7.56552e-07 1.01031e-05 0)
(-7.70137e-07 1.0159e-05 0)
(-7.81377e-07 1.02191e-05 0)
(-7.89165e-07 1.02841e-05 0)
(-7.92047e-07 1.03546e-05 0)
(-7.88142e-07 1.04313e-05 0)
(-7.74284e-07 1.05106e-05 0)
(-4.03286e-07 1.8735e-06 0)
(-5.59972e-09 5.32902e-09 0)
(-1.82877e-08 9.20928e-06 0)
(-5.44354e-08 9.21263e-06 0)
(-8.96415e-08 9.21913e-06 0)
(-1.23746e-07 9.22858e-06 0)
(-1.56619e-07 9.24077e-06 0)
(-1.88155e-07 9.2555e-06 0)
(-2.18281e-07 9.27257e-06 0)
(-2.46946e-07 9.29177e-06 0)
(-2.74129e-07 9.31293e-06 0)
(-2.9983e-07 9.33586e-06 0)
(-3.24072e-07 9.36039e-06 0)
(-3.46899e-07 9.38638e-06 0)
(-3.6837e-07 9.4137e-06 0)
(-3.88562e-07 9.44222e-06 0)
(-4.07563e-07 9.47185e-06 0)
(-4.25471e-07 9.50251e-06 0)
(-4.42391e-07 9.53412e-06 0)
(-4.58433e-07 9.56664e-06 0)
(-4.73709e-07 9.60005e-06 0)
(-4.88326e-07 9.63432e-06 0)
(-5.02385e-07 9.66946e-06 0)
(-5.15979e-07 9.70549e-06 0)
(-5.29181e-07 9.74244e-06 0)
(-5.42044e-07 9.78035e-06 0)
(-5.54592e-07 9.8193e-06 0)
(-5.66809e-07 9.85935e-06 0)
(-5.78636e-07 9.90059e-06 0)
(-5.89955e-07 9.94312e-06 0)
(-6.00577e-07 9.98703e-06 0)
(-6.10232e-07 1.00324e-05 0)
(-6.18552e-07 1.00794e-05 0)
(-6.25056e-07 1.01281e-05 0)
(-6.29136e-07 1.01785e-05 0)
(-6.30042e-07 1.02307e-05 0)
(-6.26877e-07 1.02845e-05 0)
(-6.18591e-07 1.03397e-05 0)
(-6.03994e-07 1.03958e-05 0)
(-5.81269e-07 1.04481e-05 0)
(-3.05477e-07 1.80365e-06 0)
(-6.16036e-09 4.91944e-09 0)
(-1.59627e-08 9.25874e-06 0)
(-4.75128e-08 9.2618e-06 0)
(-7.82349e-08 9.26773e-06 0)
(-1.07986e-07 9.27637e-06 0)
(-1.36646e-07 9.28753e-06 0)
(-1.6412e-07 9.30104e-06 0)
(-1.90337e-07 9.31673e-06 0)
(-2.15247e-07 9.33444e-06 0)
(-2.38823e-07 9.354e-06 0)
(-2.61058e-07 9.37528e-06 0)
(-2.81963e-07 9.39814e-06 0)
(-3.01565e-07 9.42246e-06 0)
(-3.19906e-07 9.44814e-06 0)
(-3.37042e-07 9.47509e-06 0)
(-3.53038e-07 9.50322e-06 0)
(-3.67969e-07 9.53249e-06 0)
(-3.81914e-07 9.56284e-06 0)
(-3.94958e-07 9.59423e-06 0)