/*--------------------------------*- C++ -*----------------------------------*\
  =========                 |
  \\      /  F ield         | OpenFOAM: The Open Source CFD Toolbox
   \\    /   O peration     | Website:  https://openfoam.org
    \\  /    A nd           | Version:  7
     \\/     M anipulation  |
\*---------------------------------------------------------------------------*/
FoamFile
{
    version     2.0;
    format      ascii;
    class       volVectorField;
    location    "15000";
    object      Ub;
}
// * * * * * * * * * * * * * * * * * * * * * * * * * * * * * * * * * * * * * //

dimensions      [0 1 -1 0 0 0 0];

internalField   nonuniform List<vector> 
3200
(
(-5.97198e-21 -9.8789e-16 0)
(-1.78871e-20 -9.8789e-16 0)
(-2.98192e-20 -9.8789e-16 0)
(-4.19186e-20 -9.87889e-16 0)
(-5.43422e-20 -9.87889e-16 0)
(-6.72625e-20 -9.87888e-16 0)
(-8.08792e-20 -9.87887e-16 0)
(-9.54341e-20 -9.87886e-16 0)
(-1.11232e-19 -9.87885e-16 0)
(-1.28668e-19 -9.87883e-16 0)
(-1.48281e-19 -9.87881e-16 0)
(-1.70818e-19 -9.87877e-16 0)
(-1.9736e-19 -9.87873e-16 0)
(-2.29522e-19 -9.87866e-16 0)
(-2.69803e-19 -9.87857e-16 0)
(-3.22206e-19 -9.87842e-16 0)
(-3.93371e-19 -9.87819e-16 0)
(-4.94678e-19 -9.87782e-16 0)
(-6.4622e-19 -9.87717e-16 0)
(-2.89146e-17 -9.87602e-16 0)
(-2.32882e-06 -2.76552e-14 0)
(-5.20581e-05 -5.01759e-05 0)
(-0.000101817 -1.31543e-05 0)
(-0.000105181 -5.8799e-06 0)
(-0.000106843 -3.53221e-06 0)
(-0.000107988 -2.37516e-06 0)
(-0.000108862 -1.70449e-06 0)
(-0.000109563 -1.2789e-06 0)
(-0.000110143 -9.9291e-07 0)
(-0.000110633 -7.91529e-07 0)
(-0.000111054 -6.44806e-07 0)
(-0.00011142 -5.34882e-07 0)
(-0.000111742 -4.50418e-07 0)
(-0.000112028 -3.83998e-07 0)
(-0.000111832 -1.52205e-06 0)
(-0.000105046 -1.79417e-05 0)
(-9.14646e-05 -2.00111e-05 0)
(-7.57951e-05 -2.42464e-05 0)
(-5.56605e-05 -3.32588e-05 0)
(-2.7304e-05 -4.8744e-05 0)
(-5.80846e-21 -9.87873e-16 0)
(-1.73894e-20 -9.87873e-16 0)
(-2.8963e-20 -9.87872e-16 0)
(-4.06573e-20 -9.87871e-16 0)
(-5.26021e-20 -9.8787e-16 0)
(-6.49344e-20 -9.87868e-16 0)
(-7.78041e-20 -9.87865e-16 0)
(-9.13801e-20 -9.87862e-16 0)
(-1.05856e-19 -9.87859e-16 0)
(-1.21456e-19 -9.87854e-16 0)
(-1.38438e-19 -9.87847e-16 0)
(-1.57084e-19 -9.87839e-16 0)
(-1.77675e-19 -9.87828e-16 0)
(-2.00414e-19 -9.87812e-16 0)
(-2.25228e-19 -9.87791e-16 0)
(-2.51325e-19 -9.87761e-16 0)
(-2.76198e-19 -9.87718e-16 0)
(-2.93443e-19 -9.87653e-16 0)
(-2.88052e-19 -9.87556e-16 0)
(-2.2634e-19 -9.87407e-16 0)
(-3.54436e-20 -9.87175e-16 0)
(1.89093e-19 -9.76753e-16 0)
(2.26081e-19 -9.31496e-16 0)
(1.43826e-19 -8.90626e-16 0)
(8.14892e-20 -8.52336e-16 0)
(3.03416e-20 -8.15941e-16 0)
(-1.56215e-20 -7.81074e-16 0)
(-6.07558e-20 -7.475e-16 0)
(-1.08943e-19 -7.15055e-16 0)
(-1.64533e-19 -6.83618e-16 0)
(-2.33337e-19 -6.53097e-16 0)
(-3.23976e-19 -6.23417e-16 0)
(-6.2083e-19 -5.94514e-16 0)
(-7.38894e-08 -6.13669e-16 0)
(-2.26971e-05 -1.19165e-06 0)
(-5.35001e-05 -1.76565e-05 0)
(-6.95872e-05 -1.97644e-05 0)
(-8.64032e-05 -2.40329e-05 0)
(-0.000103752 -4.30422e-05 0)
(-5.94833e-05 -0.00024956 0)
(-5.50274e-21 -9.87857e-16 0)
(-1.64607e-20 -9.87856e-16 0)
(-2.73707e-20 -9.87855e-16 0)
(-3.83243e-20 -9.87854e-16 0)
(-4.94083e-20 -9.87852e-16 0)
(-6.07056e-20 -9.87849e-16 0)
(-7.22945e-20 -9.87845e-16 0)
(-8.42459e-20 -9.87841e-16 0)
(-9.6617e-20 -9.87836e-16 0)
(-1.09438e-19 -9.87829e-16 0)
(-1.2269e-19 -9.8782e-16 0)
(-1.36264e-19 -9.8781e-16 0)
(-1.49894e-19 -9.87796e-16 0)
(-1.63044e-19 -9.87779e-16 0)
(-1.74739e-19 -9.87757e-16 0)
(-1.83305e-19 -9.8773e-16 0)
(-1.86047e-19 -9.87696e-16 0)
(-1.78934e-19 -9.87655e-16 0)
(-1.56675e-19 -9.87609e-16 0)
(-1.14185e-19 -9.87565e-16 0)
(-5.212e-20 -9.8754e-16 0)
(7.2854e-21 -9.87576e-16 0)
(3.50069e-20 -9.87647e-16 0)
(3.30586e-20 -9.87693e-16 0)
(1.82594e-20 -9.87721e-16 0)
(-1.89858e-21 -9.87738e-16 0)
(-2.4029e-20 -9.87745e-16 0)
(-4.63664e-20 -9.87744e-16 0)
(-6.74649e-20 -9.87735e-16 0)
(-8.52543e-20 -9.87716e-16 0)
(-9.59552e-20 -9.87686e-16 0)
(-9.2386e-20 -9.8764e-16 0)
(-6.10249e-20 -9.87572e-16 0)
(2.3179e-20 -9.87473e-16 0)
(1.05346e-19 -9.86377e-16 0)
(9.77569e-20 -9.68177e-16 0)
(3.95302e-20 -9.47897e-16 0)
(-4.0649e-09 -1.25922e-15 0)
(-4.51642e-06 -1.07599e-05 0)
(-3.08033e-06 -0.000419886 0)
(-5.09124e-21 -9.87841e-16 0)
(-1.52137e-20 -9.87841e-16 0)
(-2.52438e-20 -9.87839e-16 0)
(-3.52325e-20 -9.87838e-16 0)
(-4.52218e-20 -9.87835e-16 0)
(-5.52418e-20 -9.87832e-16 0)
(-6.5307e-20 -9.87828e-16 0)
(-7.54095e-20 -9.87823e-16 0)
(-8.55091e-20 -9.87817e-16 0)
(-9.55179e-20 -9.87809e-16 0)
(-1.05279e-19 -9.878e-16 0)
(-1.14538e-19 -9.8779e-16 0)
(-1.22903e-19 -9.87777e-16 0)
(-1.29799e-19 -9.87762e-16 0)
(-1.34429e-19 -9.87744e-16 0)
(-1.35745e-19 -9.87725e-16 0)
(-1.32503e-19 -9.87703e-16 0)
(-1.23444e-19 -9.8768e-16 0)
(-1.07753e-19 -9.87659e-16 0)
(-8.58728e-20 -9.87644e-16 0)
(-6.06187e-20 -9.87639e-16 0)
(-3.77345e-20 -9.87648e-16 0)
(-2.27499e-20 -9.87666e-16 0)
(-1.67168e-20 -9.87683e-16 0)
(-1.74116e-20 -9.87697e-16 0)
(-2.23231e-20 -9.87706e-16 0)
(-2.93347e-20 -9.8771e-16 0)
(-3.66984e-20 -9.8771e-16 0)
(-4.28447e-20 -9.87705e-16 0)
(-4.62105e-20 -9.87695e-16 0)
(-4.51779e-20 -9.87683e-16 0)
(-3.82504e-20 -9.87669e-16 0)
(-2.47232e-20 -9.87657e-16 0)
(-6.37679e-21 -9.87653e-16 0)
(8.78129e-21 -9.87672e-16 0)
(1.28093e-20 -9.87697e-16 0)
(7.97229e-21 -9.87711e-16 0)
(-4.22633e-12 -9.93285e-16 0)
(-4.39926e-07 -1.40099e-06 0)
(-1.85463e-07 -0.000440042 0)
(-4.61615e-21 -9.87827e-16 0)
(-1.37783e-20 -9.87827e-16 0)
(-2.28101e-20 -9.87825e-16 0)
(-3.17267e-20 -9.87823e-16 0)
(-4.05332e-20 -9.87821e-16 0)
(-4.92204e-20 -9.87817e-16 0)
(-5.77609e-20 -9.87813e-16 0)
(-6.61023e-20 -9.87808e-16 0)
(-7.41603e-20 -9.87802e-16 0)
(-8.18087e-20 -9.87795e-16 0)
(-8.88692e-20 -9.87786e-16 0)
(-9.51005e-20 -9.87777e-16 0)
(-1.0019e-19 -9.87766e-16 0)
(-1.03751e-19 -9.87754e-16 0)
(-1.05342e-19 -9.87741e-16 0)
(-1.04499e-19 -9.87727e-16 0)
(-1.00829e-19 -9.87713e-16 0)
(-9.41312e-20 -9.877e-16 0)
(-8.45893e-20 -9.87689e-16 0)
(-7.29498e-20 -9.87681e-16 0)
(-6.0597e-20 -9.87678e-16 0)
(-4.93173e-20 -9.87679e-16 0)
(-4.06088e-20 -9.87684e-16 0)
(-3.50366e-20 -9.8769e-16 0)
(-3.22949e-20 -9.87695e-16 0)
(-3.16405e-20 -9.87699e-16 0)
(-3.21926e-20 -9.87701e-16 0)
(-3.30823e-20 -9.877e-16 0)
(-3.35221e-20 -9.87699e-16 0)
(-3.28553e-20 -9.87695e-16 0)
(-3.06274e-20 -9.87691e-16 0)
(-2.67016e-20 -9.87688e-16 0)
(-2.14136e-20 -9.87686e-16 0)
(-1.57003e-20 -9.87686e-16 0)
(-1.10009e-20 -9.8769e-16 0)
(-8.42725e-21 -9.87696e-16 0)
(-8.00213e-21 -9.87701e-16 0)
(-1.36234e-11 -9.95418e-16 0)
(-3.07136e-07 -1.23346e-06 0)
(-1.11375e-07 -0.000443899 0)
(-4.11707e-21 -9.87815e-16 0)
(-1.22751e-20 -9.87814e-16 0)
(-2.0277e-20 -9.87813e-16 0)
(-2.81112e-20 -9.87811e-16 0)
(-3.57577e-20 -9.87808e-16 0)
(-4.31842e-20 -9.87805e-16 0)
(-5.03429e-20 -9.878e-16 0)
(-5.71663e-20 -9.87796e-16 0)
(-6.35638e-20 -9.8779e-16 0)
(-6.94182e-20 -9.87784e-16 0)
(-7.45835e-20 -9.87776e-16 0)
(-7.88851e-20 -9.87768e-16 0)
(-8.2125e-20 -9.8776e-16 0)
(-8.40939e-20 -9.8775e-16 0)
(-8.45923e-20 -9.87741e-16 0)
(-8.34652e-20 -9.87731e-16 0)
(-8.0647e-20 -9.87722e-16 0)
(-7.6214e-20 -9.87713e-16 0)
(-7.04301e-20 -9.87706e-16 0)
(-6.37625e-20 -9.87701e-16 0)
(-5.68382e-20 -9.87698e-16 0)
(-5.03224e-20 -9.87697e-16 0)
(-4.47428e-20 -9.87697e-16 0)
(-4.03571e-20 -9.87698e-16 0)
(-3.71435e-20 -9.877e-16 0)
(-3.48818e-20 -9.87701e-16 0)
(-3.32471e-20 -9.87701e-16 0)
(-3.18883e-20 -9.87701e-16 0)
(-3.04861e-20 -9.877e-16 0)
(-2.8798e-20 -9.87699e-16 0)
(-2.66948e-20 -9.87698e-16 0)
(-2.41872e-20 -9.87697e-16 0)
(-2.1434e-20 -9.87697e-16 0)
(-1.87144e-20 -9.87697e-16 0)
(-1.63463e-20 -9.87698e-16 0)
(-1.45562e-20 -9.877e-16 0)
(-1.34458e-20 -9.87701e-16 0)
(-1.82371e-11 -9.9651e-16 0)
(-2.9945e-07 -1.2813e-06 0)
(-1.07312e-07 -0.000447139 0)
(-3.62563e-21 -9.87803e-16 0)
(-1.07992e-20 -9.87803e-16 0)
(-1.78044e-20 -9.87801e-16 0)
(-2.46127e-20 -9.878e-16 0)
(-3.11901e-20 -9.87797e-16 0)
(-3.7494e-20 -9.87794e-16 0)
(-4.34716e-20 -9.8779e-16 0)
(-4.90578e-20 -9.87786e-16 0)
(-5.41746e-20 -9.87781e-16 0)
(-5.87305e-20 -9.87775e-16 0)
(-6.26232e-20 -9.87769e-16 0)
(-6.57432e-20 -9.87763e-16 0)
(-6.79811e-20 -9.87756e-16 0)
(-6.92388e-20 -9.87749e-16 0)
(-6.94443e-20 -9.87741e-16 0)
(-6.85691e-20 -9.87734e-16 0)
(-6.66469e-20 -9.87728e-16 0)
(-6.37882e-20 -9.87722e-16 0)
(-6.01845e-20 -9.87716e-16 0)
(-5.60976e-20 -9.87712e-16 0)
(-5.18274e-20 -9.87709e-16 0)
(-4.76634e-20 -9.87707e-16 0)
(-4.38325e-20 -9.87706e-16 0)
(-4.04636e-20 -9.87706e-16 0)
(-3.75828e-20 -9.87705e-16 0)
(-3.51334e-20 -9.87705e-16 0)
(-3.30076e-20 -9.87705e-16 0)
(-3.10785e-20 -9.87705e-16 0)
(-2.92281e-20 -9.87704e-16 0)
(-2.73688e-20 -9.87704e-16 0)
(-2.54565e-20 -9.87703e-16 0)
(-2.34958e-20 -9.87703e-16 0)
(-2.15338e-20 -9.87703e-16 0)
(-1.96445e-20 -9.87703e-16 0)
(-1.79027e-20 -9.87703e-16 0)
(-1.63578e-20 -9.87704e-16 0)
(-1.5085e-20 -9.87704e-16 0)
(-2.06129e-11 -9.97256e-16 0)
(-3.01203e-07 -1.35278e-06 0)
(-1.09853e-07 -0.000450337 0)
(-3.1637e-21 -9.87794e-16 0)
(-9.41566e-21 -9.87793e-16 0)
(-1.54985e-20 -9.87792e-16 0)
(-2.13752e-20 -9.8779e-16 0)
(-2.70057e-20 -9.87788e-16 0)
(-3.23462e-20 -9.87785e-16 0)
(-3.73471e-20 -9.87782e-16 0)
(-4.19533e-20 -9.87778e-16 0)
(-4.61042e-20 -9.87774e-16 0)
(-4.97352e-20 -9.87769e-16 0)
(-5.27808e-20 -9.87764e-16 0)
(-5.51782e-20 -9.87759e-16 0)
(-5.68732e-20 -9.87753e-16 0)
(-5.78272e-20 -9.87747e-16 0)
(-5.8025e-20 -9.87742e-16 0)
(-5.74818e-20 -9.87736e-16 0)
(-5.62493e-20 -9.87731e-16 0)
(-5.44175e-20 -9.87727e-16 0)
(-5.21107e-20 -9.87723e-16 0)
(-4.94773e-20 -9.87719e-16 0)
(-4.66737e-20 -9.87717e-16 0)
(-4.38442e-20 -9.87715e-16 0)
(-4.11038e-20 -9.87713e-16 0)
(-3.85268e-20 -9.87712e-16 0)
(-3.61453e-20 -9.87711e-16 0)
(-3.39556e-20 -9.8771e-16 0)
(-3.19295e-20 -9.8771e-16 0)
(-3.00276e-20 -9.87709e-16 0)
(-2.82101e-20 -9.87709e-16 0)
(-2.64463e-20 -9.87708e-16 0)
(-2.47192e-20 -9.87708e-16 0)
(-2.30268e-20 -9.87707e-16 0)
(-2.13793e-20 -9.87707e-16 0)
(-1.97935e-20 -9.87707e-16 0)
(-1.82852e-20 -9.87707e-16 0)
(-1.68632e-20 -9.87707e-16 0)
(-1.55999e-20 -9.87708e-16 0)
(-2.26884e-11 -9.98123e-16 0)
(-3.0304e-07 -1.4449e-06 0)
(-1.12208e-07 -0.000453528 0)
(-2.74398e-21 -9.87785e-16 0)
(-8.16136e-21 -9.87785e-16 0)
(-1.34174e-20 -9.87783e-16 0)
(-1.84722e-20 -9.87782e-16 0)
(-2.32857e-20 -9.8778e-16 0)
(-2.78168e-20 -9.87777e-16 0)
(-3.20229e-20 -9.87775e-16 0)
(-3.58604e-20 -9.87771e-16 0)
(-3.92848e-20 -9.87768e-16 0)
(-4.22531e-20 -9.87764e-16 0)
(-4.47255e-20 -9.8776e-16 0)
(-4.66687e-20 -9.87755e-16 0)
(-4.8059e-20 -9.87751e-16 0)
(-4.88864e-20 -9.87746e-16 0)
(-4.91578e-20 -9.87742e-16 0)
(-4.88991e-20 -9.87738e-16 0)
(-4.81568e-20 -9.87734e-16 0)
(-4.6996e-20 -9.8773e-16 0)
(-4.54967e-20 -9.87727e-16 0)
(-4.37474e-20 -9.87724e-16 0)
(-4.18371e-20 -9.87722e-16 0)
(-3.98468e-20 -9.8772e-16 0)
(-3.78432e-20 -9.87718e-16 0)
(-3.58742e-20 -9.87717e-16 0)
(-3.39687e-20 -9.87715e-16 0)
(-3.21389e-20 -9.87715e-16 0)
(-3.03846e-20 -9.87714e-16 0)
(-2.86983e-20 -9.87713e-16 0)
(-2.70701e-20 -9.87713e-16 0)
(-2.5491e-20 -9.87712e-16 0)
(-2.39554e-20 -9.87712e-16 0)
(-2.24612e-20 -9.87711e-16 0)
(-2.10098e-20 -9.87711e-16 0)
(-1.96041e-20 -9.87711e-16 0)
(-1.82463e-20 -9.87711e-16 0)
(-1.69371e-20 -9.87711e-16 0)
(-1.57579e-20 -9.87711e-16 0)
(-2.52641e-11 -9.99291e-16 0)
(-3.04164e-07 -1.56236e-06 0)
(-1.13733e-07 -0.000456712 0)
(-2.37192e-21 -9.87778e-16 0)
(-7.05155e-21 -9.87777e-16 0)
(-1.15828e-20 -9.87776e-16 0)
(-1.59266e-20 -9.87775e-16 0)
(-2.00459e-20 -9.87773e-16 0)
(-2.39045e-20 -9.87771e-16 0)
(-2.74674e-20 -9.87769e-16 0)
(-3.0701e-20 -9.87766e-16 0)
(-3.35738e-20 -9.87763e-16 0)
(-3.60577e-20 -9.8776e-16 0)
(-3.81298e-20 -9.87756e-16 0)
(-3.97735e-20 -9.87753e-16 0)
(-4.0981e-20 -9.87749e-16 0)
(-4.17545e-20 -9.87745e-16 0)
(-4.21078e-20 -9.87742e-16 0)
(-4.20661e-20 -9.87739e-16 0)
(-4.16662e-20 -9.87735e-16 0)
(-4.09541e-20 -9.87732e-16 0)
(-3.99827e-20 -9.8773e-16 0)
(-3.88078e-20 -9.87727e-16 0)
(-3.74842e-20 -9.87725e-16 0)
(-3.60621e-20 -9.87723e-16 0)
(-3.4584e-20 -9.87722e-16 0)
(-3.30834e-20 -9.8772e-16 0)
(-3.15839e-20 -9.87719e-16 0)
(-3.01009e-20 -9.87718e-16 0)
(-2.86429e-20 -9.87717e-16 0)
(-2.72137e-20 -9.87717e-16 0)
(-2.58141e-20 -9.87716e-16 0)
(-2.4444e-20 -9.87716e-16 0)
(-2.3103e-20 -9.87715e-16 0)
(-2.17911e-20 -9.87715e-16 0)
(-2.05088e-20 -9.87715e-16 0)
(-1.92563e-20 -9.87714e-16 0)
(-1.80336e-20 -9.87714e-16 0)
(-1.684e-20 -9.87714e-16 0)
(-1.5767e-20 -9.87714e-16 0)
(-2.82153e-11 -1.00066e-15 0)
(-3.04534e-07 -1.70011e-06 0)
(-1.14443e-07 -0.000459886 0)
(-2.04787e-21 -9.87771e-16 0)
(-6.08642e-21 -9.87771e-16 0)
(-9.99194e-21 -9.8777e-16 0)
(-1.37286e-20 -9.87769e-16 0)
(-1.72634e-20 -9.87767e-16 0)
(-2.05656e-20 -9.87766e-16 0)
(-2.36071e-20 -9.87764e-16 0)
(-2.63624e-20 -9.87761e-16 0)
(-2.88093e-20 -9.87759e-16 0)
(-3.093e-20 -9.87756e-16 0)
(-3.27112e-20 -9.87753e-16 0)
(-3.41458e-20 -9.8775e-16 0)
(-3.52334e-20 -9.87747e-16 0)
(-3.59808e-20 -9.87744e-16 0)
(-3.64024e-20 -9.87742e-16 0)
(-3.65196e-20 -9.87739e-16 0)
(-3.63604e-20 -9.87736e-16 0)
(-3.59576e-20 -9.87734e-16 0)
(-3.53473e-20 -9.87731e-16 0)
(-3.45665e-20 -9.87729e-16 0)
(-3.36515e-20 -9.87728e-16 0)
(-3.26355e-20 -9.87726e-16 0)
(-3.15476e-20 -9.87724e-16 0)
(-3.0412e-20 -9.87723e-16 0)
(-2.92475e-20 -9.87722e-16 0)
(-2.80685e-20 -9.87721e-16 0)
(-2.68851e-20 -9.8772e-16 0)
(-2.57043e-20 -9.8772e-16 0)
(-2.45307e-20 -9.87719e-16 0)
(-2.33675e-20 -9.87719e-16 0)
(-2.22169e-20 -9.87718e-16 0)
(-2.10807e-20 -9.87718e-16 0)
(-1.99599e-20 -9.87718e-16 0)
(-1.88556e-20 -9.87718e-16 0)
(-1.77683e-20 -9.87717e-16 0)
(-1.66984e-20 -9.87717e-16 0)
(-1.57505e-20 -9.87717e-16 0)
(-3.17621e-11 -1.00238e-15 0)
(-3.04113e-07 -1.86493e-06 0)
(-1.14287e-07 -0.000463045 0)
(-1.76908e-21 -9.87766e-16 0)
(-5.25701e-21 -9.87765e-16 0)
(-8.62786e-21 -9.87765e-16 0)
(-1.18499e-20 -9.87764e-16 0)
(-1.48947e-20 -9.87762e-16 0)
(-1.77367e-20 -9.87761e-16 0)
(-2.03534e-20 -9.87759e-16 0)
(-2.27256e-20 -9.87757e-16 0)
(-2.48376e-20 -9.87755e-16 0)
(-2.66779e-20 -9.87753e-16 0)
(-2.82392e-20 -9.8775e-16 0)
(-2.95193e-20 -9.87748e-16 0)
(-3.05207e-20 -9.87746e-16 0)
(-3.12514e-20 -9.87743e-16 0)
(-3.17242e-20 -9.87741e-16 0)
(-3.19565e-20 -9.87739e-16 0)
(-3.19693e-20 -9.87737e-16 0)
(-3.17866e-20 -9.87734e-16 0)
(-3.14336e-20 -9.87733e-16 0)
(-3.09362e-20 -9.87731e-16 0)
(-3.03194e-20 -9.87729e-16 0)
(-2.96065e-20 -9.87728e-16 0)
(-2.88183e-20 -9.87727e-16 0)
(-2.79724e-20 -9.87725e-16 0)
(-2.70839e-20 -9.87724e-16 0)
(-2.61647e-20 -9.87724e-16 0)
(-2.5224e-20 -9.87723e-16 0)
(-2.42691e-20 -9.87722e-16 0)
(-2.33055e-20 -9.87722e-16 0)
(-2.23372e-20 -9.87721e-16 0)
(-2.13674e-20 -9.87721e-16 0)
(-2.03985e-20 -9.87721e-16 0)
(-1.94326e-20 -9.8772e-16 0)
(-1.84713e-20 -9.8772e-16 0)
(-1.75159e-20 -9.8772e-16 0)
(-1.65679e-20 -9.8772e-16 0)
(-1.57488e-20 -9.8772e-16 0)
(-3.62961e-11 -1.00458e-15 0)
(-3.02947e-07 -2.06399e-06 0)
(-1.13293e-07 -0.000466186 0)
(-1.53109e-21 -9.87761e-16 0)
(-4.54963e-21 -9.87761e-16 0)
(-7.46639e-21 -9.8776e-16 0)
(-1.02541e-20 -9.87759e-16 0)
(-1.28885e-20 -9.87758e-16 0)
(-1.53488e-20 -9.87757e-16 0)
(-1.7617e-20 -9.87755e-16 0)
(-1.96785e-20 -9.87754e-16 0)
(-2.15222e-20 -9.87752e-16 0)
(-2.31405e-20 -9.8775e-16 0)
(-2.45296e-20 -9.87748e-16 0)
(-2.56894e-20 -9.87746e-16 0)
(-2.66237e-20 -9.87744e-16 0)
(-2.73401e-20 -9.87742e-16 0)
(-2.78494e-20 -9.8774e-16 0)
(-2.81652e-20 -9.87738e-16 0)
(-2.83037e-20 -9.87737e-16 0)
(-2.82825e-20 -9.87735e-16 0)
(-2.81201e-20 -9.87733e-16 0)
(-2.78349e-20 -9.87732e-16 0)
(-2.74451e-20 -9.8773e-16 0)
(-2.69673e-20 -9.87729e-16 0)
(-2.64168e-20 -9.87728e-16 0)
(-2.58069e-20 -9.87727e-16 0)
(-2.51491e-20 -9.87726e-16 0)
(-2.44528e-20 -9.87725e-16 0)
(-2.37259e-20 -9.87725e-16 0)
(-2.29744e-20 -9.87724e-16 0)
(-2.22032e-20 -9.87724e-16 0)
(-2.14162e-20 -9.87723e-16 0)
(-2.06163e-20 -9.87723e-16 0)
(-1.98059e-20 -9.87723e-16 0)
(-1.8987e-20 -9.87723e-16 0)
(-1.81612e-20 -9.87722e-16 0)
(-1.73304e-20 -9.87722e-16 0)
(-1.64963e-20 -9.87722e-16 0)
(-1.58004e-20 -9.87722e-16 0)
(-4.19727e-11 -1.00738e-15 0)
(-3.01124e-07 -2.30246e-06 0)
(-1.11483e-07 -0.000469305 0)
(-1.32884e-21 -9.87757e-16 0)
(-3.94882e-21 -9.87757e-16 0)
(-6.48107e-21 -9.87756e-16 0)
(-8.90246e-21 -9.87755e-16 0)
(-1.11929e-20 -9.87755e-16 0)
(-1.33352e-20 -9.87753e-16 0)
(-1.53151e-20 -9.87752e-16 0)
(-1.71217e-20 -9.87751e-16 0)
(-1.87466e-20 -9.87749e-16 0)
(-2.0185e-20 -9.87748e-16 0)
(-2.14349e-20 -9.87746e-16 0)
(-2.24973e-20 -9.87744e-16 0)
(-2.33763e-20 -9.87743e-16 0)
(-2.40784e-20 -9.87741e-16 0)
(-2.46125e-20 -9.87739e-16 0)
(-2.49897e-20 -9.87738e-16 0)
(-2.52222e-20 -9.87736e-16 0)
(-2.53233e-20 -9.87735e-16 0)
(-2.5307e-20 -9.87734e-16 0)
(-2.51869e-20 -9.87732e-16 0)
(-2.49763e-20 -9.87731e-16 0)
(-2.46877e-20 -9.8773e-16 0)
(-2.43325e-20 -9.87729e-16 0)
(-2.39207e-20 -9.87728e-16 0)
(-2.3461e-20 -9.87727e-16 0)
(-2.29606e-20 -9.87727e-16 0)
(-2.24254e-20 -9.87726e-16 0)
(-2.18602e-20 -9.87726e-16 0)
(-2.12685e-20 -9.87725e-16 0)
(-2.0653e-20 -9.87725e-16 0)
(-2.00156e-20 -9.87725e-16 0)
(-1.93577e-20 -9.87725e-16 0)
(-1.86804e-20 -9.87725e-16 0)
(-1.79846e-20 -9.87724e-16 0)
(-1.72712e-20 -9.87724e-16 0)
(-1.65417e-20 -9.87725e-16 0)
(-1.59638e-20 -9.87725e-16 0)
(-4.93907e-11 -1.01096e-15 0)
(-2.98768e-07 -2.59166e-06 0)
(-1.08832e-07 -0.000472401 0)
(-1.15721e-21 -9.87753e-16 0)
(-3.43917e-21 -9.87753e-16 0)
(-5.6459e-21 -9.87753e-16 0)
(-7.75809e-21 -9.87752e-16 0)
(-9.75909e-21 -9.87751e-16 0)
(-1.1635e-20 -9.8775e-16 0)
(-1.33746e-20 -9.87749e-16 0)
(-1.49692e-20 -9.87748e-16 0)
(-1.64129e-20 -9.87747e-16 0)
(-1.77024e-20 -9.87746e-16 0)
(-1.88369e-20 -9.87744e-16 0)
(-1.98178e-20 -9.87743e-16 0)
(-2.0649e-20 -9.87741e-16 0)
(-2.1336e-20 -9.8774e-16 0)
(-2.18864e-20 -9.87739e-16 0)
(-2.23088e-20 -9.87737e-16 0)
(-2.2613e-20 -9.87736e-16 0)
(-2.28094e-20 -9.87735e-16 0)
(-2.29086e-20 -9.87734e-16 0)
(-2.29211e-20 -9.87732e-16 0)
(-2.28572e-20 -9.87731e-16 0)
(-2.27263e-20 -9.87731e-16 0)
(-2.25371e-20 -9.8773e-16 0)
(-2.22973e-20 -9.87729e-16 0)
(-2.20135e-20 -9.87728e-16 0)
(-2.16911e-20 -9.87728e-16 0)
(-2.13342e-20 -9.87727e-16 0)
(-2.0946e-20 -9.87727e-16 0)
(-2.05285e-20 -9.87727e-16 0)
(-2.00828e-20 -9.87726e-16 0)
(-1.96088e-20 -9.87726e-16 0)
(-1.91062e-20 -9.87726e-16 0)
(-1.85737e-20 -9.87726e-16 0)
(-1.80101e-20 -9.87726e-16 0)
(-1.74144e-20 -9.87726e-16 0)
(-1.6786e-20 -9.87726e-16 0)
(-1.63278e-20 -9.87727e-16 0)
(-5.95547e-11 -1.01576e-15 0)
(-2.96035e-07 -2.95138e-06 0)
(-1.05252e-07 -0.000475475 0)
(-1.0114e-21 -9.8775e-16 0)
(-3.00633e-21 -9.8775e-16 0)
(-4.93694e-21 -9.8775e-16 0)
(-6.78724e-21 -9.87749e-16 0)
(-8.54362e-21 -9.87748e-16 0)
(-1.01948e-20 -9.87748e-16 0)
(-1.17319e-20 -9.87747e-16 0)
(-1.31483e-20 -9.87746e-16 0)
(-1.44395e-20 -9.87745e-16 0)
(-1.56035e-20 -9.87744e-16 0)
(-1.66399e-20 -9.87742e-16 0)
(-1.75506e-20 -9.87741e-16 0)
(-1.83389e-20 -9.8774e-16 0)
(-1.90098e-20 -9.87739e-16 0)
(-1.95694e-20 -9.87738e-16 0)
(-2.0025e-20 -9.87737e-16 0)
(-2.03845e-20 -9.87735e-16 0)
(-2.06562e-20 -9.87734e-16 0)
(-2.08487e-20 -9.87733e-16 0)
(-2.09704e-20 -9.87732e-16 0)
(-2.10294e-20 -9.87732e-16 0)
(-2.10335e-20 -9.87731e-16 0)
(-2.09896e-20 -9.8773e-16 0)
(-2.09038e-20 -9.87729e-16 0)
(-2.07814e-20 -9.87729e-16 0)
(-2.06265e-20 -9.87728e-16 0)
(-2.04422e-20 -9.87728e-16 0)
(-2.02304e-20 -9.87728e-16 0)
(-1.99916e-20 -9.87727e-16 0)
(-1.97251e-20 -9.87727e-16 0)
(-1.94289e-20 -9.87727e-16 0)
(-1.90996e-20 -9.87727e-16 0)
(-1.87326e-20 -9.87727e-16 0)
(-1.8322e-20 -9.87727e-16 0)
(-1.78612e-20 -9.87728e-16 0)
(-1.73431e-20 -9.87728e-16 0)
(-1.70179e-20 -9.87728e-16 0)
(-7.4367e-11 -1.0225e-15 0)
(-2.93139e-07 -3.40918e-06 0)
(-1.00608e-07 -0.000478528 0)
(-8.87145e-22 -9.87747e-16 0)
(-2.63749e-21 -9.87747e-16 0)
(-4.3329e-21 -9.87747e-16 0)
(-5.96026e-21 -9.87747e-16 0)
(-7.5085e-21 -9.87746e-16 0)
(-8.96855e-21 -9.87745e-16 0)
(-1.03334e-20 -9.87745e-16 0)
(-1.15978e-20 -9.87744e-16 0)
(-1.27587e-20 -9.87743e-16 0)
(-1.38146e-20 -9.87742e-16 0)
(-1.47658e-20 -9.87741e-16 0)
(-1.56141e-20 -9.8774e-16 0)
(-1.63625e-20 -9.87739e-16 0)
(-1.70154e-20 -9.87738e-16 0)
(-1.75783e-20 -9.87737e-16 0)
(-1.8057e-20 -9.87736e-16 0)
(-1.84584e-20 -9.87735e-16 0)
(-1.87895e-20 -9.87734e-16 0)
(-1.90575e-20 -9.87733e-16 0)
(-1.92695e-20 -9.87732e-16 0)
(-1.94326e-20 -9.87731e-16 0)
(-1.95533e-20 -9.87731e-16 0)
(-1.9638e-20 -9.8773e-16 0)
(-1.9692e-20 -9.87729e-16 0)
(-1.97202e-20 -9.87729e-16 0)
(-1.97264e-20 -9.87729e-16 0)
(-1.97136e-20 -9.87728e-16 0)
(-1.96834e-20 -9.87728e-16 0)
(-1.96362e-20 -9.87728e-16 0)
(-1.95705e-20 -9.87728e-16 0)
(-1.94834e-20 -9.87728e-16 0)
(-1.93693e-20 -9.87728e-16 0)
(-1.92202e-20 -9.87728e-16 0)
(-1.90252e-20 -9.87728e-16 0)
(-1.87697e-20 -9.87729e-16 0)
(-1.84357e-20 -9.87729e-16 0)
(-1.8349e-20 -9.8773e-16 0)
(-9.85817e-11 -1.03236e-15 0)
(-2.90166e-07 -4.02826e-06 0)
(-9.4401e-08 -0.00048157 0)
(-7.80696e-22 -9.87745e-16 0)
(-2.32151e-21 -9.87745e-16 0)
(-3.81539e-21 -9.87745e-16 0)
(-5.25167e-21 -9.87744e-16 0)
(-6.62136e-21 -9.87744e-16 0)
(-7.91723e-21 -9.87743e-16 0)
(-9.13369e-21 -9.87743e-16 0)
(-1.02669e-20 -9.87742e-16 0)
(-1.13144e-20 -9.87741e-16 0)
(-1.22754e-20 -9.8774e-16 0)
(-1.31505e-20 -9.87739e-16 0)
(-1.39415e-20 -9.87738e-16 0)
(-1.46513e-20 -9.87738e-16 0)
(-1.52837e-20 -9.87737e-16 0)
(-1.58435e-20 -9.87736e-16 0)
(-1.63361e-20 -9.87735e-16 0)
(-1.67672e-20 -9.87734e-16 0)
(-1.71432e-20 -9.87733e-16 0)
(-1.74704e-20 -9.87732e-16 0)
(-1.77553e-20 -9.87732e-16 0)
(-1.80044e-20 -9.87731e-16 0)
(-1.82239e-20 -9.8773e-16 0)
(-1.84201e-20 -9.8773e-16 0)
(-1.85986e-20 -9.87729e-16 0)
(-1.87647e-20 -9.87729e-16 0)
(-1.89232e-20 -9.87728e-16 0)
(-1.90782e-20 -9.87728e-16 0)
(-1.92332e-20 -9.87728e-16 0)
(-1.93902e-20 -9.87728e-16 0)
(-1.95502e-20 -9.87728e-16 0)
(-1.97124e-20 -9.87728e-16 0)
(-1.98736e-20 -9.87728e-16 0)
(-2.00274e-20 -9.87728e-16 0)
(-2.01634e-20 -9.87728e-16 0)
(-2.02654e-20 -9.87729e-16 0)
(-2.03098e-20 -9.8773e-16 0)
(-2.07808e-20 -9.87731e-16 0)
(-1.46185e-10 -1.04909e-15 0)
(-2.87013e-07 -4.97571e-06 0)
(-8.56901e-08 -0.00048461 0)
(-6.88873e-22 -9.87743e-16 0)
(-2.0489e-21 -9.87743e-16 0)
(-3.3688e-21 -9.87743e-16 0)
(-4.63991e-21 -9.87742e-16 0)
(-5.85498e-21 -9.87742e-16 0)
(-7.00824e-21 -9.87741e-16 0)
(-8.09531e-21 -9.87741e-16 0)
(-9.11322e-21 -9.8774e-16 0)
(-1.00603e-20 -9.87739e-16 0)
(-1.09362e-20 -9.87739e-16 0)
(-1.17416e-20 -9.87738e-16 0)
(-1.24782e-20 -9.87737e-16 0)
(-1.3149e-20 -9.87736e-16 0)
(-1.37573e-20 -9.87736e-16 0)
(-1.43074e-20 -9.87735e-16 0)
(-1.48041e-20 -9.87734e-16 0)
(-1.52528e-20 -9.87733e-16 0)
(-1.56591e-20 -9.87732e-16 0)
(-1.60288e-20 -9.87732e-16 0)
(-1.63682e-20 -9.87731e-16 0)
(-1.66836e-20 -9.8773e-16 0)
(-1.69812e-20 -9.8773e-16 0)
(-1.72675e-20 -9.87729e-16 0)
(-1.75489e-20 -9.87729e-16 0)
(-1.7832e-20 -9.87728e-16 0)
(-1.81232e-20 -9.87728e-16 0)
(-1.84291e-20 -9.87728e-16 0)
(-1.87562e-20 -9.87727e-16 0)
(-1.91112e-20 -9.87727e-16 0)
(-1.95005e-20 -9.87727e-16 0)
(-1.99305e-20 -9.87727e-16 0)
(-2.0407e-20 -9.87727e-16 0)
(-2.09349e-20 -9.87727e-16 0)
(-2.15178e-20 -9.87727e-16 0)
(-2.21562e-20 -9.87728e-16 0)
(-2.28461e-20 -9.87729e-16 0)
(-2.44522e-20 -9.8773e-16 0)
(-2.49786e-10 -1.08114e-15 0)
(-2.83742e-07 -6.54255e-06 0)
(-7.38597e-08 -0.000487664 0)
(-6.09011e-22 -9.87741e-16 0)
(-1.81175e-21 -9.87741e-16 0)
(-2.9801e-21 -9.87741e-16 0)
(-4.10705e-21 -9.8774e-16 0)
(-5.18678e-21 -9.8774e-16 0)
(-6.21466e-21 -9.8774e-16 0)
(-7.18728e-21 -9.87739e-16 0)
(-8.10238e-21 -9.87739e-16 0)
(-8.95881e-21 -9.87738e-16 0)
(-9.75647e-21 -9.87737e-16 0)
(-1.04962e-20 -9.87737e-16 0)
(-1.11798e-20 -9.87736e-16 0)
(-1.18097e-20 -9.87735e-16 0)
(-1.23893e-20 -9.87735e-16 0)
(-1.29223e-20 -9.87734e-16 0)
(-1.34131e-20 -9.87733e-16 0)
(-1.38665e-20 -9.87732e-16 0)
(-1.42877e-20 -9.87732e-16 0)
(-1.46822e-20 -9.87731e-16 0)
(-1.50558e-20 -9.8773e-16 0)
(-1.54147e-20 -9.8773e-16 0)
(-1.57651e-20 -9.87729e-16 0)
(-1.61137e-20 -9.87729e-16 0)
(-1.64676e-20 -9.87728e-16 0)
(-1.68342e-20 -9.87728e-16 0)
(-1.72215e-20 -9.87727e-16 0)
(-1.76383e-20 -9.87727e-16 0)
(-1.80944e-20 -9.87726e-16 0)
(-1.86008e-20 -9.87726e-16 0)
(-1.91703e-20 -9.87726e-16 0)
(-1.98176e-20 -9.87725e-16 0)
(-2.05607e-20 -9.87725e-16 0)
(-2.14209e-20 -9.87725e-16 0)
(-2.24245e-20 -9.87725e-16 0)
(-2.36044e-20 -9.87725e-16 0)
(-2.50016e-20 -9.87726e-16 0)
(-2.82705e-20 -9.87726e-16 0)
(-4.59477e-10 -1.14129e-15 0)
(-2.81727e-07 -8.96195e-06 0)
(-6.08654e-08 -0.000490753 0)
(-5.38914e-22 -9.87739e-16 0)
(-1.60352e-21 -9.87739e-16 0)
(-2.63859e-21 -9.87739e-16 0)
(-3.63842e-21 -9.87739e-16 0)
(-4.59831e-21 -9.87739e-16 0)
(-5.51457e-21 -9.87738e-16 0)
(-6.38451e-21 -9.87738e-16 0)
(-7.20642e-21 -9.87737e-16 0)
(-7.9795e-21 -9.87737e-16 0)
(-8.70385e-21 -9.87736e-16 0)
(-9.38037e-21 -9.87735e-16 0)
(-1.00107e-20 -9.87735e-16 0)
(-1.05972e-20 -9.87734e-16 0)
(-1.11427e-20 -9.87734e-16 0)
(-1.16506e-20 -9.87733e-16 0)
(-1.21249e-20 -9.87732e-16 0)
(-1.25699e-20 -9.87732e-16 0)
(-1.29903e-20 -9.87731e-16 0)
(-1.33909e-20 -9.8773e-16 0)
(-1.37772e-20 -9.8773e-16 0)
(-1.41547e-20 -9.87729e-16 0)
(-1.45293e-20 -9.87728e-16 0)
(-1.49074e-20 -9.87728e-16 0)
(-1.52957e-20 -9.87727e-16 0)
(-1.57017e-20 -9.87727e-16 0)
(-1.61333e-20 -9.87726e-16 0)
(-1.65997e-20 -9.87726e-16 0)
(-1.71113e-20 -9.87725e-16 0)
(-1.768e-20 -9.87725e-16 0)
(-1.83202e-20 -9.87724e-16 0)
(-1.90491e-20 -9.87724e-16 0)
(-1.98881e-20 -9.87723e-16 0)
(-2.08638e-20 -9.87723e-16 0)
(-2.20102e-20 -9.87722e-16 0)
(-2.33713e-20 -9.87722e-16 0)
(-2.50046e-20 -9.87721e-16 0)
(-2.97254e-20 -9.87721e-16 0)
(-7.57992e-10 -1.23554e-15 0)
(-2.85025e-07 -1.1938e-05 0)
(-5.37475e-08 -0.0004939 0)
(-4.76802e-22 -9.87738e-16 0)
(-1.41894e-21 -9.87738e-16 0)
(-2.33561e-21 -9.87738e-16 0)
(-3.22215e-21 -9.87737e-16 0)
(-4.07475e-21 -9.87737e-16 0)
(-4.89041e-21 -9.87737e-16 0)
(-5.66699e-21 -9.87736e-16 0)
(-6.40317e-21 -9.87736e-16 0)
(-7.0984e-21 -9.87735e-16 0)
(-7.75286e-21 -9.87735e-16 0)
(-8.3674e-21 -9.87734e-16 0)
(-8.94353e-21 -9.87734e-16 0)
(-9.48328e-21 -9.87733e-16 0)
(-9.98921e-21 -9.87733e-16 0)
(-1.04643e-20 -9.87732e-16 0)
(-1.09119e-20 -9.87731e-16 0)
(-1.13358e-20 -9.87731e-16 0)
(-1.174e-20 -9.8773e-16 0)
(-1.21287e-20 -9.87729e-16 0)
(-1.25065e-20 -9.87729e-16 0)
(-1.28781e-20 -9.87728e-16 0)
(-1.32485e-20 -9.87728e-16 0)
(-1.3623e-20 -9.87727e-16 0)
(-1.4007e-20 -9.87726e-16 0)
(-1.44066e-20 -9.87726e-16 0)
(-1.48279e-20 -9.87725e-16 0)
(-1.52778e-20 -9.87725e-16 0)
(-1.57638e-20 -9.87724e-16 0)
(-1.62944e-20 -9.87723e-16 0)
(-1.68789e-20 -9.87723e-16 0)
(-1.75279e-20 -9.87722e-16 0)
(-1.82539e-20 -9.87721e-16 0)
(-1.9071e-20 -9.8772e-16 0)
(-1.99955e-20 -9.87719e-16 0)
(-2.10463e-20 -9.87718e-16 0)
(-2.22448e-20 -9.87717e-16 0)
(-2.73553e-20 -9.87716e-16 0)
(-9.44169e-10 -1.34286e-15 0)
(-2.97267e-07 -1.45832e-05 0)
(-5.90432e-08 -0.000497138 0)
(-4.21261e-22 -9.87737e-16 0)
(-1.25381e-21 -9.87737e-16 0)
(-2.06431e-21 -9.87736e-16 0)
(-2.8489e-21 -9.87736e-16 0)
(-3.60442e-21 -9.87736e-16 0)
(-4.32841e-21 -9.87736e-16 0)
(-5.01913e-21 -9.87735e-16 0)
(-5.67549e-21 -9.87735e-16 0)
(-6.29707e-21 -9.87734e-16 0)
(-6.88408e-21 -9.87734e-16 0)
(-7.43727e-21 -9.87733e-16 0)
(-7.95791e-21 -9.87733e-16 0)
(-8.44775e-21 -9.87732e-16 0)
(-8.90893e-21 -9.87732e-16 0)
(-9.34397e-21 -9.87731e-16 0)
(-9.75568e-21 -9.87731e-16 0)
(-1.01471e-20 -9.8773e-16 0)
(-1.05216e-20 -9.87729e-16 0)
(-1.08826e-20 -9.87729e-16 0)
(-1.12336e-20 -9.87728e-16 0)
(-1.15784e-20 -9.87727e-16 0)
(-1.19205e-20 -9.87727e-16 0)
(-1.22639e-20 -9.87726e-16 0)
(-1.26121e-20 -9.87726e-16 0)
(-1.29688e-20 -9.87725e-16 0)
(-1.33376e-20 -9.87724e-16 0)
(-1.37218e-20 -9.87724e-16 0)
(-1.41244e-20 -9.87723e-16 0)
(-1.45481e-20 -9.87722e-16 0)
(-1.49949e-20 -9.87721e-16 0)
(-1.54659e-20 -9.8772e-16 0)
(-1.59608e-20 -9.8772e-16 0)
(-1.64772e-20 -9.87719e-16 0)
(-1.70098e-20 -9.87717e-16 0)
(-1.75486e-20 -9.87716e-16 0)
(-1.80772e-20 -9.87715e-16 0)
(-2.24494e-20 -9.87713e-16 0)
(-8.78428e-10 -1.42403e-15 0)
(-3.16945e-07 -1.61874e-05 0)
(-7.37446e-08 -0.000500501 0)
(-3.7119e-22 -9.87735e-16 0)
(-1.10487e-21 -9.87735e-16 0)
(-1.81936e-21 -9.87735e-16 0)
(-2.51142e-21 -9.87735e-16 0)
(-3.17834e-21 -9.87735e-16 0)
(-3.81806e-21 -9.87735e-16 0)
(-4.42907e-21 -9.87734e-16 0)
(-5.01046e-21 -9.87734e-16 0)
(-5.56184e-21 -9.87733e-16 0)
(-6.08334e-21 -9.87733e-16 0)
(-6.57557e-21 -9.87733e-16 0)
(-7.03956e-21 -9.87732e-16 0)
(-7.47671e-21 -9.87732e-16 0)
(-7.88878e-21 -9.87731e-16 0)
(-8.27778e-21 -9.8773e-16 0)
(-8.64598e-21 -9.8773e-16 0)
(-8.9958e-21 -9.87729e-16 0)
(-9.32983e-21 -9.87729e-16 0)
(-9.65069e-21 -9.87728e-16 0)
(-9.96103e-21 -9.87727e-16 0)
(-1.02635e-20 -9.87727e-16 0)
(-1.05605e-20 -9.87726e-16 0)
(-1.08544e-20 -9.87726e-16 0)
(-1.11472e-20 -9.87725e-16 0)
(-1.14404e-20 -9.87724e-16 0)
(-1.17352e-20 -9.87723e-16 0)
(-1.20319e-20 -9.87723e-16 0)
(-1.233e-20 -9.87722e-16 0)
(-1.26277e-20 -9.87721e-16 0)
(-1.29218e-20 -9.8772e-16 0)
(-1.32072e-20 -9.87719e-16 0)
(-1.34763e-20 -9.87719e-16 0)
(-1.37183e-20 -9.87718e-16 0)
(-1.39185e-20 -9.87716e-16 0)
(-1.40572e-20 -9.87715e-16 0)
(-1.41086e-20 -9.87714e-16 0)
(-1.73352e-20 -9.87713e-16 0)
(-6.87989e-10 -1.45683e-15 0)
(-3.40412e-07 -1.66967e-05 0)
(-9.00958e-08 -0.000504026 0)
(-3.25754e-22 -9.87734e-16 0)
(-9.69647e-22 -9.87734e-16 0)
(-1.59677e-21 -9.87734e-16 0)
(-2.20427e-21 -9.87734e-16 0)
(-2.78982e-21 -9.87734e-16 0)
(-3.35157e-21 -9.87734e-16 0)
(-3.88819e-21 -9.87733e-16 0)
(-4.3988e-21 -9.87733e-16 0)
(-4.88299e-21 -9.87733e-16 0)
(-5.3408e-21 -9.87732e-16 0)
(-5.77263e-21 -9.87732e-16 0)
(-6.17923e-21 -9.87731e-16 0)
(-6.5617e-21 -9.87731e-16 0)
(-6.92138e-21 -9.8773e-16 0)
(-7.25983e-21 -9.8773e-16 0)
(-7.57882e-21 -9.87729e-16 0)
(-7.88022e-21 -9.87729e-16 0)
(-8.16598e-21 -9.87728e-16 0)
(-8.43808e-21 -9.87728e-16 0)
(-8.69845e-21 -9.87727e-16 0)
(-8.94889e-21 -9.87726e-16 0)
(-9.19103e-21 -9.87726e-16 0)
(-9.4262e-21 -9.87725e-16 0)
(-9.65532e-21 -9.87724e-16 0)