# Probe 0 (0.1 1 0.005)
# Probe 1 (0.5 1 0.005)
#       Probe             0             1
#        Time
     4.98e+06      0.350374      0.344288
    1.002e+07      0.350663      0.337507
      1.5e+07      0.351004      0.330606
    1.998e+07      0.351393      0.323545
    2.502e+07      0.351823      0.316294
        3e+07      0.352266      0.309055
    3.498e+07      0.352712      0.301793
    4.002e+07      0.353161      0.294431
      4.5e+07      0.353572      0.287198
    4.998e+07      0.353964      0.280029
    5.502e+07      0.354332      0.272868
        6e+07      0.354638      0.265879
    6.498e+07      0.354903      0.259042
    7.002e+07      0.355117      0.252248
      7.5e+07      0.355291      0.245719
    7.998e+07      0.355418       0.23935
    8.502e+07      0.355483      0.233107
        9e+07       0.35548      0.227119
    9.498e+07      0.355408       0.22134
   1.0002e+08       0.35527      0.215689
     1.05e+08      0.355102      0.210303
   1.0998e+08      0.354864      0.205107
   1.1502e+08      0.354571      0.200066
      1.2e+08      0.354239      0.195284
   1.2498e+08      0.353913      0.190683
   1.3002e+08      0.353551      0.186219
     1.35e+08      0.353156      0.181983
   1.3998e+08      0.352742      0.177919
   1.4502e+08       0.35232      0.173974
      1.5e+08      0.351889       0.17023
   1.5498e+08      0.351451      0.166638
   1.6002e+08      0.350999      0.163155
     1.65e+08      0.350555      0.159853
   1.6998e+08       0.35012      0.156681
   1.7502e+08       0.34971      0.153597
      1.8e+08      0.349301      0.150671
   1.8498e+08      0.348908      0.147858
   1.9002e+08       0.34853       0.14512
     1.95e+08      0.348182      0.142508
   1.9998e+08      0.347855      0.139985
   2.0502e+08      0.347557      0.137518
      2.1e+08      0.347291      0.135152
   2.1498e+08      0.347064       0.13285
   2.2002e+08      0.346869      0.130585
     2.25e+08       0.34671      0.128399
   2.2998e+08       0.34659      0.126251
   2.3502e+08      0.346516      0.124116
      2.4e+08      0.346487      0.122042
   2.4498e+08      0.346508      0.119987
   2.5002e+08      0.346581      0.117922
     2.55e+08      0.346709      0.115893
   2.5998e+08       0.34689       0.11387
   2.6502e+08      0.347124      0.111834
      2.7e+08      0.347408      0.109816
   2.7498e+08       0.34774      0.107804
   2.8002e+08      0.348125      0.105763
     2.85e+08       0.34855      0.103746
   2.8998e+08      0.349022      0.101732
   2.9502e+08      0.349542     0.0996932
        3e+08      0.350105     0.0976735
   3.0498e+08      0.350694     0.0956569
   3.1002e+08      0.351323     0.0936171
     3.15e+08      0.351974     0.0916119
   3.1998e+08      0.352647     0.0896115
   3.2502e+08      0.353348     0.0876112
      3.3e+08      0.354059      0.085667
   3.3498e+08      0.354795     0.0837737
   3.4002e+08      0.355544     0.0819062
     3.45e+08      0.356289     0.0801293
   3.4998e+08      0.357042     0.0784265
   3.5502e+08      0.357796     0.0767713
      3.6e+08      0.358536     0.0752178
   3.6498e+08      0.359277     0.0737516
   3.7002e+08      0.360012      0.072345
     3.75e+08      0.360723     0.0710309
   3.7998e+08      0.361432     0.0697992
   3.8502e+08      0.362143     0.0686323
      3.9e+08      0.362837     0.0675566
   3.9498e+08       0.36352     0.0665566
   4.0002e+08      0.364204     0.0656192
     4.05e+08       0.36487     0.0647595
   4.0998e+08      0.365537     0.0639719
   4.1502e+08      0.366199     0.0632415
      4.2e+08      0.366847     0.0625851
   4.2498e+08      0.367489     0.0619867
   4.3002e+08      0.368135     0.0614458
     4.35e+08       0.36876     0.0609575
   4.3998e+08       0.36939     0.0605284
   4.4502e+08      0.370013     0.0601429
      4.5e+08      0.370621     0.0598051
   4.5498e+08      0.371242     0.0595084
   4.6002e+08      0.371852     0.0592463
     4.65e+08      0.372456     0.0590268
   4.6998e+08      0.373054     0.0588376
   4.7502e+08      0.373654     0.0586752
      4.8e+08      0.374234     0.0585458
   4.8498e+08      0.374826     0.0584365
   4.9002e+08      0.375413     0.0583476
     4.95e+08      0.375991     0.0582884
   4.9998e+08      0.376559     0.0582421
   5.0502e+08      0.377139      0.058214
      5.1e+08      0.377754     0.0582061
   5.1498e+08      0.378358     0.0582118
   5.2002e+08      0.378972     0.0582316
     5.25e+08      0.379579     0.0582614
   5.2998e+08      0.380176     0.0583005
   5.3502e+08      0.380783     0.0583562
      5.4e+08      0.381375     0.0584125
   5.4498e+08      0.381966     0.0584785
   5.5002e+08      0.382558     0.0585457
     5.55e+08       0.38314     0.0586127
   5.5998e+08      0.383717     0.0586804
   5.6502e+08      0.384301     0.0587482
      5.7e+08      0.384872     0.0588158
   5.7498e+08      0.385439       0.05888
   5.8002e+08      0.386006     0.0589397
     5.85e+08      0.386568     0.0589982
   5.8998e+08      0.387122     0.0590512
   5.9502e+08       0.38768     0.0591026
        6e+08      0.388232     0.0591568
   6.0498e+08      0.388777     0.0592049
   6.1002e+08      0.389325     0.0592548
     6.15e+08      0.389862     0.0593027
   6.1998e+08      0.390396     0.0593474
   6.2502e+08      0.390931     0.0593931
      6.3e+08      0.391459     0.0594358
   6.3498e+08      0.391982     0.0594775
   6.4002e+08      0.392507     0.0595183
     6.45e+08      0.392975     0.0595577
   6.4998e+08      0.393279     0.0595989
   6.5502e+08      0.393587     0.0596402
      6.6e+08      0.393888     0.0596775
   6.6498e+08       0.39419     0.0597164
   6.7002e+08      0.394493     0.0597536
     6.75e+08      0.394791     0.0597915
   6.7998e+08      0.395088     0.0598254
   6.8502e+08      0.395387     0.0598638
      6.9e+08       0.39568     0.0598999
   6.9498e+08      0.395973     0.0599365
   7.0002e+08      0.396268     0.0599739
     7.05e+08      0.396557     0.0600096
   7.0998e+08      0.396846     0.0600461
   7.1502e+08      0.397137     0.0600837
      7.2e+08      0.397423     0.0601213
   7.2498e+08      0.397708     0.0601584
   7.3002e+08      0.397996     0.0601957
     7.35e+08      0.398279     0.0602312
   7.3998e+08      0.398562       0.06027
   7.4502e+08      0.398847     0.0603084
      7.5e+08      0.399129     0.0603449
   7.5498e+08      0.399411     0.0603837
   7.6002e+08      0.399695     0.0604192
     7.65e+08      0.399977     0.0604512
   7.6998e+08      0.400258     0.0604884
   7.7502e+08      0.400542     0.0605243
      7.8e+08      0.400821     0.0605614
   7.8498e+08      0.401101     0.0605981
   7.9002e+08      0.401384     0.0606257
     7.95e+08      0.401663     0.0606707
   7.9998e+08      0.401942     0.0606968
   8.0502e+08      0.402224     0.0607451
      8.1e+08      0.402502     0.0607831
   8.1498e+08      0.402779     0.0608224
   8.2002e+08      0.403059     0.0608612
     8.25e+08      0.403335     0.0609029
   8.2998e+08       0.40361     0.0609371
   8.3502e+08      0.403887     0.0609713
      8.4e+08       0.40416     0.0610149
   8.4498e+08      0.404432     0.0610497
   8.5002e+08      0.404706     0.0610922
     8.55e+08      0.404977     0.0611298
   8.5998e+08      0.405245     0.0611701
   8.6502e+08      0.405517     0.0612082
      8.7e+08      0.405784     0.0612456
   8.7498e+08       0.40605     0.0612821
   8.8002e+08      0.406319     0.0613226
     8.85e+08      0.406584     0.0613604
   8.8998e+08      0.406846     0.0613995
   8.9502e+08      0.407112     0.0614341
        9e+08      0.407373     0.0614725
   9.0498e+08      0.407635     0.0615099
   9.1002e+08      0.407897     0.0615464
     9.15e+08      0.408156     0.0615846
   9.1998e+08      0.408415      0.061621
   9.2502e+08      0.408676     0.0616567
      9.3e+08      0.408931     0.0616944
   9.3498e+08      0.409185     0.0617311
   9.4002e+08      0.409444     0.0617619
     9.45e+08      0.409699     0.0618043
   9.4998e+08      0.409951     0.0618401
   9.5502e+08      0.410206     0.0618766
      9.6e+08      0.410457     0.0619065
   9.6498e+08      0.410708     0.0619492
   9.7002e+08      0.410961     0.0619873
     9.75e+08      0.411209     0.0620255
   9.7998e+08      0.411457     0.0620549
   9.8502e+08      0.411707     0.0620984
      9.9e+08      0.411954     0.0621354
   9.9498e+08        0.4122     0.0621708
  1.00002e+09      0.412449     0.0622079
    1.005e+09      0.412693     0.0622438
  1.00998e+09      0.412937     0.0622815
  1.01502e+09      0.413184     0.0623169
     1.02e+09      0.413426      0.062352
  1.02498e+09      0.413667     0.0623852
  1.03002e+09      0.413911      0.062424
    1.035e+09      0.414151     0.0624533
  1.03998e+09      0.414391     0.0624961
  1.04502e+09      0.414633     0.0625315
     1.05e+09      0.414871     0.0625673
  1.05498e+09       0.41511     0.0626014
  1.06002e+09       0.41535     0.0626383
    1.065e+09      0.415587     0.0626723
  1.06998e+09      0.415821     0.0627067
  1.07502e+09      0.416041     0.0627418
     1.08e+09       0.41612     0.0627763
  1.08498e+09       0.41621     0.0628085
  1.09002e+09      0.416303     0.0628428
    1.095e+09      0.416394     0.0628756
  1.09998e+09      0.416485     0.0629105
  1.10502e+09      0.416575     0.0629425
     1.11e+09      0.416664     0.0629735
  1.11498e+09      0.416752     0.0630067
  1.12002e+09      0.416843     0.0630388
    1.125e+09      0.416932     0.0630708
  1.12998e+09       0.41702     0.0631019
  1.13502e+09      0.417108     0.0631333
     1.14e+09      0.417195     0.0631647
  1.14498e+09      0.417281     0.0631955
  1.15002e+09      0.417367     0.0632272
    1.155e+09      0.417452     0.0632525
  1.15998e+09      0.417538     0.0632873
  1.16502e+09      0.417624     0.0633149
     1.17e+09      0.417709     0.0633494
  1.17498e+09      0.417793     0.0633793
  1.18002e+09      0.417879     0.0634081
    1.185e+09      0.417961     0.0634368
  1.18998e+09      0.418044     0.0634666
  1.19502e+09      0.418127     0.0634944
      1.2e+09      0.418211     0.0635225
  1.20498e+09      0.418292     0.0635528
  1.21002e+09      0.418375     0.0635785
    1.215e+09      0.418457      0.063608
  1.21998e+09      0.418539     0.0636387
  1.22502e+09       0.41862     0.0636681
     1.23e+09      0.418702     0.0636975
  1.23498e+09      0.418783     0.0637268
  1.24002e+09      0.418863     0.0637566
    1.245e+09      0.418942     0.0637851
  1.24998e+09      0.419022     0.0638135
  1.25502e+09      0.419102     0.0638436
     1.26e+09      0.419181     0.0638736
  1.26498e+09      0.419259     0.0639022
  1.27002e+09      0.419336     0.0639306
    1.275e+09      0.419414     0.0639594
  1.27998e+09      0.419489     0.0639872
  1.28502e+09      0.419567     0.0640046
     1.29e+09      0.419643     0.0640453
  1.29498e+09      0.419718     0.0640744
  1.30002e+09      0.419793     0.0641008
    1.305e+09      0.419868     0.0641305
  1.30998e+09      0.419941     0.0641604
  1.31502e+09      0.420015     0.0641889
     1.32e+09      0.420089     0.0642178
  1.32498e+09      0.420161     0.0642464
  1.33002e+09      0.420233      0.064274
    1.335e+09      0.420304     0.0642992
  1.33998e+09      0.420375     0.0643177
  1.34502e+09      0.420447      0.064357
     1.35e+09      0.420517     0.0643842
  1.35498e+09      0.420588     0.0644102
  1.36002e+09      0.420658      0.064439
    1.365e+09      0.420727     0.0644658
  1.36998e+09      0.420795      0.064492
  1.37502e+09      0.420863     0.0645192
     1.38e+09       0.42093     0.0645314
  1.38498e+09      0.420996     0.0645727
  1.39002e+09      0.421062     0.0646003
    1.395e+09      0.421128     0.0646268
  1.39998e+09      0.421191     0.0646531
  1.40502e+09      0.421254     0.0646798
     1.41e+09      0.421315     0.0647057
  1.41498e+09      0.421377     0.0647318
  1.42002e+09      0.421439     0.0647585
    1.425e+09      0.421499     0.0647836
  1.42998e+09      0.421559     0.0648095
  1.43502e+09      0.421619     0.0648355
     1.44e+09      0.421677     0.0648609
  1.44498e+09      0.421735      0.064886
  1.45002e+09      0.421793     0.0649115
    1.455e+09       0.42185     0.0649372
  1.45998e+09      0.421906     0.0649613
  1.46502e+09      0.421962      0.064987
     1.47e+09      0.422018     0.0650115
  1.47498e+09      0.422072     0.0650358
  1.48002e+09      0.422127     0.0650582
    1.485e+09      0.422181     0.0650843
  1.48998e+09      0.422234     0.0651037
  1.49502e+09      0.422287     0.0651333
      1.5e+09       0.42234     0.0651561
  1.50498e+09      0.422391     0.0651797
  1.51002e+09      0.422443     0.0652028
    1.515e+09      0.422494      0.065226
  1.51998e+09      0.422546     0.0652494
  1.52502e+09      0.422597      0.065272
     1.53e+09      0.422647     0.0652911
  1.53498e+09      0.422697     0.0653161
  1.54002e+09      0.422746     0.0653229
    1.545e+09      0.422795     0.0653586
  1.54998e+09      0.422844     0.0653815
  1.55502e+09      0.422893     0.0654028
     1.56e+09      0.422941     0.0654238
  1.56498e+09      0.422988     0.0654446
  1.57002e+09      0.423036     0.0654657
    1.575e+09      0.423084     0.0654863
  1.57998e+09       0.42313     0.0655058
  1.58502e+09      0.423177      0.065527
     1.59e+09      0.423223     0.0655463
  1.59498e+09       0.42327     0.0655659
  1.60002e+09      0.423316     0.0655855
    1.605e+09      0.423362     0.0656046
  1.60998e+09      0.423407     0.0656249
  1.61502e+09      0.423454     0.0656427
     1.62e+09      0.423498     0.0656544
  1.62498e+09      0.423543     0.0656789
  1.63002e+09      0.423588     0.0656991
    1.635e+09      0.423632     0.0657163
  1.63998e+09      0.423677     0.0657355
  1.64502e+09      0.423721     0.0657432
     1.65e+09      0.423765      0.065771
  1.65498e+09      0.423808     0.0657849
  1.66002e+09      0.423852      0.065805
    1.665e+09      0.423895     0.0658215
  1.66998e+09      0.423939     0.0658387
  1.67502e+09      0.423982      0.065856
     1.68e+09      0.424025     0.0658735
  1.68498e+09      0.424068     0.0658923
  1.69002e+09      0.424111     0.0659082
    1.695e+09      0.424153      0.065927
  1.69998e+09      0.424195      0.065933
  1.70502e+09      0.424239     0.0659612
     1.71e+09       0.42428     0.0659766
  1.71498e+09      0.424322     0.0659943
  1.72002e+09      0.424364     0.0660093
    1.725e+09      0.424405     0.0660254
  1.72998e+09      0.424447     0.0660406
  1.73502e+09      0.424489     0.0660559
     1.74e+09       0.42453       0.06607
  1.74498e+09      0.424571     0.0660865
  1.75002e+09      0.424612     0.0660968
    1.755e+09      0.424652     0.0661186
  1.75998e+09      0.424693     0.0661242
  1.76502e+09      0.424735     0.0661439
     1.77e+09      0.424775     0.0661507
  1.77498e+09      0.424815     0.0661768
  1.78002e+09      0.424856     0.0661804
    1.785e+09      0.424896     0.0662068
  1.78998e+09      0.424936     0.0662226
  1.79502e+09      0.424976     0.0662379
      1.8e+09      0.425016       0.06624
  1.80498e+09      0.425056     0.0662631
  1.81002e+09      0.425095     0.0662822
    1.815e+09      0.425135     0.0662952
  1.81998e+09      0.425174     0.0663093
  1.82502e+09      0.425214     0.0663107
     1.83e+09      0.425252     0.0663355
  1.83498e+09      0.425292     0.0663489
  1.84002e+09      0.425331     0.0663622
    1.845e+09       0.42537     0.0663752
  1.84998e+09      0.425409     0.0663885
  1.85502e+09      0.425448     0.0664006
     1.86e+09      0.425486     0.0664142
  1.86498e+09      0.425525     0.0664275
  1.87002e+09      0.425564     0.0664401
    1.875e+09      0.425602     0.0664525
  1.87998e+09       0.42564     0.0664666
  1.88502e+09      0.425679     0.0664764
     1.89e+09      0.425718     0.0664944
  1.89498e+09      0.425756     0.0664959
  1.90002e+09      0.425794     0.0665202
    1.905e+09      0.425832     0.0665338
  1.90998e+09       0.42587     0.0665465
  1.91502e+09      0.425909     0.0665593
     1.92e+09      0.425947     0.0665676
  1.92498e+09      0.425984     0.0665839
  1.93002e+09      0.426023     0.0665968
    1.935e+09       0.42606      0.066609
  1.93998e+09      0.426098     0.0666227
  1.94502e+09      0.426137     0.0666345
     1.95e+09      0.426174     0.0666483
  1.95498e+09      0.426212     0.0666567
  1.96002e+09       0.42625     0.0666759
    1.965e+09      0.426288     0.0666903
  1.96998e+09      0.426325     0.0667009
  1.97502e+09      0.426363     0.0667136
     1.98e+09      0.426401     0.0667187
  1.98498e+09      0.426438     0.0667375
  1.99002e+09      0.426476     0.0667498
    1.995e+09      0.426513     0.0667609
  1.99998e+09       0.42655     0.0667728
  2.00502e+09      0.426588     0.0667858
     2.01e+09      0.426625     0.0667763
  2.01498e+09      0.426662     0.0668103
  2.02002e+09        0.4267      0.066822
    2.025e+09      0.426736     0.0668337
  2.02998e+09      0.426774     0.0668453
  2.03502e+09      0.426811     0.0668567
     2.04e+09      0.426848     0.0668689
  2.04498e+09      0.426884     0.0668672
  2.05002e+09      0.426922     0.0668927
    2.055e+09      0.426958     0.0669054
  2.05998e+09      0.426994     0.0669164
  2.06502e+09      0.427031     0.0669252
     2.07e+09      0.427068     0.0669421
  2.07498e+09      0.427104     0.0669525
  2.08002e+09      0.427141     0.0669627
    2.085e+09      0.427177     0.0669736
  2.08998e+09      0.427213     0.0669829
  2.09502e+09       0.42725     0.0669944
      2.1e+09      0.427286      0.067006
  2.10498e+09      0.427322     0.0670162
  2.11002e+09      0.427358     0.0670287
    2.115e+09      0.427394     0.0670306
  2.11998e+09       0.42743       0.06704
  2.12502e+09      0.427466     0.0670577
     2.13e+09      0.427502     0.0670686
  2.13498e+09      0.427538     0.0670785
  2.14002e+09      0.427574     0.0670893
    2.145e+09       0.42761     0.0671003
  2.14998e+09      0.427645     0.0671122
  2.15502e+09      0.427681     0.0671224
     2.16e+09      0.427717     0.0671334
  2.16498e+09      0.427752     0.0671433
  2.17002e+09      0.427788     0.0671428
    2.175e+09      0.427823     0.0671631
  2.17998e+09      0.427858     0.0671739
  2.18502e+09      0.427894     0.0671806
     2.19e+09      0.427929      0.067196
  2.19498e+09      0.427964     0.0672061
  2.20002e+09         0.428     0.0672162
    2.205e+09      0.428035     0.0672277
  2.20998e+09      0.428069     0.0672393
  2.21502e+09      0.428105     0.0672498
     2.22e+09       0.42814     0.0672613
  2.22498e+09      0.428174     0.0672728
  2.23002e+09       0.42821     0.0672817
    2.235e+09      0.428245     0.0672929
  2.23998e+09      0.428279      0.067302
  2.24502e+09      0.428314      0.067312
     2.25e+09      0.428349     0.0673216
  2.25498e+09      0.428383     0.0673319
  2.26002e+09      0.428418     0.0673418
    2.265e+09      0.428453     0.0673522
  2.26998e+09      0.428487     0.0673619
  2.27502e+09      0.428522     0.0673708
     2.28e+09      0.428557     0.0673798
  2.28498e+09      0.428591     0.0673909
  2.29002e+09      0.428626     0.0674007
    2.295e+09       0.42866     0.0674102
  2.29998e+09      0.428694     0.0674199
  2.30502e+09      0.428729     0.0674288
     2.31e+09      0.428763     0.0674388
  2.31498e+09      0.428798     0.0674495
  2.32002e+09      0.428832     0.0674586
    2.325e+09      0.428866     0.0674688
  2.32998e+09        0.4289     0.0674774
  2.33502e+09      0.428934     0.0674871
     2.34e+09      0.428968      0.067496
  2.34498e+09      0.429002     0.0675048
  2.35002e+09      0.429037      0.067515
    2.355e+09      0.429071     0.0675231
  2.35998e+09      0.429104     0.0675321
  2.36502e+09      0.429138       0.06754
     2.37e+09      0.429172     0.0675497
  2.37498e+09      0.429206     0.0675573
  2.38002e+09       0.42924     0.0675656
    2.385e+09      0.429274     0.0675742
  2.38998e+09      0.429307     0.0675681
  2.39502e+09      0.429341     0.0675932
      2.4e+09      0.429375     0.0675985
  2.40498e+09      0.429409     0.0676145
  2.41002e+09      0.429443     0.0676244
    2.415e+09      0.429476     0.0676362
  2.41998e+09       0.42951     0.0676452
  2.42502e+09      0.429544     0.0676555
     2.43e+09      0.429577     0.0676637
  2.43498e+09      0.429611       0.06767
  2.44002e+09      0.429645     0.0676814
    2.445e+09      0.429678     0.0676911
  2.44998e+09      0.429711     0.0676998
  2.45502e+09      0.429745     0.0677098
     2.46e+09      0.429778     0.0677172
  2.46498e+09      0.429811     0.0677252
  2.47002e+09      0.429844     0.0677345
    2.475e+09      0.429878     0.0677429
  2.47998e+09      0.429911     0.0677513
  2.48502e+09      0.429944     0.0677596
     2.49e+09      0.429977     0.0677644
  2.49498e+09       0.43001     0.0677776
  2.50002e+09      0.430043     0.0677865
    2.505e+09      0.430076     0.0677951
  2.50998e+09      0.430111     0.0678053
  2.51502e+09      0.430147     0.0677947
     2.52e+09      0.430184     0.0678212
  2.52498e+09       0.43022     0.0678299
  2.53002e+09      0.430258     0.0678392
    2.535e+09      0.430295     0.0678479
  2.53998e+09      0.430331     0.0678566
  2.54502e+09      0.430368     0.0678655
     2.55e+09      0.430405      0.067873
  2.55498e+09      0.430442     0.0678824
  2.56002e+09      0.430479     0.0678908
    2.565e+09      0.430515     0.0679006
  2.56998e+09      0.430552     0.0679103
  2.57502e+09      0.430589     0.0679187
     2.58e+09      0.430625     0.0679279
  2.58498e+09      0.430662     0.0679372
  2.59002e+09      0.430699     0.0679436
    2.595e+09      0.430735     0.0679515
  2.59998e+09      0.430772     0.0679605
  2.60502e+09      0.430808     0.0679702
     2.61e+09      0.430845     0.0679791
  2.61498e+09      0.430881     0.0679865
  2.62002e+09      0.430918     0.0679946
    2.625e+09      0.430954     0.0680026
  2.62998e+09       0.43099     0.0680106
  2.63502e+09      0.431027     0.0680184
     2.64e+09      0.431063     0.0680269
  2.64498e+09        0.4311     0.0680354
  2.65002e+09      0.431136     0.0680437
    2.655e+09      0.431172     0.0680518
  2.65998e+09      0.431208     0.0680597
  2.66502e+09      0.431245     0.0680642
     2.67e+09      0.431281     0.0680752
  2.67498e+09      0.431317     0.0680829
  2.68002e+09      0.431354      0.068091
    2.685e+09       0.43139     0.0680997
  2.68998e+09      0.431426     0.0681075
  2.69502e+09      0.431462     0.0681158
      2.7e+09      0.431498     0.0681245
  2.70498e+09      0.431534     0.0681325
  2.71002e+09       0.43157     0.0681412
    2.715e+09      0.431606     0.0681487
  2.71998e+09      0.431643     0.0681522
  2.72502e+09      0.431678     0.0681674
     2.73e+09      0.431714     0.0681749
  2.73498e+09       0.43175     0.0681832
  2.74002e+09      0.431786     0.0681916
    2.745e+09      0.431822     0.0681999
  2.74998e+09      0.431858     0.0682092
  2.75502e+09      0.431894     0.0682173
     2.76e+09       0.43193     0.0682252
  2.76498e+09      0.431966     0.0682334
  2.77002e+09      0.432002     0.0682429
    2.775e+09      0.432037     0.0682506
  2.77998e+09      0.432074     0.0682524
  2.78502e+09      0.432109     0.0682679
     2.79e+09      0.432145     0.0682766
  2.79498e+09       0.43218     0.0682856
  2.80002e+09      0.432217     0.0682947
    2.805e+09      0.432252     0.0683025
  2.80998e+09      0.432288     0.0683113
  2.81502e+09      0.432324     0.0683211
     2.82e+09      0.432359     0.0683283
  2.82498e+09      0.432395     0.0683363
  2.83002e+09      0.432431     0.0683349
    2.835e+09      0.432466     0.0683539
  2.83998e+09      0.432502      0.068362
  2.84502e+09      0.432537     0.0683698
     2.85e+09      0.432573     0.0683779
  2.85498e+09      0.432608     0.0683863
  2.86002e+09      0.432644     0.0683951
    2.865e+09      0.432679     0.0684036
  2.86998e+09      0.432714     0.0684128
  2.87502e+09       0.43275      0.068423
     2.88e+09      0.432785      0.068431
  2.88498e+09      0.432821     0.0684255
  2.89002e+09      0.432856     0.0684474
    2.895e+09      0.432892     0.0684563
  2.89998e+09      0.432927     0.0684646
  2.90502e+09      0.432962     0.0684728
     2.91e+09      0.432997     0.0684808
  2.91498e+09      0.433033     0.0684891
  2.92002e+09       0.43307     0.0684982
    2.925e+09      0.433108     0.0685067
  2.92998e+09      0.433146     0.0685152
  2.93502e+09      0.433185     0.0685236
     2.94e+09      0.433223     0.0685312
  2.94498e+09      0.433262     0.0685394
  2.95002e+09      0.433301     0.0685394
    2.955e+09      0.433339     0.0685571
  2.95998e+09      0.433377     0.0685657
  2.96502e+09      0.433416     0.0685748
     2.97e+09      0.433454     0.0685832
  2.97498e+09      0.433492      0.068592
  2.98002e+09      0.433531     0.0685994
    2.985e+09      0.433569     0.0686091
  2.98998e+09      0.433607     0.0686166
  2.99502e+09      0.433646     0.0686243
        3e+09      0.433684     0.0686334
  3.00498e+09      0.433722     0.0686423
  3.01002e+09      0.433761     0.0686513
    3.015e+09      0.433799     0.0686594
  3.01998e+09      0.433837     0.0686681
  3.02502e+09      0.433875     0.0686765
     3.03e+09      0.433914     0.0686863
  3.03498e+09      0.433952     0.0686939
  3.04002e+09       0.43399     0.0687018
    3.045e+09      0.434028     0.0687099
  3.04998e+09      0.434067     0.0687181
  3.05502e+09      0.434105     0.0687282
     3.06e+09      0.434143     0.0687368
  3.06498e+09      0.434181     0.0687449
  3.07002e+09      0.434219     0.0687534
    3.075e+09      0.434257     0.0687615
  3.07998e+09      0.434295     0.0687701
  3.08502e+09      0.434333     0.0687798
     3.09e+09       0.43437     0.0687874
  3.09498e+09      0.434408     0.0687902
  3.10002e+09      0.434447     0.0688012
    3.105e+09      0.434485     0.0688152
  3.10998e+09      0.434522     0.0688226
  3.11502e+09       0.43456     0.0688302
     3.12e+09      0.434598     0.0688388
  3.12498e+09      0.434635     0.0688402
  3.13002e+09      0.434673     0.0688561
    3.135e+09      0.434711      0.068865
  3.13998e+09      0.434748     0.0688727
  3.14502e+09      0.434786     0.0688762
     3.15e+09      0.434823     0.0688909
  3.15498e+09      0.434861     0.0688992
  3.16002e+09      0.434899     0.0689078
    3.165e+09      0.434936     0.0689159
  3.16998e+09      0.434973     0.0689252
  3.17502e+09      0.435011     0.0689334
     3.18e+09      0.435048     0.0689426
  3.18498e+09      0.435085     0.0689508
  3.19002e+09      0.435122     0.0689597
    3.195e+09      0.435159     0.0689686
  3.19998e+09      0.435196     0.0689704
  3.20502e+09      0.435234     0.0689856
     3.21e+09      0.435271     0.0689943
  3.21498e+09      0.435308     0.0690024
  3.22002e+09      0.435345     0.0690118
    3.225e+09      0.435382     0.0690207
  3.22998e+09      0.435419     0.0690299
  3.23502e+09      0.435456     0.0690388
     3.24e+09      0.435493      0.069047
  3.24498e+09      0.435529     0.0690443
  3.25002e+09      0.435566     0.0690633
    3.255e+09      0.435603     0.0690638
  3.25998e+09      0.435639     0.0690659
  3.26502e+09      0.435676     0.0690698
     3.27e+09      0.435713     0.0690949
  3.27498e+09      0.435749     0.0691062
  3.28002e+09      0.435786     0.0691142
    3.285e+09      0.435822     0.0691205
  3.28998e+09      0.435858     0.0691302
  3.29502e+09      0.435895     0.0691376
      3.3e+09      0.435931     0.0691474
  3.30498e+09      0.435968     0.0691553
  3.31002e+09      0.436004     0.0691638
    3.315e+09       0.43604     0.0691718
  3.31998e+09      0.436077     0.0691806
  3.32502e+09      0.436113     0.0691894
     3.33e+09      0.436149     0.0691975
  3.33498e+09      0.436185     0.0692061
  3.34002e+09      0.436221     0.0692044
    3.345e+09      0.436257     0.0692247
  3.34998e+09      0.436293     0.0692321
  3.35502e+09      0.436329     0.0692406
     3.36e+09      0.436365     0.0692492
  3.36498e+09      0.436401     0.0692573
  3.37002e+09      0.436437     0.0692658
    3.375e+09      0.436473     0.0692739
  3.37998e+09      0.436509     0.0692823
  3.38502e+09      0.436544     0.0692911
     3.39e+09       0.43658     0.0692997
  3.39498e+09      0.436616      0.069308
  3.40002e+09      0.436651     0.0693168
    3.405e+09      0.436687      0.069325
  3.40998e+09      0.436723     0.0693328
  3.41502e+09      0.436759     0.0693408
     3.42e+09      0.436794       0.06935
  3.42498e+09      0.436829     0.0693581
  3.43002e+09      0.436865     0.0693679
    3.435e+09        0.4369     0.0693756
  3.43998e+09      0.436936     0.0693839
  3.44502e+09      0.436972     0.0693926
     3.45e+09      0.437007     0.0694018
  3.45498e+09      0.437042     0.0694101
  3.46002e+09      0.437078     0.0694196
    3.465e+09      0.437113     0.0694085
  3.46998e+09      0.437149     0.0694368
  3.47502e+09      0.437184     0.0694458
     3.48e+09      0.437219     0.0694536
  3.48498e+09      0.437254     0.0694626
  3.49002e+09      0.437289     0.0694712
    3.495e+09      0.437324     0.0694795
  3.49998e+09      0.437359     0.0694882
  3.50502e+09      0.437394     0.0694851
     3.51e+09       0.43743      0.069506
  3.51498e+09      0.437464     0.0695146
  3.52002e+09      0.437499     0.0695133
    3.525e+09      0.437534     0.0695337
  3.52998e+09      0.437569     0.0695407
  3.53502e+09      0.437604     0.0695408
     3.54e+09      0.437638     0.0695626
  3.54498e+09      0.437673     0.0695711
  3.55002e+09      0.437708     0.0695804
    3.555e+09      0.437742     0.0695898