4.98e+06 0.350374
1.002e+07 0.350663
1.5e+07 0.351004
1.998e+07 0.351393
2.502e+07 0.351823
3e+07 0.352266
3.498e+07 0.352712
4.002e+07 0.353161
4.5e+07 0.353572
4.998e+07 0.353964
5.502e+07 0.354332
6e+07 0.354638
6.498e+07 0.354903
7.002e+07 0.355117
7.5e+07 0.355291
7.998e+07 0.355418
8.502e+07 0.355483
9e+07 0.35548
9.498e+07 0.355408
1.0002e+08 0.35527
1.05e+08 0.355102
1.0998e+08 0.354864
1.1502e+08 0.354571
1.2e+08 0.354239
1.2498e+08 0.353913
1.3002e+08 0.353551
1.35e+08 0.353156
1.3998e+08 0.352742
1.4502e+08 0.35232
1.5e+08 0.351889
1.5498e+08 0.351451
1.6002e+08 0.350999
1.65e+08 0.350555
1.6998e+08 0.35012
1.7502e+08 0.34971
1.8e+08 0.349301
1.8498e+08 0.348908
1.9002e+08 0.34853
1.95e+08 0.348182
1.9998e+08 0.347855
2.0502e+08 0.347557
2.1e+08 0.347291
2.1498e+08 0.347064
2.2002e+08 0.346869
2.25e+08 0.34671
2.2998e+08 0.34659
2.3502e+08 0.346516
2.4e+08 0.346487
2.4498e+08 0.346508
2.5002e+08 0.346581
2.55e+08 0.346709
2.5998e+08 0.34689
2.6502e+08 0.347124
2.7e+08 0.347408
2.7498e+08 0.34774
2.8002e+08 0.348125
2.85e+08 0.34855
2.8998e+08 0.349022
2.9502e+08 0.349542
3e+08 0.350105
3.0498e+08 0.350694
3.1002e+08 0.351323
3.15e+08 0.351974
3.1998e+08 0.352647
3.2502e+08 0.353348
3.3e+08 0.354059
3.3498e+08 0.354795
3.4002e+08 0.355544
3.45e+08 0.356289
3.4998e+08 0.357042
3.5502e+08 0.357796
3.6e+08 0.358536
3.6498e+08 0.359277
3.7002e+08 0.360012
3.75e+08 0.360723
3.7998e+08 0.361432
3.8502e+08 0.362143
3.9e+08 0.362837
3.9498e+08 0.36352
4.0002e+08 0.364204
4.05e+08 0.36487
4.0998e+08 0.365537
4.1502e+08 0.366199
4.2e+08 0.366847
4.2498e+08 0.367489
4.3002e+08 0.368135
4.35e+08 0.36876
4.3998e+08 0.36939
4.4502e+08 0.370013
4.5e+08 0.370621
4.5498e+08 0.371242
4.6002e+08 0.371852
4.65e+08 0.372456
4.6998e+08 0.373054
4.7502e+08 0.373654
4.8e+08 0.374234
4.8498e+08 0.374826
4.9002e+08 0.375413
4.95e+08 0.375991
4.9998e+08 0.376559
5.0502e+08 0.377139
5.1e+08 0.377754
5.1498e+08 0.378358
5.2002e+08 0.378972
5.25e+08 0.379579
5.2998e+08 0.380176
5.3502e+08 0.380783
5.4e+08 0.381375
5.4498e+08 0.381966
5.5002e+08 0.382558
5.55e+08 0.38314
5.5998e+08 0.383717
5.6502e+08 0.384301
5.7e+08 0.384872
5.7498e+08 0.385439
5.8002e+08 0.386006
5.85e+08 0.386568
5.8998e+08 0.387122
5.9502e+08 0.38768
6e+08 0.388232
6.0498e+08 0.388777
6.1002e+08 0.389325
6.15e+08 0.389862
6.1998e+08 0.390396
6.2502e+08 0.390931
6.3e+08 0.391459
6.3498e+08 0.391982
6.4002e+08 0.392507
6.45e+08 0.392975
6.4998e+08 0.393279
6.5502e+08 0.393587
6.6e+08 0.393888
6.6498e+08 0.39419
6.7002e+08 0.394493
6.75e+08 0.394791
6.7998e+08 0.395088
6.8502e+08 0.395387
6.9e+08 0.39568
6.9498e+08 0.395973
7.0002e+08 0.396268
7.05e+08 0.396557
7.0998e+08 0.396846
7.1502e+08 0.397137
7.2e+08 0.397423
7.2498e+08 0.397708
7.3002e+08 0.397996
7.35e+08 0.398279
7.3998e+08 0.398562
7.4502e+08 0.398847
7.5e+08 0.399129
7.5498e+08 0.399411
7.6002e+08 0.399695
7.65e+08 0.399977
7.6998e+08 0.400258
7.7502e+08 0.400542
7.8e+08 0.400821
7.8498e+08 0.401101
7.9002e+08 0.401384
7.95e+08 0.401663
7.9998e+08 0.401942
8.0502e+08 0.402224
8.1e+08 0.402502
8.1498e+08 0.402779
8.2002e+08 0.403059
8.25e+08 0.403335
8.2998e+08 0.40361
8.3502e+08 0.403887
8.4e+08 0.40416
8.4498e+08 0.404432
8.5002e+08 0.404706
8.55e+08 0.404977
8.5998e+08 0.405245
8.6502e+08 0.405517
8.7e+08 0.405784
8.7498e+08 0.40605
8.8002e+08 0.406319
8.85e+08 0.406584
8.8998e+08 0.406846
8.9502e+08 0.407112
9e+08 0.407373
9.0498e+08 0.407635
9.1002e+08 0.407897
9.15e+08 0.408156
9.1998e+08 0.408415
9.2502e+08 0.408676
9.3e+08 0.408931
9.3498e+08 0.409185
9.4002e+08 0.409444
9.45e+08 0.409699
9.4998e+08 0.409951
9.5502e+08 0.410206
9.6e+08 0.410457
9.6498e+08 0.410708
9.7002e+08 0.410961
9.75e+08 0.411209
9.7998e+08 0.411457
9.8502e+08 0.411707
9.9e+08 0.411954
9.9498e+08 0.4122
1.00002e+09 0.412449
1.005e+09 0.412693
1.00998e+09 0.412937
1.01502e+09 0.413184
1.02e+09 0.413426
1.02498e+09 0.413667
1.03002e+09 0.413911
1.035e+09 0.414151
1.03998e+09 0.414391
1.04502e+09 0.414633
1.05e+09 0.414871
1.05498e+09 0.41511
1.06002e+09 0.41535
1.065e+09 0.415587
1.06998e+09 0.415821
1.07502e+09 0.416041
1.08e+09 0.41612
1.08498e+09 0.41621
1.09002e+09 0.416303
1.095e+09 0.416394
1.09998e+09 0.416485
1.10502e+09 0.416575
1.11e+09 0.416664
1.11498e+09 0.416752
1.12002e+09 0.416843
1.125e+09 0.416932
1.12998e+09 0.41702
1.13502e+09 0.417108
1.14e+09 0.417195
1.14498e+09 0.417281
1.15002e+09 0.417367
1.155e+09 0.417452
1.15998e+09 0.417538
1.16502e+09 0.417624
1.17e+09 0.417709
1.17498e+09 0.417793
1.18002e+09 0.417879
1.185e+09 0.417961
1.18998e+09 0.418044
1.19502e+09 0.418127
1.2e+09 0.418211
1.20498e+09 0.418292
1.21002e+09 0.418375
1.215e+09 0.418457
1.21998e+09 0.418539
1.22502e+09 0.41862
1.23e+09 0.418702
1.23498e+09 0.418783
1.24002e+09 0.418863
1.245e+09 0.418942
1.24998e+09 0.419022
1.25502e+09 0.419102
1.26e+09 0.419181
1.26498e+09 0.419259
1.27002e+09 0.419336
1.275e+09 0.419414
1.27998e+09 0.419489
1.28502e+09 0.419567
1.29e+09 0.419643
1.29498e+09 0.419718
1.30002e+09 0.419793
1.305e+09 0.419868
1.30998e+09 0.419941
1.31502e+09 0.420015
1.32e+09 0.420089
1.32498e+09 0.420161
1.33002e+09 0.420233
1.335e+09 0.420304
1.33998e+09 0.420375
1.34502e+09 0.420447
1.35e+09 0.420517
1.35498e+09 0.420588
1.36002e+09 0.420658
1.365e+09 0.420727
1.36998e+09 0.420795
1.37502e+09 0.420863
1.38e+09 0.42093
1.38498e+09 0.420996
1.39002e+09 0.421062
1.395e+09 0.421128
1.39998e+09 0.421191
1.40502e+09 0.421254
1.41e+09 0.421315
1.41498e+09 0.421377
1.42002e+09 0.421439
1.425e+09 0.421499
1.42998e+09 0.421559
1.43502e+09 0.421619
1.44e+09 0.421677
1.44498e+09 0.421735
1.45002e+09 0.421793
1.455e+09 0.42185
1.45998e+09 0.421906
1.46502e+09 0.421962
1.47e+09 0.422018
1.47498e+09 0.422072
1.48002e+09 0.422127
1.485e+09 0.422181
1.48998e+09 0.422234
1.49502e+09 0.422287
1.5e+09 0.42234
1.50498e+09 0.422391
1.51002e+09 0.422443
1.515e+09 0.422494
1.51998e+09 0.422546
1.52502e+09 0.422597
1.53e+09 0.422647
1.53498e+09 0.422697
1.54002e+09 0.422746
1.545e+09 0.422795
1.54998e+09 0.422844
1.55502e+09 0.422893
1.56e+09 0.422941
1.56498e+09 0.422988
1.57002e+09 0.423036
1.575e+09 0.423084
1.57998e+09 0.42313
1.58502e+09 0.423177
1.59e+09 0.423223
1.59498e+09 0.42327
1.60002e+09 0.423316
1.605e+09 0.423362
1.60998e+09 0.423407
1.61502e+09 0.423454
1.62e+09 0.423498
1.62498e+09 0.423543
1.63002e+09 0.423588
1.635e+09 0.423632
1.63998e+09 0.423677
1.64502e+09 0.423721
1.65e+09 0.423765
1.65498e+09 0.423808
1.66002e+09 0.423852
1.665e+09 0.423895
1.66998e+09 0.423939
1.67502e+09 0.423982
1.68e+09 0.424025
1.68498e+09 0.424068
1.69002e+09 0.424111
1.695e+09 0.424153
1.69998e+09 0.424195
1.70502e+09 0.424239
1.71e+09 0.42428
1.71498e+09 0.424322
1.72002e+09 0.424364
1.725e+09 0.424405
1.72998e+09 0.424447
1.73502e+09 0.424489
1.74e+09 0.42453
1.74498e+09 0.424571
1.75002e+09 0.424612
1.755e+09 0.424652
1.75998e+09 0.424693
1.76502e+09 0.424735
1.77e+09 0.424775
1.77498e+09 0.424815
1.78002e+09 0.424856
1.785e+09 0.424896
1.78998e+09 0.424936
1.79502e+09 0.424976
1.8e+09 0.425016
1.80498e+09 0.425056
1.81002e+09 0.425095
1.815e+09 0.425135
1.81998e+09 0.425174
1.82502e+09 0.425214
1.83e+09 0.425252
1.83498e+09 0.425292
1.84002e+09 0.425331
1.845e+09 0.42537
1.84998e+09 0.425409
1.85502e+09 0.425448
1.86e+09 0.425486
1.86498e+09 0.425525
1.87002e+09 0.425564
1.875e+09 0.425602
1.87998e+09 0.42564
1.88502e+09 0.425679
1.89e+09 0.425718
1.89498e+09 0.425756
1.90002e+09 0.425794
1.905e+09 0.425832
1.90998e+09 0.42587
1.91502e+09 0.425909
1.92e+09 0.425947
1.92498e+09 0.425984
1.93002e+09 0.426023
1.935e+09 0.42606
1.93998e+09 0.426098
1.94502e+09 0.426137
1.95e+09 0.426174
1.95498e+09 0.426212
1.96002e+09 0.42625
1.965e+09 0.426288
1.96998e+09 0.426325
1.97502e+09 0.426363
1.98e+09 0.426401
1.98498e+09 0.426438
1.99002e+09 0.426476
1.995e+09 0.426513
1.99998e+09 0.42655
2.00502e+09 0.426588
2.01e+09 0.426625
2.01498e+09 0.426662
2.02002e+09 0.4267
2.025e+09 0.426736
2.02998e+09 0.426774
2.03502e+09 0.426811
2.04e+09 0.426848
2.04498e+09 0.426884
2.05002e+09 0.426922
2.055e+09 0.426958
2.05998e+09 0.426994
2.06502e+09 0.427031
2.07e+09 0.427068
2.07498e+09 0.427104
2.08002e+09 0.427141
2.085e+09 0.427177
2.08998e+09 0.427213
2.09502e+09 0.42725
2.1e+09 0.427286
2.10498e+09 0.427322
2.11002e+09 0.427358
2.115e+09 0.427394
2.11998e+09 0.42743
2.12502e+09 0.427466
2.13e+09 0.427502
2.13498e+09 0.427538
2.14002e+09 0.427574
2.145e+09 0.42761
2.14998e+09 0.427645
2.15502e+09 0.427681
2.16e+09 0.427717
2.16498e+09 0.427752
2.17002e+09 0.427788
2.175e+09 0.427823
2.17998e+09 0.427858
2.18502e+09 0.427894
2.19e+09 0.427929
2.19498e+09 0.427964
2.20002e+09 0.428
2.205e+09 0.428035
2.20998e+09 0.428069
2.21502e+09 0.428105
2.22e+09 0.42814
2.22498e+09 0.428174
2.23002e+09 0.42821
2.235e+09 0.428245
2.23998e+09 0.428279
2.24502e+09 0.428314
2.25e+09 0.428349
2.25498e+09 0.428383
2.26002e+09 0.428418
2.265e+09 0.428453
2.26998e+09 0.428487
2.27502e+09 0.428522
2.28e+09 0.428557
2.28498e+09 0.428591
2.29002e+09 0.428626
2.295e+09 0.42866
2.29998e+09 0.428694
2.30502e+09 0.428729
2.31e+09 0.428763
2.31498e+09 0.428798
2.32002e+09 0.428832
2.325e+09 0.428866
2.32998e+09 0.4289
2.33502e+09 0.428934
2.34e+09 0.428968
2.34498e+09 0.429002
2.35002e+09 0.429037
2.355e+09 0.429071
2.35998e+09 0.429104
2.36502e+09 0.429138
2.37e+09 0.429172
2.37498e+09 0.429206
2.38002e+09 0.42924
2.385e+09 0.429274
2.38998e+09 0.429307
2.39502e+09 0.429341
2.4e+09 0.429375
2.40498e+09 0.429409
2.41002e+09 0.429443
2.415e+09 0.429476
2.41998e+09 0.42951
2.42502e+09 0.429544
2.43e+09 0.429577
2.43498e+09 0.429611
2.44002e+09 0.429645
2.445e+09 0.429678
2.44998e+09 0.429711
2.45502e+09 0.429745
2.46e+09 0.429778
2.46498e+09 0.429811
2.47002e+09 0.429844
2.475e+09 0.429878
2.47998e+09 0.429911
2.48502e+09 0.429944
2.49e+09 0.429977
2.49498e+09 0.43001
2.50002e+09 0.430043
2.505e+09 0.430076
2.50998e+09 0.430111
2.51502e+09 0.430147
2.52e+09 0.430184
2.52498e+09 0.43022
2.53002e+09 0.430258
2.535e+09 0.430295
2.53998e+09 0.430331
2.54502e+09 0.430368
2.55e+09 0.430405
2.55498e+09 0.430442
2.56002e+09 0.430479
2.565e+09 0.430515
2.56998e+09 0.430552
2.57502e+09 0.430589
2.58e+09 0.430625
2.58498e+09 0.430662
2.59002e+09 0.430699
2.595e+09 0.430735
2.59998e+09 0.430772
2.60502e+09 0.430808
2.61e+09 0.430845
2.61498e+09 0.430881
2.62002e+09 0.430918
2.625e+09 0.430954
2.62998e+09 0.43099
2.63502e+09 0.431027
2.64e+09 0.431063
2.64498e+09 0.4311
2.65002e+09 0.431136
2.655e+09 0.431172
2.65998e+09 0.431208
2.66502e+09 0.431245
2.67e+09 0.431281
2.67498e+09 0.431317
2.68002e+09 0.431354
2.685e+09 0.43139
2.68998e+09 0.431426
2.69502e+09 0.431462
2.7e+09 0.431498
2.70498e+09 0.431534
2.71002e+09 0.43157
2.715e+09 0.431606
2.71998e+09 0.431643
2.72502e+09 0.431678
2.73e+09 0.431714
2.73498e+09 0.43175
2.74002e+09 0.431786
2.745e+09 0.431822
2.74998e+09 0.431858
2.75502e+09 0.431894
2.76e+09 0.43193
2.76498e+09 0.431966
2.77002e+09 0.432002
2.775e+09 0.432037
2.77998e+09 0.432074
2.78502e+09 0.432109
2.79e+09 0.432145
2.79498e+09 0.43218
2.80002e+09 0.432217
2.805e+09 0.432252
2.80998e+09 0.432288
2.81502e+09 0.432324
2.82e+09 0.432359
2.82498e+09 0.432395
2.83002e+09 0.432431
2.835e+09 0.432466
2.83998e+09 0.432502
2.84502e+09 0.432537
2.85e+09 0.432573
2.85498e+09 0.432608
2.86002e+09 0.432644
2.865e+09 0.432679
2.86998e+09 0.432714
2.87502e+09 0.43275
2.88e+09 0.432785
2.88498e+09 0.432821
2.89002e+09 0.432856
2.895e+09 0.432892
2.89998e+09 0.432927
2.90502e+09 0.432962
2.91e+09 0.432997
2.91498e+09 0.433033
2.92002e+09 0.43307
2.925e+09 0.433108
2.92998e+09 0.433146
2.93502e+09 0.433185
2.94e+09 0.433223
2.94498e+09 0.433262
2.95002e+09 0.433301
2.955e+09 0.433339
2.95998e+09 0.433377
2.96502e+09 0.433416
2.97e+09 0.433454
2.97498e+09 0.433492
2.98002e+09 0.433531
2.985e+09 0.433569
2.98998e+09 0.433607
2.99502e+09 0.433646
3e+09 0.433684
3.00498e+09 0.433722
3.01002e+09 0.433761
3.015e+09 0.433799
3.01998e+09 0.433837
3.02502e+09 0.433875
3.03e+09 0.433914
3.03498e+09 0.433952
3.04002e+09 0.43399
3.045e+09 0.434028
3.04998e+09 0.434067
3.05502e+09 0.434105
3.06e+09 0.434143
3.06498e+09 0.434181
3.07002e+09 0.434219
3.075e+09 0.434257
3.07998e+09 0.434295
3.08502e+09 0.434333
3.09e+09 0.43437
3.09498e+09 0.434408
3.10002e+09 0.434447
3.105e+09 0.434485
3.10998e+09 0.434522
3.11502e+09 0.43456
3.12e+09 0.434598
3.12498e+09 0.434635
3.13002e+09 0.434673
3.135e+09 0.434711
3.13998e+09 0.434748
3.14502e+09 0.434786
3.15e+09 0.434823
3.15498e+09 0.434861
3.16002e+09 0.434899
3.165e+09 0.434936
3.16998e+09 0.434973
3.17502e+09 0.435011
3.18e+09 0.435048
3.18498e+09 0.435085
3.19002e+09 0.435122
3.195e+09 0.435159
3.19998e+09 0.435196
3.20502e+09 0.435234
3.21e+09 0.435271
3.21498e+09 0.435308
3.22002e+09 0.435345
3.225e+09 0.435382
3.22998e+09 0.435419
3.23502e+09 0.435456
3.24e+09 0.435493
3.24498e+09 0.435529
3.25002e+09 0.435566
3.255e+09 0.435603
3.25998e+09 0.435639
3.26502e+09 0.435676
3.27e+09 0.435713
3.27498e+09 0.435749
3.28002e+09 0.435786
3.285e+09 0.435822
3.28998e+09 0.435858
3.29502e+09 0.435895
3.3e+09 0.435931
3.30498e+09 0.435968
3.31002e+09 0.436004
3.315e+09 0.43604
3.31998e+09 0.436077
3.32502e+09 0.436113
3.33e+09 0.436149
3.33498e+09 0.436185
3.34002e+09 0.436221
3.345e+09 0.436257
3.34998e+09 0.436293
3.35502e+09 0.436329
3.36e+09 0.436365
3.36498e+09 0.436401
3.37002e+09 0.436437
3.375e+09 0.436473
3.37998e+09 0.436509
3.38502e+09 0.436544
3.39e+09 0.43658
3.39498e+09 0.436616
3.40002e+09 0.436651
3.405e+09 0.436687
3.40998e+09 0.436723
3.41502e+09 0.436759
3.42e+09 0.436794
3.42498e+09 0.436829
3.43002e+09 0.436865
3.435e+09 0.4369
3.43998e+09 0.436936
3.44502e+09 0.436972
3.45e+09 0.437007
3.45498e+09 0.437042
3.46002e+09 0.437078
3.465e+09 0.437113
3.46998e+09 0.437149
3.47502e+09 0.437184
3.48e+09 0.437219
3.48498e+09 0.437254
3.49002e+09 0.437289
3.495e+09 0.437324
3.49998e+09 0.437359
3.50502e+09 0.437394
3.51e+09 0.43743
3.51498e+09 0.437464
3.52002e+09 0.437499
3.525e+09 0.437534
3.52998e+09 0.437569
3.53502e+09 0.437604
3.54e+09 0.437638
3.54498e+09 0.437673
3.55002e+09 0.437708
3.555e+09 0.437742
3.55998e+09 0.437777
3.56502e+09 0.437812
3.57e+09 0.437847
3.57498e+09 0.437881
3.58002e+09 0.437916
3.585e+09 0.43795
3.58998e+09 0.437985
3.59502e+09 0.43802
3.6e+09 0.438054
3.60498e+09 0.438088
3.61002e+09 0.438123
3.615e+09 0.438157
3.61998e+09 0.438192
3.62502e+09 0.438226
3.63e+09 0.43826
3.63498e+09 0.438294
3.64002e+09 0.438329
3.645e+09 0.438363
3.64998e+09 0.438397
3.65502e+09 0.438432
3.66e+09 0.438466
3.66498e+09 0.4385
3.67002e+09 0.438535
3.675e+09 0.438569
3.67998e+09 0.438602
3.68502e+09 0.438637
3.69e+09 0.438671
3.69498e+09 0.438705
3.70002e+09 0.438739
3.705e+09 0.438773
3.70998e+09 0.438806
3.71502e+09 0.438841
3.72e+09 0.438878
3.72498e+09 0.438921
3.73002e+09 0.438966
3.735e+09 0.439011
3.73998e+09 0.439058
3.74502e+09 0.439105
3.75e+09 0.439151
3.75498e+09 0.439198
3.76002e+09 0.439244
3.765e+09 0.439291
3.76998e+09 0.439338
3.77502e+09 0.439384
3.78e+09 0.439431
3.78498e+09 0.439477
3.79002e+09 0.439524
3.795e+09 0.439571
3.79998e+09 0.439617
3.80502e+09 0.439665
3.81e+09 0.439711
3.81498e+09 0.439758
3.82002e+09 0.439804
3.825e+09 0.439851
3.82998e+09 0.439897
3.83502e+09 0.439945
3.84e+09 0.439991
3.84498e+09 0.440038
3.85002e+09 0.440085
3.855e+09 0.440131
3.85998e+09 0.440177
3.86502e+09 0.440224
3.87e+09 0.440271
3.87498e+09 0.440317
3.88002e+09 0.440364
3.885e+09 0.440411
3.88998e+09 0.440457
3.89502e+09 0.440504
3.9e+09 0.44055
3.90498e+09 0.440597
3.91002e+09 0.440644
3.915e+09 0.440691
3.91998e+09 0.440738
3.92502e+09 0.440785
3.93e+09 0.440831
3.93498e+09 0.440878
3.94002e+09 0.440925
3.945e+09 0.440972
3.94998e+09 0.441018
3.95502e+09 0.441065
3.96e+09 0.441112
3.96498e+09 0.441159
3.97002e+09 0.441206
3.975e+09 0.441252
3.97998e+09 0.441299
3.98502e+09 0.441346
3.99e+09 0.441393
3.99498e+09 0.441439
4.00002e+09 0.441487
4.005e+09 0.441533
4.00998e+09 0.44158
4.01502e+09 0.441627
4.02e+09 0.441673
4.02498e+09 0.44172
4.03002e+09 0.441767
4.035e+09 0.441814
4.03998e+09 0.441861
4.04502e+09 0.441908
4.05e+09 0.441955
4.05498e+09 0.442001
4.06002e+09 0.442049
4.065e+09 0.442095
4.06998e+09 0.442142
4.07502e+09 0.442189
4.08e+09 0.442236
4.08498e+09 0.442283
4.09002e+09 0.44233
4.095e+09 0.442377
4.09998e+09 0.442424
4.10502e+09 0.442471
4.11e+09 0.442518
4.11498e+09 0.442564
4.12002e+09 0.442611
4.125e+09 0.442658
4.12998e+09 0.442705
4.13502e+09 0.442752
4.14e+09 0.442799
4.14498e+09 0.442846
4.15002e+09 0.442893
4.155e+09 0.44294
4.15998e+09 0.442986
4.16502e+09 0.443034
4.17e+09 0.44308
4.17498e+09 0.443127
4.18002e+09 0.443175
4.185e+09 0.443221
4.18998e+09 0.443268
4.19502e+09 0.443315
4.2e+09 0.443362
4.20498e+09 0.443409
4.21002e+09 0.443457
4.215e+09 0.443503
4.21998e+09 0.443551
4.22502e+09 0.443598
4.23e+09 0.443645
4.23498e+09 0.443692
4.24002e+09 0.443739
4.245e+09 0.443786
4.24998e+09 0.443833
4.25502e+09 0.443881
4.26e+09 0.443928
4.26498e+09 0.443975
4.27002e+09 0.444023
4.275e+09 0.44407
4.27998e+09 0.444117
4.28502e+09 0.444165
4.29e+09 0.444212
4.29498e+09 0.444259
4.30002e+09 0.444306
4.305e+09 0.444354
4.30998e+09 0.444401
4.31502e+09 0.444449
4.32e+09 0.444496
4.32498e+09 0.444543
4.33002e+09 0.444591
4.335e+09 0.444638
4.33998e+09 0.444686
4.34502e+09 0.444734
4.35e+09 0.444781
4.35498e+09 0.444828
4.36002e+09 0.444876
4.365e+09 0.444924
4.36998e+09 0.444971
4.37502e+09 0.445019
4.38e+09 0.445067
4.38498e+09 0.445114
4.39002e+09 0.445161
4.395e+09 0.445209
4.39998e+09 0.445257
4.40502e+09 0.445305
4.41e+09 0.445352
4.41498e+09 0.4454
4.42002e+09 0.445448
4.425e+09 0.445495
4.42998e+09 0.445543
4.43502e+09 0.445591
4.44e+09 0.445639
4.44498e+09 0.445686
4.45002e+09 0.445734
4.455e+09 0.445782
4.45998e+09 0.44583
4.46502e+09 0.445877
4.47e+09 0.445925
4.47498e+09 0.445973
4.48002e+09 0.446021
4.485e+09 0.446069
4.48998e+09 0.446117
4.49502e+09 0.446165
4.5e+09 0.446212
4.50498e+09 0.44626
4.51002e+09 0.446308
4.515e+09 0.446356
4.51998e+09 0.446403
4.52502e+09 0.446451
4.53e+09 0.446499
4.53498e+09 0.446547
4.54002e+09 0.446595
4.545e+09 0.446643
4.54998e+09 0.44669
4.55502e+09 0.446739
4.56e+09 0.446786
4.56498e+09 0.446834
4.57002e+09 0.446883
4.575e+09 0.446931
4.57998e+09 0.446978
4.58502e+09 0.447027
4.59e+09 0.447074
4.59498e+09 0.447122
4.60002e+09 0.447171
4.605e+09 0.447219
4.60998e+09 0.447267
4.61502e+09 0.447315
4.62e+09 0.447363
4.62498e+09 0.447411
4.63002e+09 0.44746
4.635e+09 0.447507
4.63998e+09 0.447555
4.64502e+09 0.447603
4.65e+09 0.447651
4.65498e+09 0.447699
4.66002e+09 0.447748
4.665e+09 0.447796
4.66998e+09 0.447843
4.67502e+09 0.447892
4.68e+09 0.44794
4.68498e+09 0.447988
4.69002e+09 0.448036
4.695e+09 0.448084
4.69998e+09 0.448132
4.70502e+09 0.44818
4.71e+09 0.448228
4.71498e+09 0.448275
4.72002e+09 0.448324
4.725e+09 0.448372
4.72998e+09 0.448419
4.73502e+09 0.448468
4.74e+09 0.448516
4.74498e+09 0.448563
4.75002e+09 0.448611
4.755e+09 0.44866
4.75998e+09 0.448707
4.76502e+09 0.448755
4.77e+09 0.448803
4.77498e+09 0.448851
4.78002e+09 0.448899
4.785e+09 0.448947
4.78998e+09 0.448995
4.79502e+09 0.449043
4.8e+09 0.449091
4.80498e+09 0.449138
4.81002e+09 0.449187
4.815e+09 0.449235
4.81998e+09 0.449283
4.82502e+09 0.449331
4.83e+09 0.449378
4.83498e+09 0.449426
4.84002e+09 0.449475
4.845e+09 0.449522
4.84998e+09 0.44957
4.85502e+09 0.449618
4.86e+09 0.449666
4.86498e+09 0.449714
4.87002e+09 0.449762
4.875e+09 0.44981
4.87998e+09 0.449858
4.88502e+09 0.449906
4.89e+09 0.449954
4.89498e+09 0.450002
4.90002e+09 0.45005
4.905e+09 0.450098
4.90998e+09 0.450145
4.91502e+09 0.450194
4.92e+09 0.450242
4.92498e+09 0.45029
4.93002e+09 0.450338
4.935e+09 0.450385
4.93998e+09 0.450433
4.94502e+09 0.450482
4.95e+09 0.45053
4.95498e+09 0.450578
4.96002e+09 0.450626
4.965e+09 0.450673
4.96998e+09 0.450721
4.97502e+09 0.45077
4.98e+09 0.450817
4.98498e+09 0.450866
4.99002e+09 0.450914
4.995e+09 0.450962
4.99998e+09 0.45101
5.00502e+09 0.451059
5.01e+09 0.451106
5.01498e+09 0.451155
5.02002e+09 0.451203
5.025e+09 0.451251
5.02998e+09 0.4513
5.03502e+09 0.451348
5.04e+09 0.451396
5.04498e+09 0.451444
5.05002e+09 0.451493
5.055e+09 0.451541
5.05998e+09 0.451589
5.06502e+09 0.451638
5.07e+09 0.451686
5.07498e+09 0.451734
5.08002e+09 0.451782
5.085e+09 0.45183
5.08998e+09 0.451879
5.09502e+09 0.451927
5.1e+09 0.451975
5.10498e+09 0.452023
5.11002e+09 0.452072
5.115e+09 0.45212
5.11998e+09 0.452168
5.12502e+09 0.452217
5.13e+09 0.452265
5.13498e+09 0.452313
5.14002e+09 0.452361
5.145e+09 0.452409
5.14998e+09 0.452458
5.15502e+09 0.452506
5.16e+09 0.452554
5.16498e+09 0.452603
5.17002e+09 0.452651
5.175e+09 0.452699
5.17998e+09 0.452747
5.18502e+09 0.452796
5.19e+09 0.452844
5.19498e+09 0.452891
5.20002e+09 0.45294
5.205e+09 0.452988
5.20998e+09 0.453036
5.21502e+09 0.453085
5.22e+09 0.453133
5.22498e+09 0.45318
5.23002e+09 0.453229
5.235e+09 0.453277
5.23998e+09 0.453325
5.24502e+09 0.453373
5.25e+09 0.453421
5.25498e+09 0.453469
5.26002e+09 0.453518
5.265e+09 0.453566
5.26998e+09 0.453613
5.27502e+09 0.453662
5.28e+09 0.453709
5.28498e+09 0.453758
5.29002e+09 0.453806
5.295e+09 0.453854
5.29998e+09 0.453901
5.30502e+09 0.45395
5.31e+09 0.453997
5.31498e+09 0.454045
5.32002e+09 0.454093
5.325e+09 0.454141
5.32998e+09 0.454188
5.33502e+09 0.454237
5.34e+09 0.454284
5.34498e+09 0.454332
5.35002e+09 0.45438
5.355e+09 0.454428
5.35998e+09 0.454475
5.36502e+09 0.454523
5.37e+09 0.45457
5.37498e+09 0.454618
5.38002e+09 0.454666
5.385e+09 0.454713
5.38998e+09 0.454761
5.39502e+09 0.454809
5.4e+09 0.454856
5.40498e+09 0.454903
5.41002e+09 0.454951
5.415e+09 0.454998
5.41998e+09 0.455045
5.42502e+09 0.455093
5.43e+09 0.45514
5.43498e+09 0.455187
5.44002e+09 0.455235
5.445e+09 0.455282
5.44998e+09 0.455329
5.45502e+09 0.455376
5.46e+09 0.455423
5.46498e+09 0.45547
5.47002e+09 0.455518
5.475e+09 0.455564
5.47998e+09 0.455611
5.48502e+09 0.455658
5.49e+09 0.455705
5.49498e+09 0.455751
5.50002e+09 0.455798
5.505e+09 0.455845
5.50998e+09 0.455892
5.51502e+09 0.455939
5.52e+09 0.455985
5.52498e+09 0.456031
5.53002e+09 0.456078
5.535e+09 0.456125
5.53998e+09 0.456171
5.54502e+09 0.456218
5.55e+09 0.456264
5.55498e+09 0.45631
5.56002e+09 0.456357
5.565e+09 0.456403
5.56998e+09 0.456449
5.57502e+09 0.456496
5.58e+09 0.456542
5.58498e+09 0.456588
5.59002e+09 0.456634
5.595e+09 0.45668
5.59998e+09 0.456726
5.60502e+09 0.456772
5.61e+09 0.456817
5.61498e+09 0.456863
5.62002e+09 0.45691
5.625e+09 0.456956
5.62998e+09 0.457001
5.63502e+09 0.457047
5.64e+09 0.457093
5.64498e+09 0.457138
5.65002e+09 0.457184
5.655e+09 0.45723
5.65998e+09 0.457275
5.66502e+09 0.457321
5.67e+09 0.457365
5.67498e+09 0.457411
5.68002e+09 0.457457
5.685e+09 0.457502
5.68998e+09 0.457547
5.69502e+09 0.457592
5.7e+09 0.457638
5.70498e+09 0.457682
5.71002e+09 0.457728
5.715e+09 0.457773
5.71998e+09 0.457817
5.72502e+09 0.457863
5.73e+09 0.457908
5.73498e+09 0.457952
5.74002e+09 0.457997
5.745e+09 0.458042
5.74998e+09 0.458086
5.75502e+09 0.458132
5.76e+09 0.458176
5.76498e+09 0.45822
5.77002e+09 0.458265
5.775e+09 0.45831
5.77998e+09 0.458354
5.78502e+09 0.458398
5.79e+09 0.458442
5.79498e+09 0.458487
5.80002e+09 0.458531
5.805e+09 0.458576
5.80998e+09 0.458619
5.81502e+09 0.458664
5.82e+09 0.458708
5.82498e+09 0.458752
5.83002e+09 0.458796
5.835e+09 0.45884
5.83998e+09 0.458884
5.84502e+09 0.458928
5.85e+09 0.458971
5.85498e+09 0.459015
5.86002e+09 0.459059
5.865e+09 0.459103
5.86998e+09 0.459146
5.87502e+09 0.45919
5.88e+09 0.459233
5.88498e+09 0.459277
5.89002e+09 0.459321
5.895e+09 0.459364
5.89998e+09 0.459407
5.90502e+09 0.459451
5.91e+09 0.459493
5.91498e+09 0.459537
5.92002e+09 0.45958
5.925e+09 0.459623
5.92998e+09 0.459666
5.93502e+09 0.459709
5.94e+09 0.459752
5.94498e+09 0.459795
5.95002e+09 0.459838
5.955e+09 0.459881
5.95998e+09 0.459924
5.96502e+09 0.459967
5.97e+09 0.460009
5.97498e+09 0.460052
5.98002e+09 0.460095
5.985e+09 0.460137
5.98998e+09 0.460179
5.99502e+09 0.460222
6e+09 0.460265
6.00498e+09 0.460307
6.01002e+09 0.46035
6.015e+09 0.460392
6.01998e+09 0.460434
6.02502e+09 0.460477
6.03e+09 0.460519
6.03498e+09 0.460561
6.04002e+09 0.460604
6.045e+09 0.460646
6.04998e+09 0.460688
6.05502e+09 0.46073
6.06e+09 0.460772
6.06498e+09 0.460814
6.07002e+09 0.460856
6.075e+09 0.460898
6.07998e+09 0.46094
6.08502e+09 0.460982
6.09e+09 0.461024
6.09498e+09 0.461066
6.10002e+09 0.461108
6.105e+09 0.461149
6.10998e+09 0.461191
6.11502e+09 0.461233
6.12e+09 0.461275
6.12498e+09 0.461316
6.13002e+09 0.461358
6.135e+09 0.461399
6.13998e+09 0.46144
6.14502e+09 0.461483
6.15e+09 0.461524
6.15498e+09 0.461565
6.16002e+09 0.461607
6.165e+09 0.461648
6.16998e+09 0.461689
6.17502e+09 0.461731
6.18e+09 0.461772
6.18498e+09 0.461814
6.19002e+09 0.461855
6.195e+09 0.461896
6.19998e+09 0.461937
6.20502e+09 0.461979
6.21e+09 0.46202
6.21498e+09 0.462061
6.22002e+09 0.462103
6.225e+09 0.462144
6.22998e+09 0.462184
6.23502e+09 0.462226
6.24e+09 0.462267
6.24498e+09 0.462308
6.25002e+09 0.462349
6.255e+09 0.46239
6.25998e+09 0.462431
6.26502e+09 0.462472
6.27e+09 0.462512
6.27498e+09 0.462554
6.28002e+09 0.462595
6.285e+09 0.462635
6.28998e+09 0.462676
6.29502e+09 0.462718
6.3e+09 0.462758
6.30498e+09 0.462799
6.31002e+09 0.46284
6.315e+09 0.462881
6.31998e+09 0.462921
6.32502e+09 0.462962
6.33e+09 0.463003
6.33498e+09 0.463043
6.34002e+09 0.463084
6.345e+09 0.463125
6.34998e+09 0.463166
6.35502e+09 0.463207
6.36e+09 0.463247
6.36498e+09 0.463287
6.37002e+09 0.463328
6.375e+09 0.463369
6.37998e+09 0.463409
6.38502e+09 0.46345
6.39e+09 0.463491
6.39498e+09 0.463531
6.40002e+09 0.463572
6.405e+09 0.463612
6.40998e+09 0.463653
6.41502e+09 0.463693
6.42e+09 0.463734
6.42498e+09 0.463774
6.43002e+09 0.463815
6.435e+09 0.463855
6.43998e+09 0.463895
6.44502e+09 0.463936
6.45e+09 0.463976
6.45498e+09 0.464016
6.46002e+09 0.464057
6.465e+09 0.464097
6.46998e+09 0.464137
6.47502e+09 0.464178
6.48e+09 0.464218
6.48498e+09 0.464259
6.49002e+09 0.464299
6.495e+09 0.46434
6.49998e+09 0.464379
6.50502e+09 0.46442
6.51e+09 0.46446
6.51498e+09 0.4645
6.52002e+09 0.464541
6.525e+09 0.464581
6.52998e+09 0.464621
6.53502e+09 0.464662
6.54e+09 0.464702
6.54498e+09 0.464742
6.55002e+09 0.464782
6.555e+09 0.464823
6.55998e+09 0.464863
6.56502e+09 0.464903
6.57e+09 0.464943
6.57498e+09 0.464983
6.58002e+09 0.465024
6.585e+09 0.465064
6.58998e+09 0.465104
6.59502e+09 0.465144
6.6e+09 0.465184
6.60498e+09 0.465224
6.61002e+09 0.465264
6.615e+09 0.465305
6.61998e+09 0.465344
6.62502e+09 0.465385
6.63e+09 0.465425
6.63498e+09 0.465465
6.64002e+09 0.465505
6.645e+09 0.465545
6.64998e+09 0.465585
6.65502e+09 0.465626
6.66e+09 0.465666
6.66498e+09 0.465705
6.67002e+09 0.465746
6.675e+09 0.465786
6.67998e+09 0.465826
6.68502e+09 0.465866
6.69e+09 0.465906
6.69498e+09 0.465946
6.70002e+09 0.465986
6.705e+09 0.466026
6.70998e+09 0.466066
6.71502e+09 0.466106
6.72e+09 0.466146
6.72498e+09 0.466186
6.73002e+09 0.466226
6.735e+09 0.466266
6.73998e+09 0.466306
6.74502e+09 0.466347
6.75e+09 0.466386
6.75498e+09 0.466426
6.76002e+09 0.466467
6.765e+09 0.466506
6.76998e+09 0.466546
6.77502e+09 0.466586
6.78e+09 0.466626
6.78498e+09 0.466666
6.79002e+09 0.466706
6.795e+09 0.466746
6.79998e+09 0.466785
6.80502e+09 0.466826
6.81e+09 0.466866
6.81498e+09 0.466906
6.82002e+09 0.466946
6.825e+09 0.466985
6.82998e+09 0.467025
6.83502e+09 0.467066
6.84e+09 0.467105
6.84498e+09 0.467145
6.85002e+09 0.467185
6.855e+09 0.467225
6.85998e+09 0.467264
6.86502e+09 0.467305
6.87e+09 0.467344
6.87498e+09 0.467384
6.88002e+09 0.467425
6.885e+09 0.467464
6.88998e+09 0.467504
6.89502e+09 0.467544
6.9e+09 0.467583
6.90498e+09 0.467623
6.91002e+09 0.467663
6.915e+09 0.467703
6.91998e+09 0.467743
6.92502e+09 0.467783
6.93e+09 0.467822
6.93498e+09 0.467862
6.94002e+09 0.467902
6.945e+09 0.467941
6.94998e+09 0.467981
6.95502e+09 0.468021
6.96e+09 0.468061
6.96498e+09 0.4681
6.97002e+09 0.468141
6.975e+09 0.46818
6.97998e+09 0.468219
6.98502e+09 0.468259
6.99e+09 0.468299
6.99498e+09 0.468338
7.00002e+09 0.468379
7.005e+09 0.468418
7.00998e+09 0.468457
7.01502e+09 0.468497
7.02e+09 0.468537
7.02498e+09 0.468576
7.03002e+09 0.468616
7.035e+09 0.468656
7.03998e+09 0.468695
7.04502e+09 0.468735
7.05e+09 0.468775
7.05498e+09 0.468814
7.06002e+09 0.468854
7.065e+09 0.468894
7.06998e+09 0.468932
7.07502e+09 0.468973
7.08e+09 0.469012
7.08498e+09 0.469052
7.09002e+09 0.469091
7.095e+09 0.469131
7.09998e+09 0.46917
7.10502e+09 0.46921
7.11e+09 0.469249
7.11498e+09 0.469289
7.12002e+09 0.469328
7.125e+09 0.469368
7.12998e+09 0.469407
7.13502e+09 0.469446
7.14e+09 0.469486
7.14498e+09 0.469525
7.15002e+09 0.469565
7.155e+09 0.469604
7.15998e+09 0.469643
7.16502e+09 0.469683
7.17e+09 0.469722
7.17498e+09 0.469761
7.18002e+09 0.469801
7.185e+09 0.46984
7.18998e+09 0.469879
7.19502e+09 0.469918
7.2e+09 0.469957
7.20498e+09 0.469997
7.21002e+09 0.470036
7.215e+09 0.470075
7.21998e+09 0.470114
7.22502e+09 0.470154
7.23e+09 0.470192
7.23498e+09 0.470231
7.24002e+09 0.470271
7.245e+09 0.47031
7.24998e+09 0.470349
7.25502e+09 0.470388
7.26e+09 0.470427
7.26498e+09 0.470466
7.27002e+09 0.470505
7.275e+09 0.470544
7.27998e+09 0.470583
7.28502e+09 0.470622
7.29e+09 0.470661
7.29498e+09 0.4707
7.30002e+09 0.470739
7.305e+09 0.470777
7.30998e+09 0.470816
7.31502e+09 0.470855
7.32e+09 0.470894
7.32498e+09 0.470933
7.33002e+09 0.470972
7.335e+09 0.47101
7.33998e+09 0.471049
7.34502e+09 0.471088
7.35e+09 0.471127
7.35498e+09 0.471165
7.36002e+09 0.471204
7.365e+09 0.471242
7.36998e+09 0.471281
7.37502e+09 0.47132
7.38e+09 0.471358
7.38498e+09 0.471397
7.39002e+09 0.471435
7.395e+09 0.471474
7.39998e+09 0.471512
7.40502e+09 0.471551
7.41e+09 0.471589
7.41498e+09 0.471627
7.42002e+09 0.471666
7.425e+09 0.471705
7.42998e+09 0.471743
7.43502e+09 0.471781
7.44e+09 0.471819
7.44498e+09 0.471857
7.45002e+09 0.471896
7.455e+09 0.471934
7.45998e+09 0.471972
7.46502e+09 0.47201
7.47e+09 0.472048
7.47498e+09 0.472086
7.48002e+09 0.472125
7.485e+09 0.472163
7.48998e+09 0.472201
7.49502e+09 0.472239
7.5e+09 0.472277
7.50498e+09 0.472315
7.51002e+09 0.472353
7.515e+09 0.472391
7.51998e+09 0.472429
7.52502e+09 0.472467
7.53e+09 0.472504
7.53498e+09 0.472542