/*--------------------------------*- C++ -*----------------------------------*\
  =========                 |
  \\      /  F ield         | OpenFOAM: The Open Source CFD Toolbox
   \\    /   O peration     | Website:  https://openfoam.org
    \\  /    A nd           | Version:  7
     \\/     M anipulation  |
\*---------------------------------------------------------------------------*/
FoamFile
{
    version     2.0;
    format      ascii;
    class       volScalarField;
    location    "2399.99947344063412";
    object      p;
}
// * * * * * * * * * * * * * * * * * * * * * * * * * * * * * * * * * * * * * //

dimensions      [0 2 -2 0 0 0 0];

internalField   nonuniform List<scalar> 
4096
(
0.0005545
0.0003836
0.0002994
0.0002572
0.0002338
0.0002199
0.000211
0.0002049
0.0002005
0.0001972
0.0001947
0.0001926
0.000191
0.0001896
0.0001884
0.0001874
0.0001865
0.0001857
0.000185
0.0001844
0.0001838
0.0001832
0.0001826
0.0001821
0.0001816
0.0001811
0.0001807
0.0001802
0.0001797
0.0001793
0.0001788
0.0001783
0.0001778
0.0001773
0.0001768
0.0001763
0.0001757
0.0001751
0.0001745
0.0001738
0.000173
0.0001722
0.0001712
0.0001702
0.0001691
0.0001678
0.0001663
0.0001647
0.0001628
0.0001608
0.0001585
0.0001559
0.0001531
0.0001499
0.0001465
0.0001427
0.0001386
0.0001343
0.0001296
0.0001247
0.0001195
0.0001142
0.0001087
0.0001031
9.746e-05
9.184e-05
8.627e-05
8.082e-05
7.552e-05
7.041e-05
6.552e-05
6.088e-05
5.65e-05
5.239e-05
4.858e-05
4.504e-05
4.179e-05
3.881e-05
3.609e-05
3.363e-05
3.14e-05
2.94e-05
2.759e-05
2.597e-05
2.451e-05
2.321e-05
2.204e-05
2.098e-05
2.002e-05
1.916e-05
1.836e-05
1.764e-05
1.696e-05
1.634e-05
1.575e-05
1.519e-05
1.465e-05
1.414e-05
1.364e-05
1.316e-05
1.268e-05
1.222e-05
1.175e-05
1.13e-05
1.084e-05
1.038e-05
9.926e-06
9.47e-06
9.012e-06
8.553e-06
8.093e-06
7.63e-06
7.164e-06
6.697e-06
6.227e-06
5.754e-06
5.278e-06
4.8e-06
4.319e-06
3.835e-06
3.35e-06
2.862e-06
2.373e-06
1.885e-06
1.4e-06
9.246e-07
4.694e-07
1.015e-07
0.0004101
0.0003463
0.0002965
0.0002645
0.0002435
0.0002292
0.0002192
0.0002118
0.0002063
0.0002021
0.0001988
0.0001961
0.0001939
0.0001921
0.0001906
0.0001892
0.0001881
0.0001871
0.0001861
0.0001853
0.0001845
0.0001838
0.0001831
0.0001825
0.0001819
0.0001813
0.0001807
0.0001802
0.0001796
0.000179
0.0001785
0.0001779
0.0001773
0.0001767
0.0001761
0.0001755
0.0001748
0.0001741
0.0001733
0.0001725
0.0001717
0.0001707
0.0001697
0.0001685
0.0001673
0.0001659
0.0001643
0.0001626
0.0001607
0.0001586
0.0001563
0.0001537
0.0001509
0.0001477
0.0001444
0.0001407
0.0001367
0.0001325
0.000128
0.0001233
0.0001184
0.0001133
0.0001081
0.0001028
9.742e-05
9.207e-05
8.678e-05
8.159e-05
7.654e-05
7.165e-05
6.697e-05
6.25e-05
5.827e-05
5.429e-05
5.057e-05
4.711e-05
4.391e-05
4.095e-05
3.824e-05
3.576e-05
3.35e-05
3.144e-05
2.958e-05
2.789e-05
2.635e-05
2.496e-05
2.37e-05
2.255e-05
2.15e-05
2.054e-05
1.966e-05
1.884e-05
1.808e-05
1.737e-05
1.67e-05
1.606e-05
1.546e-05
1.488e-05
1.432e-05
1.377e-05
1.324e-05
1.272e-05
1.221e-05
1.171e-05
1.121e-05
1.072e-05
1.023e-05
9.741e-06
9.256e-06
8.771e-06
8.288e-06
7.804e-06
7.32e-06
6.836e-06
6.351e-06
5.865e-06
5.378e-06
4.89e-06
4.401e-06
3.91e-06
3.419e-06
2.928e-06
2.436e-06
1.947e-06
1.461e-06
9.824e-07
5.174e-07
1.214e-07
0.0003266
0.0003049
0.0002795
0.0002587
0.0002432
0.0002315
0.0002225
0.0002154
0.0002099
0.0002054
0.0002018
0.0001988
0.0001963
0.0001942
0.0001924
0.0001908
0.0001894
0.0001882
0.0001871
0.0001862
0.0001852
0.0001844
0.0001836
0.0001829
0.0001821
0.0001814
0.0001808
0.0001801
0.0001795
0.0001788
0.0001781
0.0001775
0.0001768
0.0001761
0.0001754
0.0001747
0.0001739
0.0001731
0.0001723
0.0001714
0.0001704
0.0001693
0.0001682
0.000167
0.0001656
0.0001641
0.0001625
0.0001607
0.0001588
0.0001566
0.0001543
0.0001517
0.0001489
0.0001458
0.0001425
0.0001389
0.0001351
0.000131
0.0001267
0.0001221
0.0001174
0.0001125
0.0001075
0.0001025
9.736e-05
9.226e-05
8.721e-05
8.224e-05
7.741e-05
7.272e-05
6.822e-05
6.392e-05
5.983e-05
5.597e-05
5.235e-05
4.896e-05
4.581e-05
4.288e-05
4.019e-05
3.77e-05
3.542e-05
3.333e-05
3.142e-05
2.967e-05
2.807e-05
2.661e-05
2.527e-05
2.404e-05
2.291e-05
2.187e-05
2.09e-05
2e-05
1.916e-05
1.837e-05
1.763e-05
1.692e-05
1.625e-05
1.56e-05
1.498e-05
1.438e-05
1.379e-05
1.322e-05
1.267e-05
1.212e-05
1.159e-05
1.106e-05
1.053e-05
1.002e-05
9.503e-06
8.994e-06
8.487e-06
7.983e-06
7.48e-06
6.979e-06
6.48e-06
5.98e-06
5.482e-06
4.984e-06
4.486e-06
3.988e-06
3.49e-06
2.993e-06
2.497e-06
2.002e-06
1.51e-06
1.023e-06
5.426e-07
1.245e-07
0.0002819
0.0002748
0.0002615
0.0002483
0.0002374
0.0002286
0.0002215
0.0002156
0.0002107
0.0002066
0.0002031
0.0002002
0.0001976
0.0001955
0.0001936
0.0001919
0.0001904
0.0001891
0.0001879
0.0001868
0.0001858
0.0001849
0.000184
0.0001831
0.0001823
0.0001815
0.0001808
0.00018
0.0001793
0.0001786
0.0001778
0.0001771
0.0001764
0.0001756
0.0001748
0.000174
0.0001731
0.0001722
0.0001713
0.0001703
0.0001693
0.0001681
0.0001669
0.0001656
0.0001642
0.0001627
0.000161
0.0001592
0.0001572
0.000155
0.0001526
0.0001501
0.0001473
0.0001443
0.000141
0.0001375
0.0001338
0.0001298
0.0001256
0.0001212
0.0001167
0.0001119
0.0001071
0.0001022
9.73e-05
9.238e-05
8.751e-05
8.273e-05
7.806e-05
7.354e-05
6.918e-05
6.502e-05
6.105e-05
5.73e-05
5.376e-05
5.044e-05
4.734e-05
4.446e-05
4.178e-05
3.93e-05
3.701e-05
3.49e-05
3.296e-05
3.118e-05
2.953e-05
2.802e-05
2.662e-05
2.533e-05
2.414e-05
2.303e-05
2.2e-05
2.103e-05
2.012e-05
1.927e-05
1.846e-05
1.769e-05
1.696e-05
1.626e-05
1.558e-05
1.493e-05
1.43e-05
1.369e-05
1.309e-05
1.251e-05
1.193e-05
1.137e-05
1.082e-05
1.027e-05
9.735e-06
9.202e-06
8.674e-06
8.151e-06
7.632e-06
7.115e-06
6.601e-06
6.09e-06
5.58e-06
5.072e-06
4.565e-06
4.06e-06
3.555e-06
3.051e-06
2.549e-06
2.047e-06
1.547e-06
1.049e-06
5.541e-07
1.219e-07
0.000255
0.000254
0.000247
0.0002384
0.0002306
0.000224
0.0002185
0.0002138
0.0002098
0.0002063
0.0002032
0.0002005
0.0001981
0.000196
0.0001942
0.0001925
0.000191
0.0001896
0.0001884
0.0001872
0.0001862
0.0001852
0.0001842
0.0001833
0.0001824
0.0001816
0.0001808
0.00018
0.0001792
0.0001784
0.0001776
0.0001768
0.0001759
0.0001751
0.0001743
0.0001734
0.0001725
0.0001715
0.0001705
0.0001694
0.0001683
0.0001671
0.0001658
0.0001645
0.000163
0.0001614
0.0001597
0.0001579
0.0001559
0.0001537
0.0001513
0.0001488
0.000146
0.000143
0.0001398
0.0001364
0.0001328
0.0001289
0.0001248
0.0001205
0.0001161
0.0001115
0.0001068
0.000102
9.723e-05
9.245e-05
8.772e-05
8.307e-05
7.853e-05
7.414e-05
6.991e-05
6.585e-05
6.199e-05
5.832e-05
5.486e-05
5.161e-05
4.856e-05
4.571e-05
4.306e-05
4.059e-05
3.831e-05
3.619e-05
3.424e-05
3.243e-05
3.075e-05
2.92e-05
2.776e-05
2.643e-05
2.518e-05
2.402e-05
2.294e-05
2.192e-05
2.096e-05
2.005e-05
1.919e-05
1.837e-05
1.759e-05
1.684e-05
1.612e-05
1.542e-05
1.475e-05
1.41e-05
1.347e-05
1.285e-05
1.225e-05
1.165e-05
1.108e-05
1.051e-05
9.944e-06
9.391e-06
8.845e-06
8.304e-06
7.769e-06
7.239e-06
6.713e-06
6.19e-06
5.67e-06
5.153e-06
4.638e-06
4.125e-06
3.613e-06
3.102e-06
2.593e-06
2.084e-06
1.576e-06
1.069e-06
5.611e-07
1.189e-07
0.0002376
0.0002391
0.0002358
0.0002301
0.0002244
0.0002193
0.000215
0.0002113
0.000208
0.000205
0.0002024
0.0002001
0.0001979
0.000196
0.0001943
0.0001927
0.0001912
0.0001898
0.0001886
0.0001874
0.0001863
0.0001853
0.0001843
0.0001834
0.0001825
0.0001816
0.0001807
0.0001799
0.000179
0.0001782
0.0001773
0.0001765
0.0001756
0.0001747
0.0001738
0.0001729
0.0001719
0.0001709
0.0001698
0.0001687
0.0001675
0.0001663
0.000165
0.0001635
0.000162
0.0001604
0.0001587
0.0001568
0.0001548
0.0001526
0.0001503
0.0001478
0.0001451
0.0001421
0.000139
0.0001356
0.000132
0.0001282
0.0001242
0.00012
0.0001156
0.0001111
0.0001065
0.0001019
9.715e-05
9.247e-05
8.784e-05
8.329e-05
7.886e-05
7.456e-05
7.042e-05
6.646e-05
6.268e-05
5.909e-05
5.569e-05
5.249e-05
4.949e-05
4.668e-05
4.405e-05
4.161e-05
3.933e-05
3.722e-05
3.526e-05
3.344e-05
3.174e-05
3.017e-05
2.87e-05
2.733e-05
2.605e-05
2.485e-05
2.373e-05
2.267e-05
2.166e-05
2.071e-05
1.981e-05
1.895e-05
1.813e-05
1.734e-05
1.658e-05
1.585e-05
1.514e-05
1.446e-05
1.379e-05
1.315e-05
1.252e-05
1.19e-05
1.13e-05
1.071e-05
1.013e-05
9.556e-06
8.994e-06
8.439e-06
7.89e-06
7.348e-06
6.81e-06
6.278e-06
5.749e-06
5.223e-06
4.701e-06
4.181e-06
3.663e-06
3.146e-06
2.63e-06
2.115e-06
1.6e-06
1.084e-06
5.667e-07
1.167e-07
0.0002257
0.0002282
0.0002269
0.0002232
0.000219
0.0002151
0.0002116
0.0002085
0.0002058
0.0002034
0.0002011
0.0001991
0.0001973
0.0001955
0.000194
0.0001925
0.0001911
0.0001898
0.0001886
0.0001875
0.0001864
0.0001853
0.0001843
0.0001834
0.0001824
0.0001815
0.0001806
0.0001798
0.0001789
0.000178
0.0001771
0.0001762
0.0001753
0.0001744
0.0001734
0.0001724
0.0001714
0.0001703
0.0001692
0.0001681
0.0001669
0.0001656
0.0001642
0.0001628
0.0001613
0.0001597
0.0001579
0.000156
0.000154
0.0001519
0.0001495
0.000147
0.0001443
0.0001414
0.0001383
0.000135
0.0001315
0.0001277
0.0001238
0.0001196
0.0001153
0.0001109
0.0001063
0.0001017
9.706e-05
9.244e-05
8.788e-05
8.34e-05
7.904e-05
7.482e-05
7.076e-05
6.686e-05
6.315e-05
5.962e-05
5.628e-05
5.313e-05
5.016e-05
4.739e-05
4.479e-05
4.237e-05
4.011e-05
3.801e-05
3.605e-05
3.422e-05
3.252e-05
3.093e-05
2.945e-05
2.805e-05
2.675e-05
2.552e-05
2.437e-05
2.327e-05
2.224e-05
2.125e-05
2.032e-05
1.942e-05
1.857e-05
1.775e-05
1.696e-05
1.62e-05
1.546e-05
1.475e-05
1.406e-05
1.339e-05
1.274e-05
1.211e-05
1.148e-05
1.088e-05
1.028e-05
9.694e-06
9.118e-06
8.55e-06
7.99e-06
7.438e-06
6.891e-06
6.35e-06
5.814e-06
5.282e-06
4.753e-06
4.228e-06
3.704e-06
3.182e-06
2.661e-06
2.14e-06
1.62e-06
1.097e-06
5.72e-07
1.158e-07
0.0002171
0.0002198
0.0002197
0.0002175
0.0002144
0.0002113
0.0002084
0.0002059
0.0002036
0.0002015
0.0001997
0.0001979
0.0001963
0.0001948
0.0001934
0.000192
0.0001908
0.0001896
0.0001884
0.0001873
0.0001863
0.0001852
0.0001843
0.0001833
0.0001824
0.0001814
0.0001805
0.0001796
0.0001787
0.0001778
0.0001769
0.000176
0.000175
0.0001741
0.0001731
0.0001721
0.000171
0.0001699
0.0001688
0.0001676
0.0001664
0.0001651
0.0001637
0.0001623
0.0001607
0.0001591
0.0001573
0.0001555
0.0001535
0.0001513
0.000149
0.0001465
0.0001439
0.000141
0.0001379
0.0001347
0.0001312
0.0001274
0.0001235
0.0001194
0.0001151
0.0001107
0.0001062
0.0001016
9.696e-05
9.237e-05
8.785e-05
8.342e-05
7.911e-05
7.494e-05
7.093e-05
6.708e-05
6.342e-05
5.994e-05
5.664e-05
5.353e-05
5.061e-05
4.786e-05
4.529e-05
4.289e-05
4.065e-05
3.856e-05
3.661e-05
3.479e-05
3.309e-05
3.149e-05
3e-05
2.86e-05
2.728e-05
2.603e-05
2.485e-05
2.374e-05
2.268e-05
2.167e-05
2.071e-05
1.979e-05
1.891e-05
1.807e-05
1.725e-05
1.647e-05
1.572e-05
1.498e-05
1.428e-05
1.359e-05
1.292e-05
1.227e-05
1.163e-05
1.101e-05
1.04e-05
9.8e-06
9.214e-06
8.637e-06
8.068e-06
7.508e-06
6.954e-06
6.407e-06
5.865e-06
5.327e-06
4.794e-06
4.264e-06
3.736e-06
3.21e-06
2.685e-06
2.161e-06
1.636e-06
1.109e-06
5.777e-07
1.163e-07
0.0002106
0.0002133
0.0002139
0.0002126
0.0002104
0.000208
0.0002056
0.0002035
0.0002015
0.0001998
0.0001981
0.0001966
0.0001952
0.0001939
0.0001927
0.0001914
0.0001903
0.0001892
0.0001881
0.0001871
0.000186
0.0001851
0.0001841
0.0001832
0.0001822
0.0001813
0.0001804
0.0001795
0.0001786
0.0001777
0.0001767
0.0001758
0.0001748
0.0001739
0.0001729
0.0001718
0.0001708
0.0001697
0.0001685
0.0001673
0.0001661
0.0001647
0.0001634
0.0001619
0.0001603
0.0001587
0.000157
0.0001551
0.0001531
0.000151
0.0001487
0.0001462
0.0001436
0.0001408
0.0001377
0.0001345
0.000131
0.0001273
0.0001234
0.0001193
0.000115
0.0001106
0.0001061
0.0001015
9.685e-05
9.226e-05
8.775e-05
8.334e-05
7.905e-05
7.492e-05
7.094e-05
6.714e-05
6.351e-05
6.006e-05
5.68e-05
5.372e-05
5.083e-05
4.811e-05
4.557e-05
4.319e-05
4.097e-05
3.89e-05
3.696e-05
3.515e-05
3.345e-05
3.186e-05
3.037e-05
2.896e-05
2.764e-05
2.638e-05
2.519e-05
2.406e-05
2.299e-05
2.197e-05
2.099e-05
2.005e-05
1.916e-05
1.829e-05
1.746e-05
1.667e-05
1.589e-05
1.515e-05
1.443e-05
1.372e-05
1.304e-05
1.238e-05
1.173e-05
1.11e-05
1.048e-05
9.874e-06
9.28e-06
8.696e-06
8.121e-06
7.555e-06
6.997e-06
6.445e-06
5.899e-06
5.358e-06
4.822e-06
4.289e-06
3.759e-06
3.23e-06
2.703e-06
2.177e-06
1.649e-06
1.119e-06
5.841e-07
1.185e-07
0.0002056
0.0002081
0.000209
0.0002084
0.000207
0.0002051
0.0002032
0.0002013
0.0001996
0.0001981
0.0001967
0.0001954
0.0001941
0.000193
0.0001918
0.0001908
0.0001897
0.0001887
0.0001877
0.0001867
0.0001858
0.0001848
0.0001839
0.000183
0.0001821
0.0001812
0.0001803
0.0001794
0.0001785
0.0001775
0.0001766
0.0001757
0.0001747
0.0001737
0.0001727
0.0001717
0.0001706
0.0001695
0.0001683
0.0001671
0.0001659
0.0001645
0.0001632
0.0001617
0.0001602
0.0001585
0.0001568
0.0001549
0.000153
0.0001509
0.0001486
0.0001462
0.0001436
0.0001407
0.0001377
0.0001345
0.000131
0.0001274
0.0001235
0.0001193
0.000115
0.0001106
0.000106
0.0001014
9.671e-05
9.211e-05
8.758e-05
8.317e-05
7.889e-05
7.477e-05
7.082e-05
6.703e-05
6.342e-05
6e-05
5.676e-05
5.37e-05
5.083e-05
4.814e-05
4.562e-05
4.327e-05
4.107e-05
3.902e-05
3.71e-05
3.531e-05
3.362e-05
3.205e-05
3.056e-05
2.916e-05
2.783e-05
2.658e-05
2.538e-05
2.425e-05
2.317e-05
2.214e-05
2.115e-05
2.021e-05
1.93e-05
1.843e-05
1.759e-05
1.678e-05
1.6e-05
1.524e-05
1.451e-05
1.38e-05
1.311e-05
1.244e-05
1.179e-05
1.115e-05
1.052e-05
9.914e-06
9.315e-06
8.727e-06
8.149e-06
7.58e-06
7.019e-06
6.465e-06
5.917e-06
5.374e-06
4.836e-06
4.302e-06
3.771e-06
3.243e-06
2.715e-06
2.187e-06
1.659e-06
1.127e-06
5.912e-07
1.223e-07
0.0002015
0.0002038
0.000205
0.0002049
0.0002039
0.0002025
0.000201
0.0001994
0.0001979
0.0001966
0.0001953
0.0001942
0.0001931
0.000192
0.000191
0.00019
0.0001891
0.0001881
0.0001872
0.0001863
0.0001854
0.0001845
0.0001837
0.0001828
0.0001819
0.000181
0.0001801
0.0001793
0.0001784
0.0001775
0.0001765
0.0001756
0.0001746
0.0001737
0.0001727
0.0001716
0.0001705
0.0001694
0.0001683
0.0001671
0.0001658
0.0001645
0.0001631
0.0001617
0.0001602
0.0001585
0.0001568
0.000155
0.000153
0.0001509
0.0001487
0.0001463
0.0001437
0.0001409
0.0001379
0.0001347
0.0001313
0.0001276
0.0001236
0.0001195
0.0001151
0.0001106
0.000106
0.0001013
9.656e-05
9.19e-05
8.734e-05
8.291e-05
7.862e-05
7.45e-05
7.054e-05
6.676e-05
6.316e-05
5.975e-05
5.652e-05
5.348e-05
5.062e-05
4.795e-05
4.546e-05
4.313e-05
4.096e-05
3.893e-05
3.704e-05
3.527e-05
3.36e-05
3.204e-05
3.057e-05
2.918e-05
2.787e-05
2.662e-05
2.543e-05
2.43e-05
2.322e-05
2.219e-05
2.12e-05
2.025e-05
1.934e-05
1.847e-05
1.762e-05
1.681e-05
1.603e-05
1.527e-05
1.453e-05
1.382e-05
1.313e-05
1.245e-05
1.18e-05
1.116e-05
1.053e-05
9.918e-06
9.318e-06
8.729e-06
8.15e-06
7.58e-06
7.019e-06
6.465e-06
5.917e-06
5.375e-06
4.838e-06
4.305e-06
3.774e-06
3.246e-06
2.72e-06
2.193e-06
1.665e-06
1.135e-06
5.993e-07
1.28e-07
0.0001982
0.0002003
0.0002016
0.0002018
0.0002012
0.0002002
0.000199
0.0001977
0.0001964
0.0001952
0.0001941
0.0001931
0.0001921
0.0001911
0.0001902
0.0001893
0.0001885
0.0001876
0.0001868
0.0001859
0.0001851
0.0001842
0.0001834
0.0001826
0.0001817
0.0001809
0.00018
0.0001792
0.0001783
0.0001774
0.0001765
0.0001756
0.0001746
0.0001737
0.0001727
0.0001717
0.0001706
0.0001695
0.0001684
0.0001672
0.0001659
0.0001646
0.0001633
0.0001618
0.0001603
0.0001587
0.000157
0.0001552
0.0001533
0.0001512
0.000149
0.0001467
0.0001441
0.0001413
0.0001383
0.0001351
0.0001317
0.0001279
0.000124
0.0001198
0.0001153
0.0001107
0.000106
0.0001012
9.638e-05
9.165e-05
8.703e-05
8.256e-05
7.824e-05
7.41e-05
7.013e-05
6.633e-05
6.272e-05
5.93e-05
5.607e-05
5.304e-05
5.019e-05
4.754e-05
4.507e-05
4.276e-05
4.062e-05
3.863e-05
3.677e-05
3.503e-05
3.339e-05
3.186e-05
3.041e-05
2.904e-05
2.774e-05
2.651e-05
2.533e-05
2.421e-05
2.314e-05
2.212e-05
2.114e-05
2.019e-05
1.929e-05
1.842e-05
1.758e-05
1.676e-05
1.598e-05
1.522e-05
1.449e-05
1.378e-05
1.309e-05
1.242e-05
1.176e-05
1.112e-05
1.05e-05
9.887e-06
9.289e-06
8.702e-06
8.125e-06
7.557e-06
6.998e-06
6.446e-06
5.901e-06
5.361e-06
4.826e-06
4.295e-06
3.768e-06
3.242e-06
2.718e-06
2.194e-06
1.669e-06
1.141e-06
6.084e-07
1.354e-07
0.0001954
0.0001974
0.0001987
0.0001991
0.0001988
0.0001981
0.0001972
0.0001961
0.0001951
0.000194
0.000193
0.000192
0.0001911
0.0001903
0.0001895
0.0001886
0.0001879
0.0001871
0.0001863
0.0001855
0.0001847
0.0001839
0.0001832
0.0001824
0.0001816
0.0001808
0.0001799
0.0001791
0.0001783
0.0001774
0.0001765
0.0001756
0.0001747
0.0001738
0.0001728
0.0001718
0.0001707
0.0001697
0.0001685
0.0001674
0.0001662
0.0001649
0.0001636
0.0001622
0.0001607
0.0001591
0.0001575
0.0001557
0.0001538
0.0001518
0.0001496
0.0001472
0.0001447
0.000142
0.000139
0.0001357
0.0001323
0.0001285
0.0001245
0.0001202
0.0001156
0.0001109
0.000106
0.0001011
9.617e-05
9.134e-05
8.664e-05
8.21e-05
7.774e-05
7.356e-05
6.955e-05
6.572e-05
6.209e-05
5.865e-05
5.54e-05
5.236e-05
4.953e-05
4.689e-05
4.444e-05
4.217e-05
4.007e-05
3.811e-05
3.629e-05
3.459e-05
3.3e-05
3.149e-05
3.008e-05
2.874e-05
2.746e-05
2.625e-05
2.51e-05
2.4e-05
2.294e-05
2.193e-05
2.096e-05
2.003e-05
1.913e-05
1.827e-05
1.744e-05
1.664e-05
1.586e-05
1.511e-05
1.439e-05
1.368e-05
1.3e-05
1.233e-05
1.168e-05
1.105e-05
1.043e-05
9.823e-06
9.229e-06
8.646e-06
8.074e-06
7.511e-06
6.956e-06
6.408e-06
5.867e-06
5.332e-06
4.801e-06
4.274e-06
3.751e-06
3.23e-06
2.71e-06
2.191e-06
1.67e-06
1.147e-06
6.186e-07
1.447e-07
0.0001931
0.0001949
0.0001962
0.0001968
0.0001967
0.0001963
0.0001956
0.0001947
0.0001938
0.0001929
0.000192
0.0001911
0.0001903
0.0001895
0.0001888
0.000188
0.0001873
0.0001866
0.0001858
0.0001851
0.0001844
0.0001837
0.0001829
0.0001822
0.0001814
0.0001807
0.0001799
0.0001791
0.0001783
0.0001774
0.0001766
0.0001757
0.0001748
0.0001739
0.000173
0.000172
0.000171
0.00017
0.0001689
0.0001677
0.0001666
0.0001653
0.000164
0.0001627
0.0001612
0.0001597
0.0001581
0.0001564
0.0001545
0.0001525
0.0001504
0.0001481
0.0001456
0.0001428
0.0001399
0.0001366
0.0001331
0.0001293
0.0001252
0.0001208
0.0001161
0.0001112
0.0001061
0.000101
9.594e-05
9.097e-05
8.616e-05
8.154e-05
7.711e-05
7.286e-05
6.879e-05
6.492e-05
6.123e-05
5.775e-05
5.449e-05
5.144e-05
4.861e-05
4.599e-05
4.357e-05
4.134e-05
3.928e-05
3.738e-05
3.561e-05
3.395e-05
3.241e-05
3.095e-05
2.957e-05
2.827e-05
2.703e-05
2.585e-05
2.473e-05
2.365e-05
2.262e-05
2.163e-05
2.068e-05
1.977e-05
1.889e-05
1.804e-05
1.723e-05
1.644e-05
1.568e-05
1.494e-05
1.422e-05
1.353e-05
1.285e-05
1.22e-05
1.156e-05
1.093e-05
1.032e-05
9.725e-06
9.139e-06
8.564e-06
7.998e-06
7.442e-06
6.894e-06
6.352e-06
5.817e-06
5.288e-06
4.763e-06
4.243e-06
3.725e-06
3.21e-06
2.696e-06
2.183e-06
1.668e-06
1.151e-06
6.297e-07
1.556e-07
0.0001911
0.0001928
0.0001941
0.0001947
0.0001949
0.0001946
0.0001941
0.0001935
0.0001927
0.0001919
0.0001911
0.0001903
0.0001896
0.0001889
0.0001882
0.0001875
0.0001868
0.0001861
0.0001855
0.0001848
0.0001841
0.0001834
0.0001827
0.000182
0.0001813
0.0001806
0.0001798
0.0001791
0.0001783
0.0001775
0.0001767
0.0001759
0.000175
0.0001742
0.0001733
0.0001723
0.0001713
0.0001703
0.0001693
0.0001682
0.0001671
0.0001659
0.0001646
0.0001633
0.0001619
0.0001605
0.0001589
0.0001573
0.0001555
0.0001536
0.0001515
0.0001492
0.0001467
0.000144
0.000141
0.0001378
0.0001342
0.0001303
0.0001261
0.0001215
0.0001167
0.0001116
0.0001063
0.000101
9.567e-05
9.053e-05
8.558e-05
8.085e-05
7.631e-05
7.198e-05
6.783e-05
6.387e-05
6.012e-05
5.659e-05
5.329e-05
5.023e-05
4.741e-05
4.481e-05
4.243e-05
4.026e-05
3.826e-05
3.641e-05
3.47e-05
3.311e-05
3.162e-05
3.022e-05
2.89e-05
2.765e-05
2.645e-05
2.531e-05
2.422e-05
2.318e-05
2.218e-05
2.122e-05
2.03e-05
1.941e-05
1.855e-05
1.773e-05
1.693e-05
1.617e-05
1.542e-05
1.47e-05
1.4e-05
1.332e-05
1.266e-05
1.202e-05
1.139e-05
1.078e-05
1.018e-05
9.596e-06
9.02e-06
8.455e-06
7.899e-06
7.352e-06
6.812e-06
6.279e-06
5.752e-06
5.231e-06
4.714e-06
4.201e-06
3.691e-06
3.183e-06
2.677e-06
2.171e-06
1.664e-06
1.155e-06
6.418e-07
1.683e-07
0.0001894
0.000191
0.0001922
0.000193
0.0001932
0.0001932
0.0001928
0.0001923
0.0001917
0.000191
0.0001903
0.0001896
0.0001889
0.0001883
0.0001876
0.000187
0.0001864
0.0001857
0.0001851
0.0001845
0.0001838
0.0001832
0.0001826
0.0001819
0.0001812
0.0001805
0.0001798
0.0001791
0.0001784
0.0001777
0.0001769
0.0001761
0.0001753
0.0001745
0.0001736
0.0001727
0.0001718
0.0001708
0.0001698
0.0001688
0.0001677
0.0001666
0.0001654
0.0001642
0.0001629
0.0001615
0.00016
0.0001584
0.0001567
0.0001549
0.0001528
0.0001506
0.0001482
0.0001455
0.0001426
0.0001393
0.0001356
0.0001317
0.0001273
0.0001226
0.0001175
0.0001121
0.0001065
0.0001009
9.536e-05
9e-05
8.488e-05
7.999e-05
7.533e-05
7.086e-05
6.66e-05
6.254e-05
5.87e-05
5.511e-05
5.177e-05
4.87e-05
4.589e-05
4.333e-05
4.101e-05
3.89e-05
3.697e-05
3.521e-05
3.358e-05
3.207e-05
3.065e-05
2.932e-05
2.806e-05
2.687e-05
2.573e-05
2.464e-05
2.359e-05
2.259e-05
2.163e-05
2.071e-05
1.982e-05
1.896e-05
1.814e-05
1.734e-05
1.657e-05
1.583e-05
1.511e-05
1.441e-05
1.373e-05
1.307e-05
1.243e-05
1.18e-05
1.119e-05
1.06e-05
1.001e-05
9.438e-06
8.876e-06
8.323e-06
7.779e-06
7.243e-06
6.714e-06
6.191e-06
5.674e-06
5.162e-06
4.654e-06
4.15e-06
3.649e-06
3.15e-06
2.652e-06
2.155e-06
1.657e-06
1.158e-06
6.547e-07
1.824e-07
0.0001879
0.0001894
0.0001906
0.0001914
0.0001918
0.0001919
0.0001917
0.0001913
0.0001908
0.0001902
0.0001896
0.000189
0.0001884
0.0001878
0.0001872
0.0001866
0.000186
0.0001854
0.0001848
0.0001842
0.0001836
0.000183
0.0001824
0.0001818
0.0001812
0.0001805
0.0001799
0.0001792
0.0001785
0.0001779
0.0001771
0.0001764
0.0001756
0.0001749
0.000174
0.0001732
0.0001723
0.0001714
0.0001705
0.0001695
0.0001685
0.0001675
0.0001663
0.0001652
0.000164
0.0001627
0.0001613
0.0001598
0.0001582
0.0001564
0.0001545
0.0001524
0.0001501
0.0001475
0.0001445
0.0001412
0.0001375
0.0001334
0.0001289
0.000124
0.0001186
0.0001129
0.0001069
0.0001009
9.5e-05
8.936e-05
8.4e-05
7.892e-05
7.407e-05
6.944e-05
6.502e-05
6.084e-05
5.69e-05
5.323e-05
4.986e-05
4.679e-05
4.401e-05
4.151e-05
3.927e-05
3.725e-05
3.543e-05
3.377e-05
3.224e-05
3.082e-05
2.95e-05
2.825e-05
2.706e-05
2.594e-05
2.486e-05
2.383e-05
2.284e-05
2.189e-05
2.098e-05
2.01e-05
1.925e-05
1.843e-05
1.764e-05
1.688e-05
1.614e-05
1.543e-05
1.473e-05
1.406e-05
1.341e-05
1.277e-05
1.215e-05
1.155e-05
1.096e-05
1.038e-05
9.812e-06
9.255e-06
8.708e-06
8.17e-06
7.639e-06
7.116e-06
6.599e-06
6.088e-06
5.583e-06
5.081e-06
4.584e-06
4.09e-06
3.599e-06
3.11e-06
2.623e-06
2.136e-06
1.648e-06
1.16e-06
6.684e-07
1.977e-07
0.0001867
0.0001881
0.0001893
0.0001901
0.0001905
0.0001907
0.0001906
0.0001903
0.00019
0.0001895
0.000189
0.0001884
0.0001879
0.0001873
0.0001867
0.0001862
0.0001857
0.0001851
0.0001846
0.000184
0.0001835
0.0001829
0.0001823
0.0001818
0.0001812
0.0001806
0.00018
0.0001794
0.0001787
0.0001781
0.0001774
0.0001767
0.000176
0.0001753
0.0001745
0.0001738
0.000173
0.0001721
0.0001713
0.0001704
0.0001694
0.0001685
0.0001674
0.0001664
0.0001652
0.000164
0.0001628
0.0001614
0.0001599
0.0001583
0.0001566
0.0001546
0.0001524
0.0001499
0.000147
0.0001437
0.00014
0.0001358
0.0001311
0.0001258
0.0001201
0.0001139
0.0001075
0.0001009
9.457e-05
8.855e-05
8.288e-05
7.752e-05
7.243e-05
6.759e-05
6.299e-05
5.866e-05
5.462e-05
5.089e-05
4.75e-05
4.445e-05
4.173e-05
3.933e-05
3.72e-05
3.531e-05
3.362e-05
3.208e-05
3.068e-05
2.938e-05
2.816e-05
2.701e-05
2.591e-05
2.487e-05
2.387e-05
2.29e-05
2.198e-05
2.109e-05
2.023e-05
1.94e-05
1.86e-05
1.782e-05
1.708e-05
1.635e-05
1.565e-05
1.497e-05
1.431e-05
1.367e-05
1.305e-05
1.244e-05
1.184e-05
1.126e-05
1.069e-05
1.014e-05
9.588e-06
9.05e-06
8.52e-06
7.998e-06
7.484e-06
6.975e-06
6.472e-06
5.974e-06
5.481e-06
4.992e-06
4.506e-06
4.024e-06
3.544e-06
3.066e-06
2.589e-06
2.114e-06
1.638e-06
1.161e-06
6.826e-07
2.142e-07
0.0001856
0.0001869
0.0001881
0.0001889
0.0001894
0.0001896
0.0001897
0.0001895
0.0001892
0.0001888
0.0001884
0.0001879
0.0001874
0.0001869
0.0001864
0.0001859
0.0001854
0.0001849
0.0001844
0.0001839
0.0001833
0.0001828
0.0001823
0.0001818
0.0001812
0.0001807
0.0001801
0.0001795
0.000179
0.0001784
0.0001777
0.0001771
0.0001765
0.0001758
0.0001751
0.0001744
0.0001737
0.0001729
0.0001721
0.0001713
0.0001704
0.0001696
0.0001686
0.0001677
0.0001667
0.0001656
0.0001645
0.0001633
0.000162
0.0001605
0.000159
0.0001572
0.0001551
0.0001528
0.00015
0.0001468
0.0001431
0.0001389
0.000134
0.0001285
0.0001223
0.0001155
0.0001083
0.000101
9.405e-05
8.748e-05
8.134e-05
7.56e-05
7.02e-05
6.511e-05
6.033e-05
5.586e-05
5.173e-05
4.798e-05
4.461e-05
4.163e-05
3.902e-05
3.675e-05
3.478e-05
3.306e-05
3.153e-05
3.016e-05
2.891e-05
2.775e-05
2.665e-05
2.561e-05
2.462e-05
2.367e-05
2.275e-05
2.187e-05
2.101e-05
2.019e-05
1.939e-05
1.862e-05
1.787e-05
1.715e-05
1.645e-05
1.577e-05
1.511e-05
1.447e-05
1.385e-05
1.324e-05
1.265e-05
1.207e-05
1.15e-05
1.095e-05
1.041e-05
9.871e-06
9.345e-06
8.827e-06
8.317e-06
7.813e-06
7.315e-06
6.822e-06
6.334e-06
5.851e-06
5.371e-06
4.895e-06
4.422e-06
3.952e-06
3.484e-06
3.018e-06
2.553e-06
2.089e-06
1.626e-06
1.162e-06
6.972e-07
2.314e-07
0.0001846
0.0001859
0.000187
0.0001879
0.0001884
0.0001887
0.0001888
0.0001888
0.0001886
0.0001883
0.0001879
0.0001875
0.000187
0.0001866
0.0001861
0.0001856
0.0001852
0.0001847
0.0001842
0.0001837
0.0001833
0.0001828
0.0001823
0.0001818
0.0001813
0.0001808
0.0001803
0.0001797
0.0001792
0.0001787
0.0001781
0.0001775
0.0001769
0.0001763
0.0001757
0.0001751
0.0001744
0.0001737
0.000173
0.0001723
0.0001716
0.0001708
0.00017
0.0001691
0.0001682
0.0001673
0.0001664
0.0001653
0.0001642
0.000163
0.0001617
0.0001602
0.0001584
0.0001563
0.0001538
0.0001508
0.0001472
0.000143
0.000138
0.0001322
0.0001255
0.0001179
0.0001097
0.0001013
9.332e-05
8.588e-05
7.906e-05
7.282e-05
6.706e-05
6.173e-05
5.68e-05
5.226e-05
4.812e-05
4.441e-05
4.113e-05
3.828e-05
3.584e-05
3.377e-05
3.202e-05
3.051e-05
2.919e-05
2.802e-05
2.694e-05
2.594e-05
2.499e-05
2.408e-05
2.32e-05
2.236e-05
2.153e-05
2.074e-05
1.996e-05
1.921e-05
1.849e-05
1.778e-05
1.709e-05
1.643e-05
1.578e-05
1.515e-05
1.453e-05
1.394e-05
1.335e-05
1.278e-05
1.223e-05
1.168e-05
1.114e-05
1.062e-05
1.01e-05
9.59e-06
9.087e-06
8.591e-06
8.101e-06
7.616e-06
7.136e-06
6.66e-06
6.188e-06
5.72e-06
5.255e-06
4.792e-06
4.333e-06
3.875e-06
3.42e-06
2.966e-06
2.514e-06
2.063e-06
1.612e-06
1.162e-06
7.121e-07
2.492e-07
0.0001838
0.0001851
0.0001861
0.000187
0.0001876
0.0001879
0.0001881
0.0001881
0.000188
0.0001877
0.0001874
0.0001871
0.0001867
0.0001863
0.0001859
0.0001854
0.000185
0.0001845
0.0001841
0.0001837
0.0001832
0.0001828
0.0001823
0.0001819
0.0001814
0.0001809
0.0001805
0.00018
0.0001795
0.000179
0.0001785
0.000178
0.0001775
0.0001769
0.0001764
0.0001758
0.0001752
0.0001746
0.000174
0.0001734
0.0001727
0.0001721
0.0001714
0.0001707
0.0001699
0.0001692
0.0001684
0.0001676
0.0001667
0.0001658
0.0001648
0.0001636
0.0001622
0.0001605
0.0001584
0.0001557
0.0001524
0.0001484
0.0001436
0.0001377
0.0001305
0.000122
0.0001123
0.0001019
9.208e-05
8.314e-05
7.531e-05
6.85e-05
6.247e-05
5.707e-05
5.217e-05
4.77e-05
4.367e-05
4.011e-05
3.701e-05
3.438e-05
3.22e-05
3.04e-05
2.892e-05
2.768e-05
2.662e-05
2.567e-05
2.48e-05
2.398e-05
2.319e-05
2.243e-05
2.168e-05
2.095e-05
2.023e-05
1.953e-05
1.884e-05
1.817e-05
1.752e-05
1.688e-05
1.626e-05
1.566e-05
1.507e-05
1.449e-05
1.392e-05
1.337e-05
1.283e-05
1.23e-05
1.178e-05
1.127e-05
1.077e-05
1.027e-05
9.781e-06
9.297e-06
8.819e-06
8.346e-06
7.877e-06
7.412e-06
6.951e-06
6.492e-06
6.037e-06
5.584e-06
5.134e-06
4.686e-06
4.24e-06
3.796e-06
3.354e-06
2.913e-06
2.473e-06
2.035e-06
1.598e-06
1.162e-06
7.269e-07
2.673e-07
0.0001831
0.0001843
0.0001854
0.0001862
0.0001868
0.0001872
0.0001874
0.0001875
0.0001874
0.0001873
0.000187
0.0001867
0.0001864
0.000186
0.0001857
0.0001853
0.0001849
0.0001844
0.000184
0.0001836
0.0001832
0.0001828
0.0001824
0.0001819
0.0001815
0.0001811
0.0001807
0.0001802
0.0001798
0.0001794
0.0001789
0.0001785
0.000178
0.0001775
0.0001771
0.0001766
0.0001761
0.0001756
0.000175
0.0001745
0.000174
0.0001734
0.0001729
0.0001723
0.0001717
0.0001712
0.0001706
0.00017
0.0001694
0.0001687
0.0001681
0.0001673
0.0001663
0.0001652
0.0001636
0.0001615
0.0001589
0.0001555
0.0001512
0.0001459
0.0001389
0.0001298
0.0001179
0.0001032
8.917e-05
7.758e-05
6.865e-05
6.163e-05
5.569e-05
5.065e-05
4.618e-05
4.206e-05
3.834e-05
3.508e-05
3.228e-05
2.997e-05
2.811e-05
2.666e-05
2.553e-05
2.462e-05
2.385e-05
2.317e-05
2.253e-05
2.19e-05
2.129e-05
2.068e-05
2.007e-05
1.946e-05
1.886e-05
1.826e-05
1.767e-05
1.709e-05
1.652e-05
1.596e-05
1.54e-05
1.486e-05
1.433e-05
1.381e-05
1.33e-05
1.279e-05
1.23e-05
1.181e-05
1.133e-05
1.085e-05
1.038e-05
9.917e-06
9.457e-06
9e-06
8.547e-06
8.097e-06
7.65e-06
7.205e-06
6.763e-06
6.323e-06
5.884e-06
5.447e-06
5.012e-06
4.579e-06
4.147e-06
3.716e-06
3.287e-06
2.859e-06
2.432e-06
2.007e-06
1.584e-06
1.162e-06
7.415e-07
2.853e-07
0.0001826
0.0001837
0.0001847
0.0001855
0.0001862
0.0001866
0.0001869
0.000187
0.000187
0.0001869
0.0001867
0.0001865
0.0001862
0.0001858
0.0001855
0.0001851
0.0001847
0.0001844
0.000184
0.0001836
0.0001832
0.0001828
0.0001824
0.0001821
0.0001817
0.0001813
0.0001809
0.0001805
0.0001801
0.0001797
0.0001793
0.000179
0.0001786
0.0001782
0.0001777
0.0001773
0.0001769
0.0001765
0.0001761
0.0001757
0.0001752
0.0001748
0.0001744
0.000174
0.0001736
0.0001732
0.0001728
0.0001724
0.0001721
0.0001718
0.0001715
0.0001712
0.0001708
0.0001702
0.0001694
0.0001681
0.0001663
0.000164
0.0001611
0.0001577
0.0001528
0.0001431
0.000129
0.0001054
8.276e-05
6.791e-05
5.85e-05
5.136e-05
4.595e-05
4.221e-05
3.874e-05
3.537e-05
3.223e-05
2.942e-05
2.702e-05
2.511e-05
2.367e-05
2.264e-05
2.192e-05
2.138e-05
2.095e-05
2.055e-05
2.016e-05
1.975e-05
1.932e-05
1.887e-05
1.841e-05
1.793e-05
1.745e-05
1.696e-05
1.647e-05
1.598e-05
1.549e-05
1.501e-05
1.453e-05
1.406e-05
1.359e-05
1.312e-05
1.267e-05
1.221e-05
1.176e-05
1.132e-05
1.087e-05
1.043e-05
9.998e-06
9.565e-06
9.133e-06
8.704e-06
8.276e-06
7.849e-06
7.424e-06
7e-06
6.576e-06
6.154e-06
5.732e-06
5.312e-06
4.891e-06
4.472e-06
4.054e-06
3.636e-06
3.22e-06
2.805e-06
2.391e-06
1.979e-06
1.569e-06
1.161e-06
7.557e-07
3.029e-07
0.000182
0.0001831
0.0001841
0.000185
0.0001856
0.0001861
0.0001864
0.0001865
0.0001866
0.0001865
0.0001864
0.0001862
0.000186
0.0001857
0.0001854
0.000185
0.0001847
0.0001843
0.000184
0.0001836
0.0001832