/*--------------------------------*- C++ -*----------------------------------*\
  =========                 |
  \\      /  F ield         | OpenFOAM: The Open Source CFD Toolbox
   \\    /   O peration     | Website:  https://openfoam.org
    \\  /    A nd           | Version:  7
     \\/     M anipulation  |
\*---------------------------------------------------------------------------*/
FoamFile
{
    version     2.0;
    format      ascii;
    class       surfaceScalarField;
    location    "2399.99947344063412";
    object      phi;
}
// * * * * * * * * * * * * * * * * * * * * * * * * * * * * * * * * * * * * * //

dimensions      [0 3 -1 0 0 0 0];

internalField   nonuniform List<scalar> 
8032
(
6.857e-10
2.518e-10
4.804e-10
2.053e-10
3.48e-10
1.324e-10
2.643e-10
8.373e-11
2.101e-10
5.417e-11
1.737e-10
3.639e-11
1.482e-10
2.553e-11
1.295e-10
1.868e-11
1.154e-10
1.417e-11
1.043e-10
1.107e-11
9.544e-11
8.846e-12
8.825e-11
7.189e-12
8.233e-11
5.919e-12
7.741e-11
4.92e-12
7.329e-11
4.117e-12
6.983e-11
3.46e-12
6.692e-11
2.913e-12
6.447e-11
2.452e-12
6.241e-11
2.057e-12
6.07e-11
1.715e-12
5.928e-11
1.414e-12
5.813e-11
1.148e-12
5.723e-11
9.076e-13
5.654e-11
6.888e-13
5.605e-11
4.866e-13
5.575e-11
2.972e-13
5.564e-11
1.175e-13
5.569e-11
-5.549e-14
5.591e-11
-2.241e-13
5.631e-11
-3.905e-13
5.686e-11
-5.565e-13
5.759e-11
-7.238e-13
5.848e-11
-8.94e-13
5.955e-11
-1.068e-12
6.08e-11
-1.247e-12
6.223e-11
-1.432e-12
6.385e-11
-1.624e-12
6.567e-11
-1.822e-12
6.77e-11
-2.028e-12
6.994e-11
-2.239e-12
7.24e-11
-2.456e-12
7.508e-11
-2.678e-12
7.798e-11
-2.902e-12
8.11e-11
-3.127e-12
8.445e-11
-3.35e-12
8.802e-11
-3.566e-12
9.179e-11
-3.772e-12
9.575e-11
-3.962e-12
9.989e-11
-4.132e-12
1.042e-10
-4.274e-12
1.085e-10
-4.383e-12
1.13e-10
-4.451e-12
1.175e-10
-4.471e-12
1.219e-10
-4.436e-12
1.262e-10
-4.341e-12
1.304e-10
-4.181e-12
1.344e-10
-3.952e-12
1.38e-10
-3.654e-12
1.413e-10
-3.286e-12
1.442e-10
-2.854e-12
1.465e-10
-2.364e-12
1.484e-10
-1.825e-12
1.496e-10
-1.25e-12
1.503e-10
-6.513e-13
1.503e-10
-4.415e-14
1.497e-10
5.571e-13
1.486e-10
1.139e-12
1.469e-10
1.689e-12
1.447e-10
2.198e-12
1.421e-10
2.657e-12
1.39e-10
3.061e-12
1.356e-10
3.407e-12
1.319e-10
3.693e-12
1.28e-10
3.92e-12
1.239e-10
4.088e-12
1.197e-10
4.201e-12
1.154e-10
4.262e-12
1.112e-10
4.275e-12
1.069e-10
4.246e-12
1.027e-10
4.179e-12
9.865e-11
4.08e-12
9.47e-11
3.954e-12
9.089e-11
3.806e-12
8.725e-11
3.641e-12
8.379e-11
3.464e-12
8.051e-11
3.278e-12
7.742e-11
3.087e-12
7.453e-11
2.894e-12
7.183e-11
2.702e-12
6.931e-11
2.514e-12
6.698e-11
2.33e-12
6.483e-11
2.153e-12
6.284e-11
1.983e-12
6.102e-11
1.822e-12
5.935e-11
1.669e-12
5.783e-11
1.526e-12
5.644e-11
1.391e-12
5.517e-11
1.266e-12
5.402e-11
1.15e-12
5.298e-11
1.042e-12
5.204e-11
9.425e-13
5.118e-11
8.51e-13
5.042e-11
7.672e-13
4.973e-11
6.904e-13
4.911e-11
6.203e-13
4.855e-11
5.564e-13
4.805e-11
4.984e-13
4.761e-11
4.457e-13
4.721e-11
3.98e-13
4.685e-11
3.549e-13
4.654e-11
3.16e-13
4.626e-11
2.811e-13
4.601e-11
2.498e-13
4.578e-11
2.219e-13
4.559e-11
1.972e-13
4.541e-11
1.755e-13
4.526e-11
1.567e-13
4.511e-11
1.407e-13
4.499e-11
1.276e-13
4.487e-11
1.174e-13
4.476e-11
1.105e-13
4.465e-11
1.074e-13
4.454e-11
1.09e-13
4.443e-11
1.17e-13
4.429e-11
1.35e-13
4.412e-11
1.685e-13
4.39e-11
2.239e-13
2.91e-13
9.523e-10
2.37e-10
8.501e-10
3.075e-10
7.275e-10
2.551e-10
6.182e-10
1.93e-10
5.293e-10
1.431e-10
4.591e-10
1.066e-10
4.04e-10
8.065e-11
3.604e-10
6.228e-11
3.255e-10
4.907e-11
2.972e-10
3.935e-11
2.74e-10
3.204e-11
2.548e-10
2.64e-11
2.388e-10
2.196e-11
2.253e-10
1.84e-11
2.139e-10
1.549e-11
2.043e-10
1.309e-11
1.962e-10
1.107e-11
1.893e-10
9.347e-12
1.835e-10
7.867e-12
1.786e-10
6.576e-12
1.746e-10
5.439e-12
1.713e-10
4.424e-12
1.687e-10
3.508e-12
1.667e-10
2.671e-12
1.653e-10
1.896e-12
1.644e-10
1.169e-12
1.641e-10
4.787e-13
1.642e-10
-1.855e-13
1.648e-10
-8.326e-13
1.659e-10
-1.471e-12
1.674e-10
-2.106e-12
1.695e-10
-2.746e-12
1.72e-10
-3.394e-12
1.749e-10
-4.057e-12
1.784e-10
-4.737e-12
1.824e-10
-5.437e-12
1.87e-10
-6.159e-12
1.921e-10
-6.905e-12
1.977e-10
-7.673e-12
2.039e-10
-8.463e-12
2.107e-10
-9.271e-12
2.182e-10
-1.009e-11
2.262e-10
-1.092e-11
2.348e-10
-1.175e-11
2.44e-10
-1.256e-11
2.538e-10
-1.335e-11
2.641e-10
-1.41e-11
2.749e-10
-1.478e-11
2.862e-10
-1.539e-11
2.978e-10
-1.589e-11
3.097e-10
-1.626e-11
3.217e-10
-1.649e-11
3.338e-10
-1.653e-11
3.457e-10
-1.638e-11
3.574e-10
-1.6e-11
3.686e-10
-1.539e-11
3.792e-10
-1.453e-11
3.89e-10
-1.342e-11
3.977e-10
-1.206e-11
4.054e-10
-1.047e-11
4.117e-10
-8.678e-12
4.166e-10
-6.709e-12
4.199e-10
-4.608e-12
4.217e-10
-2.423e-12
4.218e-10
-2.071e-13
4.204e-10
1.99e-12
4.174e-10
4.12e-12
4.13e-10
6.14e-12
4.072e-10
8.013e-12
4.001e-10
9.711e-12
3.92e-10
1.121e-11
3.829e-10
1.25e-11
3.73e-10
1.358e-11
3.625e-10
1.444e-11
3.515e-10
1.509e-11
3.401e-10
1.553e-11
3.286e-10
1.579e-11
3.17e-10
1.586e-11
3.055e-10
1.578e-11
2.941e-10
1.556e-11
2.83e-10
1.522e-11
2.721e-10
1.478e-11
2.617e-10
1.425e-11
2.517e-10
1.366e-11
2.421e-10
1.302e-11
2.33e-10
1.234e-11
2.245e-10
1.165e-11
2.164e-10
1.094e-11
2.089e-10
1.023e-11
2.019e-10
9.538e-12
1.953e-10
8.857e-12
1.893e-10
8.199e-12
1.837e-10
7.567e-12
1.786e-10
6.964e-12
1.739e-10
6.392e-12
1.695e-10
5.853e-12
1.656e-10
5.346e-12
1.62e-10
4.874e-12
1.587e-10
4.433e-12
1.557e-10
4.025e-12
1.53e-10
3.648e-12
1.505e-10
3.3e-12
1.483e-10
2.98e-12
1.463e-10
2.687e-12
1.445e-10
2.419e-12
1.429e-10
2.174e-12
1.415e-10
1.952e-12
1.402e-10
1.749e-12
1.39e-10
1.565e-12
1.379e-10
1.399e-12
1.37e-10
1.249e-12
1.362e-10
1.114e-12
1.354e-10
9.922e-13
1.348e-10
8.839e-13
1.342e-10
7.877e-13
1.337e-10
7.031e-13
1.332e-10
6.295e-13
1.328e-10
5.667e-13
1.324e-10
5.146e-13
1.32e-10
4.737e-13
1.317e-10
4.444e-13
1.314e-10
4.281e-13
1.31e-10
4.266e-13
1.307e-10
4.43e-13
1.304e-10
4.817e-13
1.3e-10
5.476e-13
1.296e-10
6.399e-13
7.27e-13
9.779e-10
1.966e-10
9.637e-10
3.217e-10
9.013e-10
3.175e-10
8.211e-10
2.731e-10
7.408e-10
2.234e-10
6.677e-10
1.796e-10
6.042e-10
1.441e-10
5.502e-10
1.163e-10
5.045e-10
9.472e-11
4.66e-10
7.786e-11
4.335e-10
6.457e-11
4.059e-10
5.397e-11
3.825e-10
4.54e-11
3.625e-10
3.838e-11
3.455e-10
3.255e-11
3.309e-10
2.765e-11
3.185e-10
2.349e-11
3.079e-10
1.992e-11
2.989e-10
1.682e-11
2.914e-10
1.41e-11
2.852e-10
1.169e-11
2.801e-10
9.529e-12
2.76e-10
7.571e-12
2.729e-10
5.775e-12
2.707e-10
4.108e-12
2.693e-10
2.541e-12
2.687e-10
1.051e-12
2.689e-10
-3.841e-13
2.699e-10
-1.783e-12
2.716e-10
-3.162e-12
2.74e-10
-4.536e-12
2.772e-10
-5.916e-12
2.811e-10
-7.315e-12
2.858e-10
-8.741e-12
2.913e-10
-1.02e-11
2.975e-10
-1.171e-11
3.046e-10
-1.325e-11
3.126e-10
-1.485e-11
3.214e-10
-1.649e-11
3.311e-10
-1.817e-11
3.417e-10
-1.989e-11
3.532e-10
-2.163e-11
3.657e-10
-2.338e-11
3.791e-10
-2.513e-11
3.933e-10
-2.684e-11
4.085e-10
-2.85e-11
4.245e-10
-3.006e-11
4.412e-10
-3.149e-11
4.585e-10
-3.274e-11
4.764e-10
-3.378e-11
4.947e-10
-3.454e-11
5.132e-10
-3.498e-11
5.317e-10
-3.505e-11
5.5e-10
-3.469e-11
5.679e-10
-3.388e-11
5.85e-10
-3.256e-11
6.012e-10
-3.073e-11
6.162e-10
-2.837e-11
6.296e-10
-2.549e-11
6.413e-10
-2.213e-11
6.509e-10
-1.834e-11
6.584e-10
-1.419e-11
6.636e-10
-9.768e-12
6.663e-10
-5.168e-12
6.666e-10
-5.005e-13
6.645e-10
4.13e-12
6.6e-10
8.623e-12
6.532e-10
1.289e-11
6.444e-10
1.685e-11
6.337e-10
2.045e-11
6.212e-10
2.364e-11
6.073e-10
2.639e-11
5.922e-10
2.869e-11
5.761e-10
3.054e-11
5.593e-10
3.194e-11
5.419e-10
3.292e-11
5.242e-10
3.349e-11
5.063e-10
3.37e-11
4.886e-10
3.356e-11
4.71e-10
3.313e-11
4.538e-10
3.244e-11
4.37e-10
3.154e-11
4.208e-10
3.045e-11
4.053e-10
2.922e-11
3.904e-10
2.788e-11
3.763e-10
2.646e-11
3.629e-10
2.499e-11
3.504e-10
2.35e-11
3.386e-10
2.201e-11
3.276e-10
2.054e-11
3.174e-10
1.91e-11
3.079e-10
1.77e-11
2.991e-10
1.636e-11
2.91e-10
1.507e-11
2.835e-10
1.385e-11
2.767e-10
1.27e-11
2.704e-10
1.161e-11
2.647e-10
1.06e-11
2.595e-10
9.653e-12
2.547e-10
8.775e-12
2.504e-10
7.963e-12
2.465e-10
7.213e-12
2.429e-10
6.523e-12
2.397e-10
5.889e-12
2.368e-10
5.309e-12
2.342e-10
4.779e-12
2.319e-10
4.295e-12
2.298e-10
3.855e-12
2.279e-10
3.455e-12
2.262e-10
3.093e-12
2.247e-10
2.765e-12
2.233e-10
2.47e-12
2.221e-10
2.205e-12
2.21e-10
1.968e-12
2.201e-10
1.757e-12
2.192e-10
1.57e-12
2.184e-10
1.408e-12
2.177e-10
1.269e-12
2.171e-10
1.152e-12
2.165e-10
1.058e-12
2.159e-10
9.885e-13
2.154e-10
9.439e-13
2.149e-10
9.266e-13
2.144e-10
9.392e-13
2.139e-10
9.842e-13
2.134e-10
1.062e-12
2.129e-10
1.161e-12
1.242e-12
9.752e-10
1.589e-10
9.93e-10
3.039e-10
9.727e-10
3.378e-10
9.267e-10
3.191e-10
8.687e-10
2.814e-10
8.08e-10
2.403e-10
7.498e-10
2.024e-10
6.964e-10
1.697e-10
6.487e-10
1.424e-10
6.067e-10
1.199e-10
5.7e-10
1.013e-10
5.38e-10
8.592e-11
5.103e-10
7.314e-11
4.862e-10
6.242e-11
4.654e-10
5.335e-11
4.475e-10
4.562e-11
4.32e-10
3.897e-11
4.187e-10
3.319e-11
4.074e-10
2.813e-11
3.978e-10
2.366e-11
3.899e-10
1.966e-11
3.833e-10
1.606e-11
3.781e-10
1.278e-11
3.741e-10
9.756e-12
3.713e-10
6.941e-12
3.696e-10
4.288e-12
3.689e-10
1.758e-12
3.692e-10
-6.828e-13
3.704e-10
-3.065e-12
3.727e-10
-5.414e-12
3.759e-10
-7.754e-12
3.801e-10
-1.011e-11
3.853e-10
-1.249e-11
3.914e-10
-1.491e-11
3.986e-10
-1.74e-11
4.069e-10
-1.995e-11
4.162e-10
-2.257e-11
4.266e-10
-2.526e-11
4.382e-10
-2.804e-11
4.509e-10
-3.087e-11
4.647e-10
-3.376e-11
4.798e-10
-3.669e-11
4.961e-10
-3.964e-11
5.135e-10
-4.256e-11
5.321e-10
-4.543e-11
5.518e-10
-4.819e-11
5.725e-10
-5.079e-11
5.942e-10
-5.316e-11
6.167e-10
-5.524e-11
6.398e-10
-5.694e-11
6.635e-10
-5.819e-11
6.874e-10
-5.889e-11
7.113e-10
-5.897e-11
7.349e-10
-5.834e-11
7.58e-10
-5.694e-11
7.802e-10
-5.471e-11
8.01e-10
-5.161e-11
8.203e-10
-4.764e-11
8.376e-10
-4.281e-11
8.527e-10
-3.717e-11
8.651e-10
-3.082e-11
8.748e-10
-2.386e-11
8.815e-10
-1.645e-11
8.851e-10
-8.744e-12
8.855e-10
-9.232e-13
8.828e-10
6.838e-12
8.77e-10
1.437e-11
8.684e-10
2.153e-11
8.571e-10
2.818e-11
8.433e-10
3.424e-11
8.273e-10
3.961e-11
8.094e-10
4.426e-11
7.9e-10
4.815e-11
7.692e-10
5.129e-11
7.475e-10
5.369e-11
7.25e-10
5.538e-11
7.021e-10
5.639e-11
6.79e-10
5.678e-11
6.56e-10
5.66e-11
6.332e-10
5.592e-11
6.109e-10
5.481e-11
5.891e-10
5.332e-11
5.68e-10
5.152e-11
5.477e-10
4.949e-11
5.283e-10
4.726e-11
5.099e-10
4.49e-11
4.924e-10
4.245e-11
4.76e-10
3.997e-11
4.605e-10
3.747e-11
4.461e-10
3.5e-11
4.326e-10
3.257e-11
4.201e-10
3.022e-11
4.085e-10
2.795e-11
3.978e-10
2.578e-11
3.879e-10
2.372e-11
3.788e-10
2.176e-11
3.705e-10
1.993e-11
3.629e-10
1.821e-11
3.56e-10
1.66e-11
3.496e-10
1.511e-11
3.439e-10
1.372e-11
3.386e-10
1.245e-11
3.339e-10
1.127e-11
3.296e-10
1.018e-11
3.257e-10
9.191e-12
3.222e-10
8.283e-12
3.191e-10
7.453e-12
3.162e-10
6.698e-12
3.137e-10
6.011e-12
3.114e-10
5.387e-12
3.093e-10
4.823e-12
3.075e-10
4.314e-12
3.058e-10
3.856e-12
3.043e-10
3.446e-12
3.03e-10
3.08e-12
3.018e-10
2.757e-12
3.008e-10
2.473e-12
2.998e-10
2.229e-12
2.989e-10
2.022e-12
2.981e-10
1.853e-12
2.974e-10
1.722e-12
2.967e-10
1.63e-12
2.961e-10
1.579e-12
2.954e-10
1.569e-12
2.948e-10
1.6e-12
2.942e-10
1.668e-12
2.936e-10
1.756e-12
1.823e-12
9.668e-10
1.296e-10
9.944e-10
2.763e-10
9.977e-10
3.344e-10
9.778e-10
3.39e-10
9.421e-10
3.171e-10
8.981e-10
2.844e-10
8.511e-10
2.494e-10
8.046e-10
2.162e-10
7.606e-10
1.864e-10
7.201e-10
1.604e-10
6.833e-10
1.38e-10
6.505e-10
1.188e-10
6.213e-10
1.023e-10
5.955e-10
8.822e-11
5.728e-10
7.604e-11
5.529e-10
6.547e-11
5.357e-10
5.624e-11
5.207e-10
4.814e-11
5.079e-10
4.096e-11
4.97e-10
3.456e-11
4.878e-10
2.88e-11
4.803e-10
2.357e-11
4.743e-10
1.877e-11
4.698e-10
1.434e-11
4.665e-10
1.019e-11
4.645e-10
6.26e-12
4.638e-10
2.506e-12
4.642e-10
-1.125e-12
4.658e-10
-4.674e-12
4.686e-10
-8.178e-12
4.725e-10
-1.167e-11
4.776e-10
-1.518e-11
4.839e-10
-1.874e-11
4.913e-10
-2.236e-11
5e-10
-2.606e-11
5.099e-10
-2.986e-11
5.211e-10
-3.376e-11
5.336e-10
-3.777e-11
5.474e-10
-4.188e-11
5.626e-10
-4.609e-11
5.792e-10
-5.038e-11
5.973e-10
-5.471e-11
6.167e-10
-5.906e-11
6.375e-10
-6.337e-11
6.597e-10
-6.759e-11
6.831e-10
-7.166e-11
7.078e-10
-7.547e-11
7.336e-10
-7.896e-11
7.604e-10
-8.2e-11
7.879e-10
-8.449e-11
8.16e-10
-8.63e-11
8.444e-10
-8.731e-11
8.729e-10
-8.739e-11
9.01e-10
-8.644e-11
9.284e-10
-8.434e-11
9.547e-10
-8.102e-11
9.795e-10
-7.643e-11
1.002e-09
-7.054e-11
1.023e-09
-6.34e-11
1.041e-09
-5.506e-11
1.056e-09
-4.566e-11
1.067e-09
-3.538e-11
1.075e-09
-2.442e-11
1.08e-09
-1.302e-11
1.08e-09
-1.46e-12
1.077e-09
1.002e-11
1.07e-09
2.116e-11
1.06e-09
3.175e-11
1.046e-09
4.16e-11
1.03e-09
5.057e-11
1.011e-09
5.854e-11
9.9e-10
6.544e-11
9.669e-10
7.123e-11
9.423e-10
7.592e-11
9.165e-10
7.951e-11
8.898e-10
8.205e-11
8.626e-10
8.359e-11
8.351e-10
8.422e-11
8.077e-10
8.401e-11
7.806e-10
8.306e-11
7.54e-10
8.145e-11
7.28e-10
7.93e-11
7.028e-10
7.668e-11
6.786e-10
7.37e-11
6.554e-10
7.044e-11
6.333e-10
6.697e-11
6.124e-10
6.338e-11
5.927e-10
5.971e-11
5.741e-10
5.602e-11
5.567e-10
5.237e-11
5.405e-10
4.879e-11
5.255e-10
4.53e-11
5.115e-10
4.194e-11
4.985e-10
3.871e-11
4.866e-10
3.565e-11
4.756e-10
3.274e-11
4.655e-10
3.001e-11
4.563e-10
2.744e-11
4.479e-10
2.504e-11
4.402e-10
2.281e-11
4.331e-10
2.074e-11
4.268e-10
1.883e-11
4.21e-10
1.706e-11
4.157e-10
1.544e-11
4.11e-10
1.395e-11
4.067e-10
1.258e-11
4.028e-10
1.133e-11
3.993e-10
1.019e-11
3.961e-10
9.159e-12
3.933e-10
8.218e-12
3.908e-10
7.366e-12
3.885e-10
6.596e-12
3.864e-10
5.902e-12
3.846e-10
5.279e-12
3.829e-10
4.724e-12
3.815e-10
4.231e-12
3.801e-10
3.797e-12
3.79e-10
3.421e-12
3.779e-10
3.1e-12
3.769e-10
2.833e-12
3.76e-10
2.62e-12
3.752e-10
2.461e-12
3.744e-10
2.355e-12
3.737e-10
2.303e-12
3.73e-10
2.302e-12
3.723e-10
2.342e-12
3.716e-10
2.405e-12
2.456e-12
9.592e-10
1.08e-10
9.875e-10
2.48e-10
1.003e-09
3.193e-10
9.999e-10
3.417e-10
9.821e-10
3.349e-10
9.538e-10
3.127e-10
9.195e-10
2.838e-10
8.825e-10
2.532e-10
8.453e-10
2.236e-10
8.093e-10
1.964e-10
7.755e-10
1.718e-10
7.443e-10
1.5e-10
7.159e-10
1.308e-10
6.902e-10
1.139e-10
6.673e-10
9.895e-11
6.47e-10
8.58e-11
6.291e-10
7.415e-11
6.134e-10
6.378e-11
5.999e-10
5.449e-11
5.883e-10
4.613e-11
5.786e-10
3.854e-11
5.706e-10
3.16e-11
5.641e-10
2.519e-11
5.592e-10
1.923e-11
5.558e-10
1.363e-11
5.538e-10
8.303e-12
5.531e-10
3.195e-12
5.537e-10
-1.758e-12
5.556e-10
-6.609e-12
5.589e-10
-1.141e-11
5.634e-10
-1.619e-11
5.692e-10
-2.101e-11
5.764e-10
-2.589e-11
5.849e-10
-3.085e-11
5.947e-10
-3.593e-11
6.06e-10
-4.114e-11
6.187e-10
-4.648e-11
6.329e-10
-5.197e-11
6.487e-10
-5.76e-11
6.659e-10
-6.335e-11
6.847e-10
-6.92e-11
7.051e-10
-7.511e-11
7.271e-10
-8.103e-11
7.506e-10
-8.691e-11
7.757e-10
-9.266e-11
8.022e-10
-9.818e-11
8.301e-10
-1.034e-10
8.593e-10
-1.081e-10
8.895e-10
-1.122e-10
9.207e-10
-1.156e-10
9.524e-10
-1.181e-10
9.845e-10
-1.194e-10
1.017e-09
-1.195e-10
1.048e-09
-1.182e-10
1.079e-09
-1.154e-10
1.109e-09
-1.108e-10
1.137e-09
-1.046e-10
1.163e-09
-9.652e-11
1.187e-09
-8.676e-11
1.207e-09
-7.537e-11
1.224e-09
-6.253e-11
1.237e-09
-4.847e-11
1.246e-09
-3.348e-11
1.251e-09
-1.79e-11
1.252e-09
-2.084e-12
1.248e-09
1.361e-11
1.24e-09
2.884e-11
1.229e-09
4.332e-11
1.214e-09
5.679e-11
1.195e-09
6.904e-11
1.174e-09
7.994e-11
1.15e-09
8.938e-11
1.124e-09
9.732e-11
1.096e-09
1.037e-10
1.067e-09
1.087e-10
1.036e-09
1.122e-10
1.006e-09
1.143e-10
9.747e-10
1.152e-10
9.437e-10
1.15e-10
9.13e-10
1.137e-10
8.829e-10
1.116e-10
8.535e-10
1.087e-10
8.25e-10
1.052e-10
7.975e-10
1.011e-10
7.713e-10
9.672e-11
7.462e-10
9.201e-11
7.225e-10
8.712e-11
7.001e-10
8.213e-11
6.79e-10
7.712e-11
6.592e-10
7.214e-11
6.407e-10
6.724e-11
6.236e-10
6.248e-11
6.076e-10
5.789e-11
5.928e-10
5.348e-11
5.792e-10
4.928e-11
5.666e-10
4.53e-11
5.551e-10
4.155e-11
5.445e-10
3.803e-11
5.348e-10
3.473e-11
5.26e-10
3.166e-11
5.179e-10
2.882e-11
5.106e-10
2.618e-11
5.039e-10
2.374e-11
4.978e-10
2.15e-11
4.923e-10
1.944e-11
4.873e-10
1.755e-11
4.829e-10
1.583e-11
4.788e-10
1.425e-11
4.751e-10
1.281e-11
4.719e-10
1.151e-11
4.689e-10
1.033e-11
4.662e-10
9.254e-12
4.638e-10
8.289e-12
4.617e-10
7.421e-12
4.598e-10
6.644e-12
4.581e-10
5.954e-12
4.565e-10
5.344e-12
4.551e-10
4.812e-12
4.539e-10
4.355e-12
4.527e-10
3.97e-12
4.517e-10
3.655e-12
4.507e-10
3.409e-12
4.499e-10
3.232e-12
4.491e-10
3.119e-12
4.483e-10
3.068e-12
4.476e-10
3.066e-12
4.469e-10
3.097e-12
3.128e-12
9.536e-10
9.188e-11
9.794e-10
2.221e-10
9.994e-10
2.993e-10
1.007e-09
3.34e-10
1.002e-09
3.398e-10
9.87e-10
3.279e-10
9.644e-10
3.063e-10
9.374e-10
2.802e-10
9.081e-10
2.529e-10
8.783e-10
2.262e-10
8.491e-10
2.01e-10
8.213e-10
1.778e-10
7.952e-10
1.568e-10
7.713e-10
1.378e-10
7.494e-10
1.208e-10
7.298e-10
1.055e-10
7.122e-10
9.169e-11
6.967e-10
7.925e-11
6.832e-10
6.799e-11
6.716e-10
5.775e-11
6.618e-10
4.836e-11
6.537e-10
3.972e-11
6.472e-10
3.168e-11
6.423e-10
2.416e-11
6.388e-10
1.705e-11
6.369e-10
1.026e-11
6.363e-10
3.731e-12
6.372e-10
-2.625e-12
6.395e-10
-8.866e-12
6.431e-10
-1.505e-11
6.481e-10
-2.123e-11
6.546e-10
-2.745e-11
6.624e-10
-3.375e-11
6.718e-10
-4.018e-11
6.826e-10
-4.674e-11
6.949e-10
-5.347e-11
7.088e-10
-6.038e-11
7.243e-10
-6.747e-11
7.415e-10
-7.474e-11
7.603e-10
-8.216e-11
7.808e-10
-8.971e-11
8.03e-10
-9.734e-11
8.27e-10
-1.05e-10
8.526e-10
-1.126e-10
8.799e-10
-1.2e-10
9.088e-10
-1.271e-10
9.392e-10
-1.338e-10
9.71e-10
-1.399e-10
1.004e-09
-1.452e-10
1.038e-09
-1.496e-10
1.073e-09
-1.528e-10
1.108e-09
-1.545e-10
1.143e-09
-1.547e-10
1.178e-09
-1.53e-10
1.212e-09
-1.494e-10
1.244e-09
-1.435e-10
1.275e-09
-1.355e-10
1.304e-09
-1.251e-10
1.33e-09
-1.125e-10
1.352e-09
-9.775e-11
1.371e-09
-8.112e-11
1.385e-09
-6.289e-11
1.395e-09
-4.346e-11
1.4e-09
-2.326e-11
1.401e-09
-2.761e-12
1.397e-09
1.758e-11
1.389e-09
3.731e-11
1.376e-09
5.605e-11
1.359e-09
7.348e-11
1.339e-09
8.932e-11
1.315e-09
1.034e-10
1.289e-09
1.156e-10
1.261e-09
1.259e-10
1.23e-09
1.342e-10
1.198e-09
1.406e-10
1.165e-09
1.452e-10
1.132e-09
1.48e-10
1.098e-09
1.492e-10
1.064e-09
1.489e-10
1.03e-09
1.473e-10
9.975e-10
1.445e-10
9.654e-10
1.408e-10
9.342e-10
1.363e-10
9.043e-10
1.311e-10
8.756e-10
1.254e-10
8.482e-10
1.194e-10
8.223e-10
1.131e-10
7.978e-10
1.066e-10
7.747e-10
1.002e-10
7.531e-10
9.376e-11
7.329e-10
8.745e-11
7.14e-10
8.13e-11
6.966e-10
7.537e-11
6.804e-10
6.967e-11
6.654e-10
6.424e-11
6.516e-10
5.909e-11
6.389e-10
5.423e-11
6.273e-10
4.967e-11
6.166e-10
4.54e-11
6.069e-10
4.142e-11
5.98e-10
3.772e-11
5.898e-10
3.429e-11
5.825e-10
3.113e-11
5.757e-10
2.821e-11
5.697e-10
2.553e-11
5.641e-10
2.307e-11
5.592e-10
2.081e-11
5.547e-10
1.876e-11
5.506e-10
1.688e-11
5.469e-10
1.517e-11
5.436e-10
1.362e-11
5.407e-10
1.222e-11
5.38e-10
1.095e-11
5.356e-10
9.814e-12
5.335e-10
8.792e-12
5.315e-10
7.881e-12
5.298e-10
7.074e-12
5.282e-10
6.367e-12
5.268e-10
5.754e-12
5.256e-10
5.232e-12
5.244e-10
4.798e-12
5.234e-10
4.449e-12
5.224e-10
4.183e-12
5.216e-10
3.996e-12
5.208e-10
3.88e-12
5.2e-10
3.826e-12
5.193e-10
3.817e-12
3.827e-12
9.497e-10
7.963e-11
9.723e-10
1.995e-10
9.936e-10
2.78e-10
1.007e-09
3.204e-10
1.011e-09
3.36e-10
1.006e-09
3.332e-10
9.931e-10
3.189e-10
9.752e-10
2.981e-10
9.539e-10
2.742e-10
9.308e-10
2.493e-10
9.071e-10
2.247e-10
8.836e-10
2.013e-10
8.61e-10
1.794e-10
8.397e-10
1.592e-10
8.199e-10
1.406e-10
8.018e-10
1.236e-10
7.854e-10
1.08e-10
7.708e-10
9.385e-11
7.58e-10
8.084e-11
7.468e-10
6.888e-11
7.374e-10
5.782e-11
7.296e-10
4.755e-11
7.233e-10
3.793e-11
7.186e-10
2.887e-11
7.154e-10
2.026e-11
7.136e-10
1.201e-11
7.133e-10
4.029e-12
7.145e-10
-3.761e-12
7.17e-10
-1.143e-11
7.21e-10
-1.905e-11
7.265e-10
-2.667e-11
7.334e-10
-3.436e-11
7.418e-10
-4.216e-11
7.517e-10
-5.01e-11
7.632e-10
-5.823e-11
7.763e-10
-6.656e-11
7.91e-10
-7.511e-11
8.074e-10
-8.389e-11
8.256e-10
-9.289e-11
8.455e-10
-1.021e-10
8.672e-10
-1.114e-10
8.907e-10
-1.209e-10
9.161e-10
-1.303e-10
9.432e-10
-1.397e-10
9.721e-10
-1.489e-10
1.003e-09
-1.577e-10
1.035e-09
-1.66e-10
1.069e-09
-1.736e-10
1.104e-09
-1.803e-10
1.14e-09
-1.857e-10
1.177e-09
-1.897e-10
1.214e-09
-1.92e-10
1.252e-09
-1.922e-10
1.289e-09
-1.903e-10
1.325e-09
-1.858e-10
1.361e-09
-1.786e-10
1.394e-09
-1.687e-10
1.425e-09
-1.558e-10
1.452e-09
-1.402e-10
1.476e-09
-1.219e-10
1.496e-09
-1.012e-10
1.512e-09
-7.846e-11
1.523e-09
-5.423e-11
1.529e-09
-2.902e-11
1.529e-09
-3.447e-12
1.525e-09
2.191e-11
1.516e-09
4.649e-11
1.502e-09
6.98e-11
1.484e-09
9.146e-11
1.462e-09
1.111e-10
1.437e-09
1.286e-10
1.409e-09
1.438e-10
1.378e-09
1.565e-10
1.346e-09
1.668e-10
1.312e-09
1.747e-10
1.276e-09
1.803e-10
1.241e-09
1.838e-10
1.204e-09
1.853e-10
1.168e-09
1.849e-10
1.133e-09
1.83e-10
1.098e-09
1.796e-10
1.064e-09
1.75e-10
1.03e-09
1.693e-10
9.986e-10
1.629e-10
9.682e-10
1.559e-10
9.391e-10
1.484e-10
9.116e-10
1.406e-10
8.856e-10
1.327e-10
8.611e-10
1.247e-10
8.381e-10
1.167e-10
8.167e-10
1.089e-10
7.967e-10
1.013e-10
7.781e-10
9.394e-11
7.609e-10
8.688e-11
7.45e-10
8.015e-11
7.303e-10
7.377e-11
7.168e-10
6.774e-11
7.044e-10
6.208e-11
6.93e-10
5.677e-11
6.826e-10
5.183e-11
6.731e-10
4.723e-11
6.644e-10
4.296e-11
6.565e-10
3.902e-11
6.494e-10
3.539e-11
6.428e-10
3.205e-11
6.369e-10
2.898e-11
6.316e-10
2.617e-11
6.267e-10
2.36e-11
6.224e-10
2.125e-11
6.184e-10
1.912e-11
6.149e-10
1.718e-11
6.117e-10
1.542e-11
6.088e-10
1.383e-11
6.062e-10
1.24e-11
6.039e-10
1.111e-11
6.018e-10
9.962e-12
5.999e-10
8.942e-12
5.983e-10
8.043e-12
5.968e-10
7.26e-12
5.954e-10
6.587e-12
5.942e-10
6.02e-12
5.931e-10
5.554e-12
5.921e-10
5.186e-12
5.912e-10
4.911e-12
5.903e-10
4.721e-12
5.895e-10
4.607e-12
5.888e-10
4.553e-12
4.539e-12
9.471e-10
7e-11
9.667e-10
1.8e-10
9.876e-10
2.571e-10
1.004e-09
3.039e-10
1.014e-09
3.265e-10
1.016e-09
3.312e-10
1.011e-09
3.236e-10
1.001e-09
3.082e-10
9.869e-10
2.882e-10
9.703e-10
2.659e-10
9.522e-10
2.428e-10
9.335e-10
2.2e-10
9.149e-10
1.98e-10
8.968e-10
1.772e-10
8.798e-10
1.577e-10
8.638e-10
1.395e-10
8.492e-10
1.226e-10
8.361e-10
1.07e-10
8.244e-10
9.254e-11
8.141e-10
7.908e-11
8.054e-10
6.653e-11
7.982e-10
5.476e-11
7.925e-10
4.368e-11
7.882e-10
3.316e-11
7.853e-10
2.311e-11
7.839e-10
1.343e-11
7.839e-10
4.025e-12
7.853e-10
-5.186e-12
7.882e-10
-1.428e-11
7.925e-10
-2.334e-11
7.982e-10
-3.242e-11
8.055e-10
-4.159e-11
8.142e-10
-5.09e-11
8.245e-10
-6.04e-11
8.364e-10
-7.012e-11
8.499e-10
-8.009e-11
8.651e-10
-9.033e-11
8.821e-10
-1.008e-10
9.008e-10
-1.116e-10
9.214e-10
-1.226e-10
9.438e-10
-1.338e-10
9.681e-10
-1.451e-10
9.942e-10
-1.565e-10
1.022e-09
-1.678e-10
1.052e-09
-1.788e-10
1.084e-09
-1.894e-10
1.117e-09
-1.995e-10
1.152e-09
-2.086e-10
1.189e-09
-2.167e-10
1.226e-09
-2.233e-10
1.265e-09
-2.283e-10
1.304e-09
-2.311e-10
1.343e-09
-2.316e-10
1.383e-09
-2.294e-10
1.421e-09
-2.241e-10
1.458e-09
-2.157e-10
1.493e-09
-2.038e-10
1.526e-09
-1.884e-10
1.555e-09
-1.696e-10
1.581e-09
-1.475e-10
1.602e-09
-1.225e-10
1.618e-09
-9.499e-11
1.63e-09
-6.562e-11
1.636e-09
-3.508e-11
1.637e-09
-4.091e-12
1.632e-09
2.66e-11
1.622e-09
5.631e-11
1.607e-09
8.446e-11
1.588e-09
1.106e-10
1.565e-09
1.342e-10
1.539e-09
1.553e-10
1.509e-09
1.734e-10
1.477e-09
1.887e-10
1.443e-09
2.01e-10
1.407e-09
2.105e-10
1.37e-09
2.172e-10
1.332e-09
2.213e-10
1.295e-09
2.23e-10
1.257e-09
2.225e-10
1.22e-09
2.201e-10
1.183e-09
2.16e-10
1.148e-09
2.105e-10
1.114e-09
2.037e-10
1.081e-09
1.96e-10
1.049e-09
1.875e-10
1.019e-09
1.785e-10
9.903e-10
1.692e-10
9.633e-10
1.596e-10
9.379e-10
1.5e-10
9.142e-10
1.405e-10
8.92e-10
1.311e-10
8.713e-10
1.22e-10
8.52e-10
1.132e-10
8.342e-10
1.047e-10
8.177e-10
9.663e-11
8.025e-10
8.897e-11
7.885e-10
8.174e-11
7.757e-10
7.494e-11
7.639e-10
6.857e-11
7.531e-10
6.263e-11
7.432e-10
5.71e-11
7.342e-10
5.197e-11
7.26e-10
4.723e-11
7.185e-10
4.286e-11
7.117e-10
3.883e-11
7.056e-10
3.513e-11
7e-10
3.175e-11
6.949e-10
2.865e-11
6.904e-10
2.581e-11
6.863e-10
2.324e-11
6.825e-10
2.089e-11
6.792e-10
1.876e-11
6.762e-10
1.684e-11
6.735e-10
1.51e-11
6.711e-10
1.354e-11
6.689e-10
1.214e-11
6.669e-10
1.09e-11
6.652e-10
9.798e-12
6.636e-10
8.834e-12
6.622e-10
7.999e-12
6.609e-10
7.288e-12
6.598e-10
6.696e-12
6.587e-10
6.217e-12
6.578e-10
5.845e-12
6.569e-10
5.573e-12
6.562e-10
5.392e-12
6.554e-10
5.291e-12
5.252e-12
9.453e-10
6.22e-11
9.623e-10
1.63e-10
9.821e-10
2.373e-10
9.999e-10
2.862e-10
1.013e-09
3.135e-10
1.02e-09
3.24e-10
1.021e-09
3.222e-10
1.018e-09
3.118e-10
1.01e-09
2.958e-10
9.996e-10
2.765e-10
9.869e-10
2.555e-10
9.73e-10
2.339e-10
9.586e-10
2.124e-10
9.442e-10
1.916e-10
9.301e-10
1.717e-10
9.168e-10
1.528e-10
9.044e-10
1.351e-10
8.93e-10
1.184e-10
8.828e-10
1.027e-10
8.738e-10
8.804e-11
8.662e-10
7.42e-11
8.598e-10
6.112e-11
8.548e-10
4.871e-11
8.511e-10
3.686e-11
8.487e-10
2.547e-11
8.477e-10
1.444e-11
8.481e-10
3.676e-12
8.498e-10
-6.903e-12
8.529e-10
-1.738e-11
8.574e-10
-2.784e-11
8.633e-10
-3.836e-11
8.707e-10
-4.899e-11
8.796e-10
-5.98e-11
8.901e-10
-7.084e-11
9.021e-10
-8.215e-11
9.158e-10
-9.376e-11
9.311e-10
-1.057e-10
9.482e-10
-1.179e-10
9.671e-10
-1.305e-10
9.879e-10
-1.434e-10
1.01e-09
-1.564e-10
1.035e-09
-1.697e-10
1.061e-09
-1.83e-10
1.09e-09
-1.962e-10
1.12e-09
-2.091e-10
1.152e-09
-2.216e-10
1.186e-09
-2.334e-10
1.222e-09
-2.443e-10
1.259e-09
-2.539e-10
1.298e-09
-2.618e-10
1.337e-09
-2.678e-10
1.377e-09
-2.714e-10
1.418e-09
-2.721e-10
1.458e-09
-2.698e-10
1.498e-09
-2.639e-10
1.537e-09
-2.541e-10
1.573e-09
-2.404e-10
1.607e-09
-2.224e-10
1.638e-09
-2.004e-10
1.665e-09
-1.744e-10
1.687e-09
-1.448e-10
1.705e-09
-1.123e-10
1.716e-09
-7.753e-11
1.723e-09
-4.133e-11
1.723e-09
-4.629e-12
1.718e-09
3.167e-11
1.708e-09
6.676e-11
1.692e-09
9.993e-11
1.672e-09
1.306e-10
1.648e-09
1.584e-10
1.62e-09
1.83e-10
1.59e-09
2.042e-10
1.556e-09
2.22e-10
1.521e-09
2.364e-10
1.484e-09
2.474e-10
1.446e-09
2.551e-10
1.407e-09
2.598e-10
1.369e-09
2.617e-10
1.33e-09
2.611e-10
1.292e-09
2.582e-10
1.255e-09
2.533e-10
1.219e-09
2.467e-10
1.184e-09
2.387e-10
1.15e-09
2.296e-10
1.118e-09
2.197e-10
1.087e-09
2.091e-10
1.058e-09
1.981e-10
1.031e-09
1.87e-10
1.005e-09
1.757e-10
9.811e-10
1.646e-10
9.587e-10
1.536e-10
9.377e-10
1.429e-10
9.183e-10
1.326e-10
9.003e-10
1.227e-10
8.836e-10
1.133e-10
8.682e-10
1.043e-10
8.541e-10
9.589e-11
8.411e-10
8.795e-11
8.291e-10
8.05e-11
8.182e-10
7.356e-11
8.082e-10
6.709e-11
7.991e-10
6.11e-11
7.907e-10
5.555e-11
7.832e-10
5.043e-11
7.763e-10
4.572e-11
7.7e-10
4.139e-11
7.644e-10
3.741e-11
7.592e-10
3.378e-11
7.546e-10
3.046e-11
7.504e-10
2.743e-11
7.466e-10
2.468e-11
7.432e-10
2.218e-11
7.401e-10
1.991e-11
7.374e-10
1.786e-11
7.349e-10
1.602e-11
7.327e-10
1.437e-11
7.307e-10
1.289e-11
7.289e-10
1.159e-11
7.273e-10
1.044e-11
7.258e-10
9.433e-12
7.246e-10
8.573e-12
7.234e-10
7.848e-12
7.224e-10
7.251e-12
7.214e-10
6.777e-12
7.206e-10
6.419e-12
7.198e-10
6.168e-12
7.191e-10
6.016e-12
5.952e-12
9.44e-10
5.571e-11
9.589e-10
1.481e-10
9.774e-10
2.188e-10
9.954e-10
2.681e-10
1.01e-09
2.985e-10
1.021e-09
3.133e-10
1.027e-09
3.162e-10
1.029e-09
3.102e-10
1.026e-09
2.981e-10
1.021e-09
2.819e-10
1.013e-09
2.632e-10
1.004e-09
2.432e-10
9.938e-10
2.227e-10
9.83e-10
2.024e-10
9.722e-10
1.825e-10
9.616e-10
1.634e-10
9.516e-10
1.451e-10
9.423e-10
1.277e-10
9.338e-10
1.112e-10
9.263e-10
9.552e-11
9.199e-10
8.063e-11
9.146e-10
6.645e-11
9.104e-10
5.288e-11
9.074e-10
3.985e-11
9.057e-10
2.724e-11
9.051e-10
1.498e-11
9.058e-10
2.965e-12
9.078e-10
-8.892e-12
9.111e-10
-2.068e-11
9.157e-10
-3.247e-11
9.217e-10
-4.436e-11
9.291e-10
-5.64e-11
9.38e-10
-6.866e-11
9.484e-10
-8.119e-11
9.603e-10
-9.405e-11
9.738e-10
-1.073e-10
9.889e-10
-1.209e-10
1.006e-09
-1.348e-10
1.024e-09
-1.492e-10
1.045e-09
-1.638e-10
1.067e-09
-1.788e-10
1.092e-09
-1.939e-10
1.118e-09
-2.092e-10
1.146e-09
-2.243e-10
1.176e-09
-2.392e-10
1.208e-09
-2.537e-10
1.242e-09
-2.673e-10
1.278e-09
-2.799e-10
1.315e-09
-2.911e-10
1.354e-09
-3.005e-10
1.393e-09
-3.076e-10
1.434e-09
-3.121e-10
1.475e-09
-3.133e-10
1.517e-09
-3.11e-10
1.557e-09
-3.045e-10
1.597e-09
-2.936e-10
1.634e-09
-2.781e-10
1.67e-09
-2.576e-10
1.701e-09
-2.323e-10
1.729e-09
-2.023e-10
1.752e-09
-1.68e-10
1.77e-09
-1.303e-10
1.783e-09
-8.979e-11
1.789e-09
-4.767e-11
1.789e-09
-4.989e-12
1.784e-09
3.716e-11
1.773e-09
7.78e-11
1.757e-09
1.161e-10
1.736e-09
1.515e-10
1.711e-09
1.834e-10
1.682e-09
2.116e-10
1.651e-09
2.358e-10
1.617e-09
2.561e-10
1.581e-09
2.724e-10
1.543e-09
2.849e-10
1.504e-09
2.936e-10
1.465e-09
2.989e-10
1.426e-09
3.009e-10
1.387e-09
3e-10
1.349e-09
2.965e-10
1.312e-09
2.907e-10
1.275e-09
2.83e-10
1.24e-09
2.737e-10
1.207e-09
2.632e-10
1.175e-09
2.517e-10
1.144e-09
2.396e-10
1.116e-09
2.269e-10
1.088e-09
2.141e-10
1.063e-09
2.012e-10
1.039e-09
1.884e-10
1.017e-09
1.759e-10
9.96e-10
1.636e-10
9.768e-10
1.519e-10
9.59e-10
1.405e-10
9.425e-10
1.298e-10
9.273e-10
1.195e-10
9.133e-10
1.099e-10
9.005e-10
1.008e-10
8.887e-10
9.229e-11
8.779e-10
8.436e-11
8.68e-10
7.697e-11
8.59e-10
7.012e-11
8.508e-10
6.378e-11
8.433e-10
5.793e-11
8.365e-10
5.253e-11
8.303e-10
4.758e-11
8.247e-10
4.303e-11
8.196e-10
3.887e-11
8.15e-10
3.507e-11
8.108e-10
3.16e-11
8.07e-10
2.844e-11
8.036e-10
2.557e-11
8.006e-10
2.296e-11
7.978e-10
2.061e-11
7.954e-10
1.849e-11
7.932e-10
1.658e-11
7.912e-10
1.488e-11
7.894e-10
1.336e-11
7.878e-10
1.202e-11
7.864e-10
1.085e-11
7.851e-10
9.842e-12
7.84e-10
8.981e-12
7.83e-10
8.265e-12
7.821e-10
7.686e-12
7.812e-10
7.239e-12
7.805e-10
6.918e-12
7.798e-10
6.715e-12
6.626e-12
9.43e-10
5.018e-11
9.562e-10
1.349e-10
9.734e-10
2.017e-10
9.912e-10
2.503e-10
1.007e-09
2.823e-10
1.02e-09
3.002e-10
1.03e-09
3.068e-10
1.035e-09
3.046e-10
1.037e-09
2.96e-10
1.037e-09
2.827e-10
1.033e-09
2.664e-10
1.028e-09
2.483e-10
1.022e-09
2.291e-10
1.015e-09
2.096e-10
1.007e-09
1.902e-10
9.993e-10
1.711e-10
9.917e-10
1.527e-10
9.846e-10
1.349e-10
9.78e-10
1.178e-10
9.721e-10
1.014e-10
9.671e-10
8.569e-11
9.629e-10
7.062e-11
9.597e-10
5.61e-11
9.575e-10
4.205e-11
9.563e-10
2.84e-11
9.563e-10
1.504e-11
9.573e-10
1.901e-12
9.596e-10
-1.112e-11
9.63e-10
-2.41e-11
9.676e-10
-3.713e-11
9.736e-10
-5.029e-11
9.808e-10
-6.365e-11
9.894e-10
-7.728e-11
9.995e-10
-9.123e-11
1.011e-09
-1.056e-10
1.024e-09
-1.203e-10
1.039e-09
-1.355e-10
1.055e-09
-1.511e-10
1.073e-09
-1.672e-10
1.093e-09
-1.836e-10
1.114e-09
-2.004e-10
1.138e-09
-2.174e-10
1.163e-09
-2.346e-10
1.191e-09
-2.517e-10
1.22e-09
-2.686e-10
1.251e-09
-2.849e-10
1.284e-09
-3.005e-10
1.319e-09
-3.15e-10
1.356e-09
-3.279e-10
1.394e-09
-3.388e-10
1.434e-09
-3.472e-10
1.474e-09
-3.526e-10
1.516e-09
-3.545e-10
1.557e-09
-3.523e-10
1.598e-09
-3.455e-10
1.638e-09