/*--------------------------------*- C++ -*----------------------------------*\
  =========                 |
  \\      /  F ield         | OpenFOAM: The Open Source CFD Toolbox
   \\    /   O peration     | Website:  https://openfoam.org
    \\  /    A nd           | Version:  7
     \\/     M anipulation  |
\*---------------------------------------------------------------------------*/
FoamFile
{
    version     2.0;
    format      ascii;
    class       volVectorField;
    location    "2399.99947344063412";
    object      U;
}
// * * * * * * * * * * * * * * * * * * * * * * * * * * * * * * * * * * * * * //

dimensions      [0 1 -1 0 0 0 0];

internalField   nonuniform List<vector> 
4096
(
(0.001039 0.0001611 0)
(0.0007463 0.0001314 0)
(0.0005302 8.474e-05 0)
(0.0003919 5.359e-05 0)
(0.0003036 3.467e-05 0)
(0.0002457 2.329e-05 0)
(0.000206 1.634e-05 0)
(0.0001778 1.196e-05 0)
(0.0001567 9.072e-06 0)
(0.0001406 7.086e-06 0)
(0.0001278 5.661e-06 0)
(0.0001176 4.601e-06 0)
(0.0001092 3.788e-06 0)
(0.0001022 3.149e-06 0)
(9.645e-05 2.635e-06 0)
(9.16e-05 2.214e-06 0)
(8.752e-05 1.864e-06 0)
(8.409e-05 1.569e-06 0)
(8.12e-05 1.316e-06 0)
(7.879e-05 1.097e-06 0)
(7.678e-05 9.053e-07 0)
(7.514e-05 7.345e-07 0)
(7.383e-05 5.809e-07 0)
(7.281e-05 4.408e-07 0)
(7.206e-05 3.114e-07 0)
(7.155e-05 1.902e-07 0)
(7.129e-05 7.517e-08 0)
(7.125e-05 -3.552e-08 0)
(7.143e-05 -1.434e-07 0)
(7.182e-05 -2.499e-07 0)
(7.243e-05 -3.561e-07 0)
(7.325e-05 -4.633e-07 0)
(7.428e-05 -5.721e-07 0)
(7.554e-05 -6.836e-07 0)
(7.702e-05 -7.983e-07 0)
(7.873e-05 -9.168e-07 0)
(8.069e-05 -1.039e-06 0)
(8.29e-05 -1.166e-06 0)
(8.536e-05 -1.298e-06 0)
(8.809e-05 -1.433e-06 0)
(9.11e-05 -1.572e-06 0)
(9.438e-05 -1.714e-06 0)
(9.795e-05 -1.858e-06 0)
(0.0001018 -2.001e-06 0)
(0.000106 -2.144e-06 0)
(0.0001104 -2.282e-06 0)
(0.0001151 -2.414e-06 0)
(0.00012 -2.536e-06 0)
(0.0001252 -2.644e-06 0)
(0.0001306 -2.736e-06 0)
(0.0001361 -2.805e-06 0)
(0.0001418 -2.848e-06 0)
(0.0001475 -2.861e-06 0)
(0.0001532 -2.839e-06 0)
(0.0001588 -2.779e-06 0)
(0.0001643 -2.676e-06 0)
(0.0001695 -2.53e-06 0)
(0.0001743 -2.338e-06 0)
(0.0001788 -2.103e-06 0)
(0.0001827 -1.827e-06 0)
(0.0001861 -1.513e-06 0)
(0.0001887 -1.168e-06 0)
(0.0001907 -7.999e-07 0)
(0.0001919 -4.168e-07 0)
(0.0001924 -2.825e-08 0)
(0.000192 3.566e-07 0)
(0.000191 7.289e-07 0)
(0.0001891 1.081e-06 0)
(0.0001867 1.407e-06 0)
(0.0001835 1.701e-06 0)
(0.0001799 1.959e-06 0)
(0.0001757 2.181e-06 0)
(0.0001712 2.364e-06 0)
(0.0001663 2.509e-06 0)
(0.0001612 2.616e-06 0)
(0.0001559 2.689e-06 0)
(0.0001505 2.728e-06 0)
(0.000145 2.736e-06 0)
(0.0001396 2.718e-06 0)
(0.0001342 2.675e-06 0)
(0.0001289 2.611e-06 0)
(0.0001237 2.531e-06 0)
(0.0001188 2.436e-06 0)
(0.000114 2.33e-06 0)
(0.0001095 2.217e-06 0)
(0.0001051 2.098e-06 0)
(0.0001011 1.975e-06 0)
(9.725e-05 1.852e-06 0)
(9.367e-05 1.729e-06 0)
(9.033e-05 1.609e-06 0)
(8.723e-05 1.491e-06 0)
(8.436e-05 1.378e-06 0)
(8.171e-05 1.269e-06 0)
(7.927e-05 1.166e-06 0)
(7.704e-05 1.068e-06 0)
(7.5e-05 9.765e-07 0)
(7.313e-05 8.905e-07 0)
(7.143e-05 8.103e-07 0)
(6.988e-05 7.358e-07 0)
(6.848e-05 6.668e-07 0)
(6.721e-05 6.032e-07 0)
(6.606e-05 5.447e-07 0)
(6.503e-05 4.91e-07 0)
(6.409e-05 4.419e-07 0)
(6.325e-05 3.97e-07 0)
(6.25e-05 3.561e-07 0)
(6.183e-05 3.19e-07 0)
(6.122e-05 2.852e-07 0)
(6.068e-05 2.547e-07 0)
(6.02e-05 2.271e-07 0)
(5.977e-05 2.022e-07 0)
(5.939e-05 1.799e-07 0)
(5.905e-05 1.599e-07 0)
(5.875e-05 1.42e-07 0)
(5.848e-05 1.262e-07 0)
(5.824e-05 1.123e-07 0)
(5.803e-05 1.003e-07 0)
(5.784e-05 9.005e-08 0)
(5.767e-05 8.166e-08 0)
(5.751e-05 7.516e-08 0)
(5.736e-05 7.074e-08 0)
(5.722e-05 6.873e-08 0)
(5.708e-05 6.973e-08 0)
(5.694e-05 7.491e-08 0)
(5.678e-05 8.642e-08 0)
(5.658e-05 1.079e-07 0)
(5.633e-05 1.433e-07 0)
(5.6e-05 1.862e-07 0)
(0.001209 0.0003128 0)
(0.001154 0.0003282 0)
(0.00101 0.000248 0)
(0.0008613 0.0001771 0)
(0.0007344 0.0001263 0)
(0.0006326 9.149e-05 0)
(0.0005524 6.795e-05 0)
(0.0004892 5.182e-05 0)
(0.000439 4.048e-05 0)
(0.0003986 3.227e-05 0)
(0.0003656 2.616e-05 0)
(0.0003385 2.15e-05 0)
(0.0003159 1.784e-05 0)
(0.000297 1.492e-05 0)
(0.0002811 1.255e-05 0)
(0.0002677 1.059e-05 0)
(0.0002563 8.947e-06 0)
(0.0002467 7.551e-06 0)
(0.0002385 6.351e-06 0)
(0.0002317 5.306e-06 0)
(0.000226 4.386e-06 0)
(0.0002213 3.566e-06 0)
(0.0002176 2.826e-06 0)
(0.0002147 2.15e-06 0)
(0.0002125 1.525e-06 0)
(0.000211 9.384e-07 0)
(0.0002102 3.815e-07 0)
(0.0002101 -1.542e-07 0)
(0.0002106 -6.763e-07 0)
(0.0002116 -1.191e-06 0)
(0.0002133 -1.704e-06 0)
(0.0002156 -2.221e-06 0)
(0.0002185 -2.745e-06 0)
(0.000222 -3.28e-06 0)
(0.0002262 -3.83e-06 0)
(0.000231 -4.396e-06 0)
(0.0002364 -4.981e-06 0)
(0.0002426 -5.585e-06 0)
(0.0002494 -6.208e-06 0)
(0.000257 -6.849e-06 0)
(0.0002654 -7.506e-06 0)
(0.0002745 -8.174e-06 0)
(0.0002844 -8.848e-06 0)
(0.000295 -9.521e-06 0)
(0.0003064 -1.018e-05 0)
(0.0003186 -1.083e-05 0)
(0.0003315 -1.144e-05 0)
(0.000345 -1.2e-05 0)
(0.0003591 -1.249e-05 0)
(0.0003738 -1.29e-05 0)
(0.0003888 -1.321e-05 0)
(0.0004041 -1.34e-05 0)
(0.0004195 -1.344e-05 0)
(0.0004349 -1.332e-05 0)
(0.00045 -1.302e-05 0)
(0.0004646 -1.253e-05 0)
(0.0004786 -1.183e-05 0)
(0.0004916 -1.093e-05 0)
(0.0005035 -9.824e-06 0)
(0.000514 -8.531e-06 0)
(0.0005229 -7.067e-06 0)
(0.0005301 -5.462e-06 0)
(0.0005353 -3.749e-06 0)
(0.0005386 -1.968e-06 0)
(0.0005399 -1.608e-07 0)
(0.000539 1.63e-06 0)
(0.0005362 3.366e-06 0)
(0.0005315 5.011e-06 0)
(0.0005249 6.535e-06 0)
(0.0005167 7.915e-06 0)
(0.0005069 9.135e-06 0)
(0.0004959 1.018e-05 0)
(0.0004837 1.105e-05 0)
(0.0004707 1.175e-05 0)
(0.0004569 1.227e-05 0)
(0.0004426 1.263e-05 0)
(0.000428 1.283e-05 0)
(0.0004132 1.289e-05 0)
(0.0003984 1.282e-05 0)
(0.0003837 1.264e-05 0)
(0.0003693 1.235e-05 0)
(0.0003552 1.199e-05 0)
(0.0003416 1.156e-05 0)
(0.0003285 1.107e-05 0)
(0.000316 1.055e-05 0)
(0.0003041 9.998e-06 0)
(0.0002928 9.429e-06 0)
(0.0002822 8.854e-06 0)
(0.0002722 8.279e-06 0)
(0.0002629 7.713e-06 0)
(0.0002542 7.16e-06 0)
(0.0002462 6.625e-06 0)
(0.0002387 6.112e-06 0)
(0.0002319 5.623e-06 0)
(0.0002256 5.159e-06 0)
(0.0002198 4.722e-06 0)
(0.0002145 4.312e-06 0)
(0.0002096 3.929e-06 0)
(0.0002052 3.573e-06 0)
(0.0002012 3.243e-06 0)
(0.0001976 2.938e-06 0)
(0.0001943 2.657e-06 0)
(0.0001913 2.398e-06 0)
(0.0001886 2.162e-06 0)
(0.0001862 1.945e-06 0)
(0.000184 1.748e-06 0)
(0.000182 1.568e-06 0)
(0.0001802 1.405e-06 0)
(0.0001787 1.256e-06 0)
(0.0001772 1.122e-06 0)
(0.000176 1.001e-06 0)
(0.0001748 8.925e-07 0)
(0.0001738 7.949e-07 0)
(0.0001729 7.077e-07 0)
(0.0001721 6.304e-07 0)
(0.0001714 5.623e-07 0)
(0.0001708 5.032e-07 0)
(0.0001702 4.527e-07 0)
(0.0001697 4.11e-07 0)
(0.0001692 3.783e-07 0)
(0.0001688 3.551e-07 0)
(0.0001683 3.427e-07 0)
(0.0001679 3.427e-07 0)
(0.0001675 3.584e-07 0)
(0.0001671 3.947e-07 0)
(0.0001666 4.583e-07 0)
(0.0001661 5.528e-07 0)
(0.0001656 6.515e-07 0)
(0.001226 0.0002775 0)
(0.001243 0.0004026 0)
(0.001194 0.0003664 0)
(0.001102 0.0002983 0)
(0.0009996 0.0002346 0)
(0.0009014 0.0001832 0)
(0.0008141 0.0001439 0)
(0.0007388 0.0001143 0)
(0.000675 9.202e-05 0)
(0.0006212 7.501e-05 0)
(0.0005757 6.183e-05 0)
(0.0005372 5.144e-05 0)
(0.0005046 4.311e-05 0)
(0.0004768 3.634e-05 0)
(0.0004531 3.075e-05 0)
(0.0004329 2.607e-05 0)
(0.0004156 2.212e-05 0)
(0.0004009 1.873e-05 0)
(0.0003884 1.58e-05 0)
(0.0003778 1.323e-05 0)
(0.000369 1.096e-05 0)
(0.0003618 8.93e-06 0)
(0.0003559 7.09e-06 0)
(0.0003513 5.405e-06 0)
(0.0003479 3.842e-06 0)
(0.0003456 2.375e-06 0)
(0.0003444 9.791e-07 0)
(0.0003441 -3.646e-07 0)
(0.0003449 -1.674e-06 0)
(0.0003465 -2.965e-06 0)
(0.0003492 -4.251e-06 0)
(0.0003528 -5.544e-06 0)
(0.0003573 -6.854e-06 0)
(0.0003628 -8.191e-06 0)
(0.0003693 -9.561e-06 0)
(0.0003768 -1.097e-05 0)
(0.0003854 -1.242e-05 0)
(0.000395 -1.392e-05 0)
(0.0004057 -1.546e-05 0)
(0.0004176 -1.704e-05 0)
(0.0004306 -1.866e-05 0)
(0.0004448 -2.03e-05 0)
(0.0004601 -2.195e-05 0)
(0.0004766 -2.36e-05 0)
(0.0004943 -2.522e-05 0)
(0.0005132 -2.678e-05 0)
(0.0005331 -2.826e-05 0)
(0.000554 -2.961e-05 0)
(0.0005758 -3.08e-05 0)
(0.0005983 -3.179e-05 0)
(0.0006215 -3.252e-05 0)
(0.000645 -3.294e-05 0)
(0.0006687 -3.301e-05 0)
(0.0006923 -3.269e-05 0)
(0.0007154 -3.192e-05 0)
(0.0007379 -3.069e-05 0)
(0.0007592 -2.897e-05 0)
(0.0007792 -2.674e-05 0)
(0.0007973 -2.403e-05 0)
(0.0008134 -2.087e-05 0)
(0.000827 -1.729e-05 0)
(0.000838 -1.338e-05 0)
(0.0008461 -9.2e-06 0)
(0.0008511 -4.859e-06 0)
(0.0008531 -4.529e-07 0)
(0.0008519 3.917e-06 0)
(0.0008476 8.156e-06 0)
(0.0008404 1.218e-05 0)
(0.0008305 1.591e-05 0)
(0.0008179 1.93e-05 0)
(0.0008031 2.23e-05 0)
(0.0007863 2.489e-05 0)
(0.0007677 2.705e-05 0)
(0.0007477 2.879e-05 0)
(0.0007266 3.01e-05 0)
(0.0007047 3.101e-05 0)
(0.0006823 3.154e-05 0)
(0.0006595 3.172e-05 0)
(0.0006367 3.158e-05 0)
(0.0006141 3.117e-05 0)
(0.0005918 3.051e-05 0)
(0.0005701 2.964e-05 0)
(0.000549 2.861e-05 0)
(0.0005287 2.744e-05 0)
(0.0005092 2.617e-05 0)
(0.0004907 2.483e-05 0)
(0.0004731 2.345e-05 0)
(0.0004565 2.204e-05 0)
(0.0004409 2.064e-05 0)
(0.0004264 1.925e-05 0)
(0.0004128 1.789e-05 0)
(0.0004001 1.658e-05 0)
(0.0003884 1.531e-05 0)
(0.0003776 1.41e-05 0)
(0.0003677 1.295e-05 0)
(0.0003585 1.187e-05 0)
(0.0003501 1.085e-05 0)
(0.0003424 9.902e-06 0)
(0.0003354 9.015e-06 0)
(0.0003291 8.192e-06 0)
(0.0003233 7.431e-06 0)
(0.000318 6.728e-06 0)
(0.0003132 6.082e-06 0)
(0.0003089 5.489e-06 0)
(0.000305 4.946e-06 0)
(0.0003015 4.45e-06 0)
(0.0002983 3.998e-06 0)
(0.0002955 3.586e-06 0)
(0.0002929 3.213e-06 0)
(0.0002906 2.875e-06 0)
(0.0002886 2.569e-06 0)
(0.0002867 2.294e-06 0)
(0.0002851 2.046e-06 0)
(0.0002836 1.825e-06 0)
(0.0002823 1.628e-06 0)
(0.0002811 1.455e-06 0)
(0.0002801 1.304e-06 0)
(0.0002791 1.175e-06 0)
(0.0002783 1.067e-06 0)
(0.0002775 9.804e-07 0)
(0.0002768 9.17e-07 0)
(0.0002761 8.78e-07 0)
(0.0002754 8.66e-07 0)
(0.0002748 8.846e-07 0)
(0.0002742 9.382e-07 0)
(0.0002735 1.03e-06 0)
(0.0002728 1.153e-06 0)
(0.0002722 1.26e-06 0)
(0.001224 0.0002275 0)
(0.00126 0.0004003 0)
(0.001258 0.0004194 0)
(0.001216 0.000379 0)
(0.001149 0.0003231 0)
(0.001073 0.0002688 0)
(0.000997 0.0002218 0)
(0.0009255 0.0001831 0)
(0.0008608 0.0001518 0)
(0.0008034 0.0001265 0)
(0.000753 0.0001061 0)
(0.0007091 8.953e-05 0)
(0.0006709 7.586e-05 0)
(0.0006378 6.451e-05 0)
(0.0006091 5.498e-05 0)
(0.0005842 4.689e-05 0)
(0.0005628 3.997e-05 0)
(0.0005444 3.399e-05 0)
(0.0005287 2.877e-05 0)
(0.0005153 2.416e-05 0)
(0.0005041 2.007e-05 0)
(0.0004948 1.638e-05 0)
(0.0004873 1.302e-05 0)
(0.0004815 9.94e-06 0)
(0.0004771 7.071e-06 0)
(0.0004742 4.371e-06 0)
(0.0004726 1.798e-06 0)
(0.0004723 -6.829e-07 0)
(0.0004733 -3.102e-06 0)
(0.0004756 -5.489e-06 0)
(0.0004791 -7.865e-06 0)
(0.0004838 -1.025e-05 0)
(0.0004898 -1.267e-05 0)
(0.0004971 -1.514e-05 0)
(0.0005056 -1.766e-05 0)
(0.0005155 -2.026e-05 0)
(0.0005268 -2.292e-05 0)
(0.0005394 -2.567e-05 0)
(0.0005534 -2.849e-05 0)
(0.000569 -3.139e-05 0)
(0.000586 -3.434e-05 0)
(0.0006045 -3.733e-05 0)
(0.0006246 -4.033e-05 0)
(0.0006461 -4.332e-05 0)
(0.0006692 -4.625e-05 0)
(0.0006937 -4.908e-05 0)
(0.0007195 -5.174e-05 0)
(0.0007467 -5.417e-05 0)
(0.0007749 -5.631e-05 0)
(0.0008041 -5.806e-05 0)
(0.0008341 -5.935e-05 0)
(0.0008645 -6.008e-05 0)
(0.0008951 -6.017e-05 0)
(0.0009256 -5.954e-05 0)
(0.0009555 -5.812e-05 0)
(0.0009844 -5.585e-05 0)
(0.001012 -5.27e-05 0)
(0.001038 -4.864e-05 0)
(0.001061 -4.371e-05 0)
(0.001082 -3.796e-05 0)
(0.001099 -3.146e-05 0)
(0.001114 -2.435e-05 0)
(0.001124 -1.678e-05 0)
(0.001131 -8.904e-06 0)
(0.001133 -9.112e-07 0)
(0.001132 7.019e-06 0)
(0.001126 1.472e-05 0)
(0.001117 2.203e-05 0)
(0.001104 2.882e-05 0)
(0.001088 3.5e-05 0)
(0.001069 4.048e-05 0)
(0.001048 4.521e-05 0)
(0.001024 4.918e-05 0)
(0.0009979 5.237e-05 0)
(0.0009707 5.481e-05 0)
(0.0009424 5.651e-05 0)
(0.0009134 5.752e-05 0)
(0.0008839 5.79e-05 0)
(0.0008544 5.771e-05 0)
(0.0008251 5.7e-05 0)
(0.0007962 5.584e-05 0)
(0.000768 5.431e-05 0)
(0.0007405 5.246e-05 0)
(0.0007141 5.037e-05 0)
(0.0006887 4.809e-05 0)
(0.0006645 4.567e-05 0)
(0.0006415 4.317e-05 0)
(0.0006198 4.062e-05 0)
(0.0005994 3.807e-05 0)
(0.0005802 3.554e-05 0)
(0.0005623 3.307e-05 0)
(0.0005457 3.067e-05 0)
(0.0005303 2.836e-05 0)
(0.000516 2.614e-05 0)
(0.0005028 2.404e-05 0)
(0.0004907 2.205e-05 0)
(0.0004796 2.019e-05 0)
(0.0004694 1.844e-05 0)
(0.0004601 1.68e-05 0)
(0.0004516 1.529e-05 0)
(0.0004438 1.388e-05 0)
(0.0004368 1.258e-05 0)
(0.0004304 1.139e-05 0)
(0.0004246 1.029e-05 0)
(0.0004194 9.28e-06 0)
(0.0004147 8.359e-06 0)
(0.0004104 7.519e-06 0)
(0.0004066 6.754e-06 0)
(0.0004031 6.058e-06 0)
(0.0004 5.427e-06 0)
(0.0003972 4.857e-06 0)
(0.0003947 4.342e-06 0)
(0.0003925 3.879e-06 0)
(0.0003905 3.465e-06 0)
(0.0003887 3.095e-06 0)
(0.0003871 2.769e-06 0)
(0.0003857 2.484e-06 0)
(0.0003844 2.238e-06 0)
(0.0003832 2.031e-06 0)
(0.0003821 1.863e-06 0)
(0.0003811 1.735e-06 0)
(0.0003802 1.647e-06 0)
(0.0003794 1.603e-06 0)
(0.0003786 1.605e-06 0)
(0.0003778 1.654e-06 0)
(0.000377 1.747e-06 0)
(0.0003762 1.867e-06 0)
(0.0003755 1.961e-06 0)
(0.001219 0.0001846 0)
(0.001255 0.0003713 0)
(0.001275 0.0004302 0)
(0.001264 0.0004212 0)
(0.001229 0.000383 0)
(0.001178 0.0003358 0)
(0.001119 0.0002892 0)
(0.00106 0.000247 0)
(0.001002 0.0002104 0)
(0.0009476 0.0001794 0)
(0.0008982 0.0001531 0)
(0.0008536 0.000131 0)
(0.0008139 0.0001123 0)
(0.0007787 9.641e-05 0)
(0.0007477 8.281e-05 0)
(0.0007205 7.11e-05 0)
(0.0006967 6.094e-05 0)
(0.0006761 5.205e-05 0)
(0.0006583 4.422e-05 0)
(0.0006431 3.726e-05 0)
(0.0006303 3.101e-05 0)
(0.0006196 2.536e-05 0)
(0.000611 2.019e-05 0)
(0.0006042 1.542e-05 0)
(0.0005992 1.096e-05 0)
(0.0005959 6.751e-06 0)
(0.0005941 2.729e-06 0)
(0.0005939 -1.157e-06 0)
(0.0005953 -4.953e-06 0)
(0.0005981 -8.699e-06 0)
(0.0006023 -1.243e-05 0)
(0.0006081 -1.618e-05 0)
(0.0006153 -1.998e-05 0)
(0.0006241 -2.385e-05 0)
(0.0006344 -2.781e-05 0)
(0.0006463 -3.187e-05 0)
(0.0006598 -3.605e-05 0)
(0.000675 -4.034e-05 0)
(0.0006918 -4.475e-05 0)
(0.0007104 -4.926e-05 0)
(0.0007308 -5.385e-05 0)
(0.000753 -5.85e-05 0)
(0.0007769 -6.316e-05 0)
(0.0008027 -6.78e-05 0)
(0.0008302 -7.233e-05 0)
(0.0008594 -7.67e-05 0)
(0.0008902 -8.081e-05 0)
(0.0009225 -8.455e-05 0)
(0.0009562 -8.783e-05 0)
(0.0009909 -9.051e-05 0)
(0.001027 -9.247e-05 0)
(0.001063 -9.357e-05 0)
(0.001099 -9.367e-05 0)
(0.001135 -9.266e-05 0)
(0.001171 -9.042e-05 0)
(0.001205 -8.687e-05 0)
(0.001238 -8.195e-05 0)
(0.001268 -7.564e-05 0)
(0.001296 -6.797e-05 0)
(0.001321 -5.903e-05 0)
(0.001342 -4.895e-05 0)
(0.001359 -3.791e-05 0)
(0.001371 -2.615e-05 0)
(0.001379 -1.393e-05 0)
(0.001382 -1.525e-06 0)
(0.00138 1.079e-05 0)
(0.001374 2.274e-05 0)
(0.001363 3.41e-05 0)
(0.001348 4.466e-05 0)
(0.001329 5.427e-05 0)
(0.001306 6.281e-05 0)
(0.001281 7.02e-05 0)
(0.001252 7.641e-05 0)
(0.001222 8.141e-05 0)
(0.00119 8.525e-05 0)
(0.001156 8.795e-05 0)
(0.001122 8.959e-05 0)
(0.001087 9.024e-05 0)
(0.001051 8.999e-05 0)
(0.001017 8.895e-05 0)
(0.0009821 8.721e-05 0)
(0.0009484 8.487e-05 0)
(0.0009157 8.205e-05 0)
(0.0008841 7.884e-05 0)
(0.0008538 7.533e-05 0)
(0.0008248 7.16e-05 0)
(0.0007973 6.773e-05 0)
(0.0007713 6.379e-05 0)
(0.0007468 5.984e-05 0)
(0.0007238 5.591e-05 0)
(0.0007023 5.207e-05 0)
(0.0006822 4.833e-05 0)
(0.0006636 4.473e-05 0)
(0.0006464 4.128e-05 0)
(0.0006305 3.799e-05 0)
(0.0006158 3.488e-05 0)
(0.0006023 3.196e-05 0)
(0.00059 2.921e-05 0)
(0.0005787 2.665e-05 0)
(0.0005683 2.427e-05 0)
(0.0005589 2.206e-05 0)
(0.0005503 2.002e-05 0)
(0.0005425 1.813e-05 0)
(0.0005355 1.64e-05 0)
(0.0005291 1.481e-05 0)
(0.0005233 1.335e-05 0)
(0.000518 1.202e-05 0)
(0.0005133 1.081e-05 0)
(0.0005091 9.708e-06 0)
(0.0005052 8.708e-06 0)
(0.0005018 7.801e-06 0)
(0.0004987 6.982e-06 0)
(0.0004959 6.245e-06 0)
(0.0004935 5.584e-06 0)
(0.0004912 4.994e-06 0)
(0.0004892 4.472e-06 0)
(0.0004874 4.013e-06 0)
(0.0004858 3.615e-06 0)
(0.0004844 3.278e-06 0)
(0.0004831 2.999e-06 0)
(0.0004819 2.779e-06 0)
(0.0004808 2.618e-06 0)
(0.0004797 2.518e-06 0)
(0.0004788 2.478e-06 0)
(0.0004778 2.497e-06 0)
(0.000477 2.566e-06 0)
(0.0004761 2.663e-06 0)
(0.0004753 2.738e-06 0)
(0.001214 0.000152 0)
(0.001246 0.0003355 0)
(0.001274 0.0004184 0)
(0.001282 0.0004357 0)
(0.001268 0.0004173 0)
(0.001239 0.0003821 0)
(0.001199 0.0003412 0)
(0.001153 0.0003004 0)
(0.001106 0.0002624 0)
(0.001059 0.0002283 0)
(0.001014 0.0001983 0)
(0.0009727 0.000172 0)
(0.0009345 0.0001492 0)
(0.0008999 0.0001293 0)
(0.0008688 0.000112 0)
(0.0008411 9.681e-05 0)
(0.0008167 8.345e-05 0)
(0.0007952 7.163e-05 0)
(0.0007765 6.109e-05 0)
(0.0007605 5.164e-05 0)
(0.0007468 4.309e-05 0)
(0.0007355 3.53e-05 0)
(0.0007262 2.814e-05 0)
(0.000719 2.148e-05 0)
(0.0007136 1.524e-05 0)
(0.0007101 9.32e-06 0)
(0.0007084 3.648e-06 0)
(0.0007083 -1.845e-06 0)
(0.00071 -7.221e-06 0)
(0.0007133 -1.253e-05 0)
(0.0007183 -1.783e-05 0)
(0.0007249 -2.316e-05 0)
(0.0007332 -2.856e-05 0)
(0.0007432 -3.405e-05 0)
(0.000755 -3.967e-05 0)
(0.0007685 -4.544e-05 0)
(0.0007838 -5.135e-05 0)
(0.0008011 -5.743e-05 0)
(0.0008202 -6.367e-05 0)
(0.0008413 -7.004e-05 0)
(0.0008644 -7.653e-05 0)
(0.0008895 -8.308e-05 0)
(0.0009166 -8.966e-05 0)
(0.0009458 -9.618e-05 0)
(0.0009769 -0.0001026 0)
(0.00101 -0.0001087 0)
(0.001045 -0.0001145 0)
(0.001081 -0.0001197 0)
(0.001119 -0.0001243 0)
(0.001159 -0.0001281 0)
(0.001199 -0.0001308 0)
(0.00124 -0.0001323 0)
(0.001281 -0.0001324 0)
(0.001322 -0.000131 0)
(0.001362 -0.0001278 0)
(0.001401 -0.0001228 0)
(0.001438 -0.0001158 0)
(0.001473 -0.0001069 0)
(0.001504 -9.61e-05 0)
(0.001532 -8.348e-05 0)
(0.001556 -6.924e-05 0)
(0.001575 -5.366e-05 0)
(0.001589 -3.705e-05 0)
(0.001598 -1.979e-05 0)
(0.001602 -2.268e-06 0)
(0.0016 1.512e-05 0)
(0.001593 3.2e-05 0)
(0.00158 4.805e-05 0)
(0.001563 6.297e-05 0)
(0.001542 7.655e-05 0)
(0.001516 8.862e-05 0)
(0.001487 9.908e-05 0)
(0.001455 0.0001079 0)
(0.00142 0.000115 0)
(0.001384 0.0001204 0)
(0.001346 0.0001243 0)
(0.001307 0.0001267 0)
(0.001267 0.0001277 0)
(0.001228 0.0001274 0)
(0.001188 0.000126 0)
(0.001149 0.0001236 0)
(0.001111 0.0001203 0)
(0.001074 0.0001164 0)
(0.001038 0.0001119 0)
(0.001004 0.000107 0)
(0.0009712 0.0001018 0)
(0.00094 9.632e-05 0)
(0.0009104 9.078e-05 0)
(0.0008826 8.521e-05 0)
(0.0008564 7.968e-05 0)
(0.000832 7.426e-05 0)
(0.0008091 6.898e-05 0)
(0.0007879 6.389e-05 0)
(0.0007683 5.9e-05 0)
(0.0007501 5.435e-05 0)
(0.0007333 4.995e-05 0)
(0.0007179 4.58e-05 0)
(0.0007038 4.19e-05 0)
(0.0006908 3.826e-05 0)
(0.0006789 3.487e-05 0)
(0.0006681 3.172e-05 0)
(0.0006582 2.88e-05 0)
(0.0006492 2.612e-05 0)
(0.0006411 2.364e-05 0)
(0.0006337 2.137e-05 0)
(0.000627 1.929e-05 0)
(0.0006209 1.738e-05 0)
(0.0006155 1.564e-05 0)
(0.0006105 1.406e-05 0)
(0.0006061 1.263e-05 0)
(0.0006021 1.132e-05 0)
(0.0005985 1.014e-05 0)
(0.0005953 9.082e-06 0)
(0.0005924 8.128e-06 0)
(0.0005898 7.275e-06 0)
(0.0005874 6.518e-06 0)
(0.0005853 5.85e-06 0)
(0.0005835 5.269e-06 0)
(0.0005818 4.771e-06 0)
(0.0005802 4.354e-06 0)
(0.0005788 4.016e-06 0)
(0.0005776 3.757e-06 0)
(0.0005764 3.576e-06 0)
(0.0005753 3.471e-06 0)
(0.0005743 3.436e-06 0)
(0.0005733 3.461e-06 0)
(0.0005724 3.522e-06 0)
(0.0005716 3.574e-06 0)
(0.00121 0.0001279 0)
(0.001237 0.0003009 0)
(0.001266 0.0003959 0)
(0.001284 0.0004325 0)
(0.001286 0.0004318 0)
(0.001273 0.00041 0)
(0.001249 0.0003776 0)
(0.001217 0.0003414 0)
(0.001181 0.000305 0)
(0.001143 0.0002704 0)
(0.001106 0.0002386 0)
(0.001069 0.0002098 0)
(0.001035 0.0001841 0)
(0.001003 0.0001611 0)
(0.0009732 0.0001406 0)
(0.0009467 0.0001224 0)
(0.0009229 0.0001061 0)
(0.0009017 9.154e-05 0)
(0.0008832 7.839e-05 0)
(0.0008671 6.648e-05 0)
(0.0008534 5.562e-05 0)
(0.0008419 4.564e-05 0)
(0.0008326 3.64e-05 0)
(0.0008252 2.777e-05 0)
(0.0008199 1.963e-05 0)
(0.0008165 1.188e-05 0)
(0.0008149 4.432e-06 0)
(0.0008151 -2.805e-06 0)
(0.0008171 -9.904e-06 0)
(0.0008208 -1.693e-05 0)
(0.0008264 -2.395e-05 0)
(0.0008337 -3.102e-05 0)
(0.0008429 -3.817e-05 0)
(0.0008539 -4.546e-05 0)
(0.0008668 -5.291e-05 0)
(0.0008816 -6.055e-05 0)
(0.0008984 -6.839e-05 0)
(0.0009172 -7.644e-05 0)
(0.0009381 -8.469e-05 0)
(0.0009611 -9.313e-05 0)
(0.0009863 -0.0001017 0)
(0.001014 -0.0001104 0)
(0.001043 -0.000119 0)
(0.001075 -0.0001277 0)
(0.001109 -0.0001361 0)
(0.001145 -0.0001442 0)
(0.001183 -0.0001518 0)
(0.001223 -0.0001587 0)
(0.001264 -0.0001648 0)
(0.001307 -0.0001697 0)
(0.001351 -0.0001733 0)
(0.001395 -0.0001753 0)
(0.00144 -0.0001755 0)
(0.001485 -0.0001736 0)
(0.001529 -0.0001694 0)
(0.001572 -0.0001628 0)
(0.001613 -0.0001536 0)
(0.001651 -0.0001418 0)
(0.001686 -0.0001275 0)
(0.001716 -0.0001108 0)
(0.001742 -9.193e-05 0)
(0.001764 -7.127e-05 0)
(0.001779 -4.924e-05 0)
(0.001789 -2.634e-05 0)
(0.001793 -3.1e-06 0)
(0.001791 1.996e-05 0)
(0.001783 4.234e-05 0)
(0.001769 6.36e-05 0)
(0.00175 8.337e-05 0)
(0.001727 0.0001014 0)
(0.001699 0.0001173 0)
(0.001667 0.0001312 0)
(0.001632 0.0001429 0)
(0.001594 0.0001523 0)
(0.001554 0.0001595 0)
(0.001513 0.0001647 0)
(0.00147 0.0001679 0)
(0.001427 0.0001692 0)
(0.001383 0.0001689 0)
(0.00134 0.0001671 0)
(0.001298 0.0001639 0)
(0.001256 0.0001597 0)
(0.001216 0.0001545 0)
(0.001177 0.0001486 0)
(0.001139 0.0001422 0)
(0.001103 0.0001353 0)
(0.001069 0.0001281 0)
(0.001037 0.0001208 0)
(0.001006 0.0001135 0)
(0.0009778 0.0001062 0)
(0.000951 9.9e-05 0)
(0.000926 9.202e-05 0)
(0.0009028 8.528e-05 0)
(0.0008812 7.882e-05 0)
(0.0008613 7.265e-05 0)
(0.0008429 6.681e-05 0)
(0.0008259 6.13e-05 0)
(0.0008104 5.613e-05 0)
(0.0007961 5.129e-05 0)
(0.000783 4.677e-05 0)
(0.0007711 4.258e-05 0)
(0.0007602 3.87e-05 0)
(0.0007503 3.512e-05 0)
(0.0007413 3.182e-05 0)
(0.0007331 2.878e-05 0)
(0.0007256 2.6e-05 0)
(0.0007189 2.345e-05 0)
(0.0007128 2.112e-05 0)
(0.0007074 1.9e-05 0)
(0.0007024 1.708e-05 0)
(0.000698 1.533e-05 0)
(0.0006939 1.374e-05 0)
(0.0006903 1.232e-05 0)
(0.0006871 1.103e-05 0)
(0.0006842 9.879e-06 0)
(0.0006816 8.854e-06 0)
(0.0006793 7.948e-06 0)
(0.0006771 7.155e-06 0)
(0.0006753 6.47e-06 0)
(0.0006736 5.889e-06 0)
(0.000672 5.41e-06 0)
(0.0006706 5.03e-06 0)
(0.0006693 4.746e-06 0)
(0.0006682 4.554e-06 0)
(0.0006671 4.447e-06 0)
(0.0006661 4.411e-06 0)
(0.0006651 4.425e-06 0)
(0.0006642 4.451e-06 0)
(0.001208 0.0001098 0)
(0.00123 0.0002699 0)
(0.001258 0.0003695 0)
(0.001281 0.0004188 0)
(0.001292 0.0004325 0)
(0.001291 0.0004231 0)
(0.001279 0.0004002 0)
(0.00126 0.0003702 0)
(0.001235 0.0003373 0)
(0.001206 0.0003043 0)
(0.001176 0.0002725 0)
(0.001146 0.0002427 0)
(0.001117 0.0002152 0)
(0.001088 0.0001901 0)
(0.001062 0.0001673 0)
(0.001038 0.0001466 0)
(0.001016 0.0001278 0)
(0.000996 0.0001108 0)
(0.0009784 9.525e-05 0)
(0.0009631 8.104e-05 0)
(0.0009499 6.796e-05 0)
(0.0009388 5.585e-05 0)
(0.0009298 4.455e-05 0)
(0.0009228 3.394e-05 0)
(0.0009177 2.388e-05 0)
(0.0009146 1.426e-05 0)
(0.0009133 4.966e-06 0)
(0.0009138 -4.087e-06 0)
(0.0009162 -1.299e-05 0)
(0.0009204 -2.182e-05 0)
(0.0009264 -3.066e-05 0)
(0.0009343 -3.956e-05 0)
(0.0009441 -4.858e-05 0)
(0.0009558 -5.778e-05 0)
(0.0009695 -6.718e-05 0)
(0.0009853 -7.682e-05 0)
(0.001003 -8.672e-05 0)
(0.001023 -9.687e-05 0)
(0.001045 -0.0001073 0)
(0.001069 -0.0001179 0)
(0.001096 -0.0001287 0)
(0.001125 -0.0001396 0)
(0.001156 -0.0001506 0)
(0.00119 -0.0001614 0)
(0.001226 -0.0001721 0)
(0.001264 -0.0001823 0)
(0.001304 -0.0001919 0)
(0.001346 -0.0002006 0)
(0.00139 -0.0002083 0)
(0.001436 -0.0002146 0)
(0.001483 -0.0002192 0)
(0.00153 -0.0002218 0)
(0.001578 -0.000222 0)
(0.001626 -0.0002197 0)
(0.001673 -0.0002145 0)
(0.001719 -0.0002062 0)
(0.001763 -0.0001946 0)
(0.001804 -0.0001798 0)
(0.001841 -0.0001617 0)
(0.001874 -0.0001406 0)
(0.001903 -0.0001167 0)
(0.001925 -9.047e-05 0)
(0.001942 -6.252e-05 0)
(0.001953 -3.346e-05 0)
(0.001957 -3.973e-06 0)
(0.001955 2.527e-05 0)
(0.001946 5.363e-05 0)
(0.001931 8.055e-05 0)
(0.001911 0.0001056 0)
(0.001886 0.0001283 0)
(0.001855 0.0001485 0)
(0.001821 0.000166 0)
(0.001784 0.0001807 0)
(0.001743 0.0001926 0)
(0.001701 0.0002018 0)
(0.001656 0.0002083 0)
(0.001611 0.0002123 0)
(0.001565 0.000214 0)
(0.001519 0.0002136 0)
(0.001473 0.0002113 0)
(0.001427 0.0002074 0)
(0.001383 0.0002021 0)
(0.00134 0.0001956 0)
(0.001299 0.0001882 0)
(0.001259 0.00018 0)
(0.001221 0.0001714 0)
(0.001184 0.0001624 0)
(0.00115 0.0001532 0)
(0.001118 0.0001439 0)
(0.001087 0.0001347 0)
(0.001059 0.0001257 0)
(0.001033 0.0001169 0)
(0.001008 0.0001084 0)
(0.0009849 0.0001002 0)
(0.0009637 9.241e-05 0)
(0.0009442 8.503e-05 0)
(0.0009261 7.806e-05 0)
(0.0009095 7.152e-05 0)
(0.0008943 6.539e-05 0)
(0.0008804 5.968e-05 0)
(0.0008676 5.437e-05 0)
(0.000856 4.945e-05 0)
(0.0008454 4.49e-05 0)
(0.0008358 4.07e-05 0)
(0.000827 3.685e-05 0)
(0.000819 3.331e-05 0)
(0.0008118 3.007e-05 0)
(0.0008053 2.71e-05 0)
(0.0007994 2.44e-05 0)
(0.0007941 2.194e-05 0)
(0.0007893 1.971e-05 0)
(0.000785 1.769e-05 0)
(0.0007811 1.586e-05 0)
(0.0007776 1.421e-05 0)
(0.0007745 1.274e-05 0)
(0.0007717 1.142e-05 0)
(0.0007691 1.025e-05 0)
(0.0007669 9.222e-06 0)
(0.0007648 8.329e-06 0)
(0.000763 7.564e-06 0)
(0.0007613 6.923e-06 0)
(0.0007599 6.402e-06 0)
(0.0007585 5.997e-06 0)
(0.0007573 5.7e-06 0)
(0.0007562 5.505e-06 0)
(0.0007551 5.397e-06 0)
(0.0007541 5.357e-06 0)
(0.0007532 5.354e-06 0)
(0.001206 9.576e-05 0)
(0.001225 0.0002429 0)
(0.001251 0.0003425 0)
(0.001275 0.0003996 0)
(0.001291 0.0004239 0)
(0.001299 0.0004252 0)
(0.001297 0.0004112 0)
(0.001288 0.0003881 0)
(0.001272 0.0003599 0)
(0.001253 0.0003297 0)
(0.00123 0.0002992 0)
(0.001207 0.0002696 0)
(0.001183 0.0002416 0)
(0.00116 0.0002153 0)
(0.001137 0.0001909 0)
(0.001116 0.0001684 0)
(0.001096 0.0001476 0)
(0.001079 0.0001286 0)
(0.001063 0.000111 0)
(0.001049 9.469e-05 0)
(0.001037 7.958e-05 0)
(0.001026 6.548e-05 0)
(0.001018 5.223e-05 0)
(0.001012 3.97e-05 0)
(0.001007 2.776e-05 0)
(0.001004 1.628e-05 0)
(0.001003 5.154e-06 0)
(0.001004 -5.726e-06 0)
(0.001007 -1.646e-05 0)
(0.001012 -2.713e-05 0)
(0.001018 -3.782e-05 0)
(0.001026 -4.861e-05 0)
(0.001037 -5.956e-05 0)
(0.001049 -7.072e-05 0)
(0.001063 -8.214e-05 0)
(0.001079 -9.385e-05 0)
(0.001098 -0.0001059 0)
(0.001118 -0.0001182 0)
(0.001141 -0.0001309 0)
(0.001166 -0.0001438 0)
(0.001194 -0.000157 0)
(0.001224 -0.0001702 0)
(0.001256 -0.0001836 0)
(0.001291 -0.0001968 0)
(0.001328 -0.0002097 0)
(0.001367 -0.0002222 0)
(0.001409 -0.0002339 0)
(0.001453 -0.0002446 0)
(0.001498 -0.000254 0)
(0.001546 -0.0002618 0)
(0.001595 -0.0002675 0)
(0.001644 -0.0002708 0)
(0.001694 -0.0002713 0)
(0.001745 -0.0002686 0)
(0.001794 -0.0002624 0)
(0.001842 -0.0002524 0)
(0.001889 -0.0002384 0)
(0.001932 -0.0002203 0)
(0.001972 -0.0001983 0)
(0.002007 -0.0001724 0)
(0.002037 -0.0001431 0)
(0.002061 -0.000111 0)
(0.002079 -7.67e-05 0)
(0.00209 -4.102e-05 0)
(0.002094 -4.824e-06 0)
(0.002092 3.104e-05 0)
(0.002083 6.579e-05 0)
(0.002067 9.873e-05 0)
(0.002045 0.0001293 0)
(0.002018 0.000157 0)
(0.001986 0.0001817 0)
(0.00195 0.000203 0)
(0.001911 0.0002209 0)
(0.001868 0.0002354 0)
(0.001824 0.0002465 0)
(0.001777 0.0002544 0)
(0.00173 0.0002593 0)
(0.001681 0.0002613 0)
(0.001633 0.0002608 0)
(0.001585 0.000258 0)
(0.001538 0.0002532 0)
(0.001492 0.0002467 0)
(0.001447 0.0002388 0)
(0.001404 0.0002297 0)
(0.001363 0.0002198 0)
(0.001323 0.0002092 0)
(0.001286 0.0001983 0)
(0.00125 0.0001871 0)
(0.001217 0.0001758 0)
(0.001185 0.0001646 0)
(0.001156 0.0001536 0)
(0.001128 0.0001429 0)
(0.001103 0.0001326 0)
(0.001079 0.0001226 0)
(0.001057 0.0001131 0)
(0.001037 0.0001042 0)
(0.001018 9.567e-05 0)
(0.001001 8.769e-05 0)
(0.0009853 8.022e-05 0)
(0.0009708 7.325e-05 0)
(0.0009576 6.677e-05 0)
(0.0009455 6.076e-05 0)
(0.0009345 5.52e-05 0)
(0.0009245 5.008e-05 0)
(0.0009154 4.536e-05 0)
(0.0009071 4.103e-05 0)
(0.0008996 3.706e-05 0)
(0.0008928 3.343e-05 0)
(0.0008866 3.012e-05 0)
(0.0008811 2.711e-05 0)
(0.000876 2.436e-05 0)
(0.0008715 2.188e-05 0)
(0.0008674 1.963e-05 0)
(0.0008638 1.76e-05 0)
(0.0008605 1.578e-05 0)
(0.0008575 1.415e-05 0)
(0.0008549 1.27e-05 0)
(0.0008525 1.142e-05 0)
(0.0008504 1.03e-05 0)
(0.0008485 9.335e-06 0)
(0.0008468 8.517e-06 0)
(0.0008452 7.84e-06 0)
(0.0008438 7.298e-06 0)
(0.0008426 6.884e-06 0)
(0.0008414 6.588e-06 0)
(0.0008404 6.399e-06 0)
(0.0008394 6.3e-06 0)
(0.0008385 6.266e-06 0)
(0.001205 8.461e-05 0)
(0.001221 0.0002195 0)
(0.001244 0.0003164 0)
(0.001268 0.0003777 0)
(0.001288 0.0004096 0)
(0.001301 0.0004193 0)
(0.001307 0.0004133 0)
(0.001305 0.0003968 0)
(0.001298 0.0003738 0)
(0.001286 0.0003471 0)
(0.001271 0.0003189 0)
(0.001254 0.0002905 0)
(0.001236 0.0002627 0)
(0.001218 0.000236 0)
(0.0012 0.0002108 0)
(0.001182 0.0001871 0)
(0.001166 0.0001649 0)
(0.00115 0.0001443 0)
(0.001137 0.000125 0)
(0.001124 0.000107 0)
(0.001114 9.007e-05 0)
(0.001105 7.417e-05 0)
(0.001097 5.913e-05 0)
(0.001092 4.481e-05 0)
(0.001088 3.109e-05 0)
(0.001086 1.783e-05 0)
(0.001085 4.928e-06 0)
(0.001087 -7.737e-06 0)
(0.00109 -2.027e-05 0)
(0.001095 -3.276e-05 0)
(0.001101 -4.53e-05 0)
(0.00111 -5.797e-05 0)
(0.00112 -7.085e-05 0)
(0.001133 -8.399e-05 0)
(0.001147 -9.745e-05 0)
(0.001163 -0.0001113 0)
(0.001182 -0.0001255 0)
(0.001203 -0.00014 0)
(0.001226 -0.000155 0)
(0.001251 -0.0001702 0)
(0.001279 -0.0001858 0)
(0.001309 -0.0002015 0)
(0.001342 -0.0002173 0)
(0.001377 -0.0002329 0)
(0.001414 -0.0002483 0)
(0.001454 -0.0002631 0)
(0.001497 -0.0002771 0)
(0.001541 -0.0002899 0)
(0.001588 -0.0003012 0)
(0.001636 -0.0003105 0)
(0.001686 -0.0003175 0)
(0.001737 -0.0003216 0)
(0.001789 -0.0003224 0)
(0.001841 -0.0003194 0)
(0.001892 -0.0003123 0)
(0.001942 -0.0003007 0)
(0.00199 -0.0002843 0)
(0.002036 -0.0002629 0)
(0.002077 -0.0002368 0)
(0.002114 -0.000206 0)
(0.002145 -0.0001711 0)
(0.002171 -0.0001327 0)
(0.002189 -9.162e-05 0)
(0.002201 -4.89e-05 0)
(0.002205 -5.581e-06 0)
(0.002203 3.73e-05 0)
(0.002193 7.877e-05 0)
(0.002176 0.000118 0)
(0.002153 0.0001544 0)
(0.002125 0.0001873 0)
(0.002092 0.0002165 0)
(0.002054 0.0002417 0)
(0.002013 0.0002628 0)
(0.001969 0.0002799 0)
(0.001923 0.000293 0)
(0.001875 0.0003023 0)
(0.001826 0.0003079 0)
(0.001777 0.0003102 0)
(0.001727 0.0003095 0)
(0.001678 0.0003061 0)
(0.00163 0.0003003 0)