/*--------------------------------*- C++ -*----------------------------------*\
  =========                 |
  \\      /  F ield         | OpenFOAM: The Open Source CFD Toolbox
   \\    /   O peration     | Website:  https://openfoam.org
    \\  /    A nd           | Version:  7
     \\/     M anipulation  |
\*---------------------------------------------------------------------------*/
FoamFile
{
    version     2.0;
    format      ascii;
    class       volScalarField;
    location    "2399.99947344063412";
    object      Y.K;
}
// * * * * * * * * * * * * * * * * * * * * * * * * * * * * * * * * * * * * * //

dimensions      [0 0 0 0 0 0 0];

internalField   nonuniform List<scalar> 
4096
(
3.012e-73
-1.646e-74
3.877e-72
-6.42e-73
-1.459e-73
6.49e-73
-3.486e-73
-1.701e-73
1.105e-73
-1.958e-73
3.226e-72
-4.543e-71
6.978e-70
-9.604e-69
1.309e-67
-1.672e-66
2.051e-65
-2.46e-64
2.774e-63
-3.102e-62
3.365e-61
-3.542e-60
3.66e-59
-3.682e-58
3.622e-57
-3.459e-56
3.208e-55
-2.857e-54
2.418e-53
-2.035e-52
1.697e-51
-1.397e-50
1.133e-49
-9.02e-49
7.028e-48
-5.341e-47
3.945e-46
-2.821e-45
1.946e-44
-1.291e-43
8.107e-43
-4.858e-42
2.77e-41
-1.46e-40
7.03e-40
-2.928e-39
1.052e-38
-1.831e-38
-1.077e-37
1.645e-36
-1.349e-35
8.218e-35
-4.575e-34
2.32e-33
-1.038e-32
4.541e-32
-1.683e-31
6.553e-31
-1.91e-30
7.929e-30
-8.463e-30
5.825e-29
3.042e-28
5.076e-28
4.007e-27
2.344e-26
2.342e-26
2.997e-25
8.523e-25
1.851e-24
3.507e-24
2.795e-23
7.026e-23
1.792e-22
1.338e-21
5.995e-21
9.386e-20
1.472e-18
3.878e-18
7.55e-18
1.307e-17
2.127e-17
3.328e-17
5.059e-17
7.519e-17
1.096e-16
1.573e-16
2.222e-16
3.098e-16
4.267e-16
5.808e-16
7.824e-16
1.043e-15
1.379e-15
1.806e-15
2.347e-15
3.027e-15
3.877e-15
4.932e-15
6.234e-15
7.834e-15
9.791e-15
1.217e-14
1.506e-14
1.854e-14
2.273e-14
2.774e-14
3.373e-14
4.085e-14
4.93e-14
5.929e-14
7.107e-14
8.492e-14
1.012e-13
1.202e-13
1.424e-13
1.682e-13
1.982e-13
2.329e-13
2.731e-13
3.194e-13
3.726e-13
4.335e-13
5.026e-13
5.798e-13
6.635e-13
7.474e-13
8.144e-13
7.084e-72
-4.029e-71
4.629e-71
-8.018e-72
-3.221e-71
2.769e-71
-2.344e-72
-1.024e-71
3.513e-72
-1.048e-71
1.807e-70
-2.552e-69
3.824e-68
-5.436e-67
7.309e-66
-9.342e-65
1.142e-63
-1.341e-62
1.524e-61
-1.682e-60
1.809e-59
-1.901e-58
1.952e-57
-1.958e-56
1.917e-55
-1.825e-54
1.685e-53
-1.495e-52
1.265e-51
-1.065e-50
8.869e-50
-7.295e-49
5.907e-48
-4.695e-47
3.65e-46
-2.768e-45
2.039e-44
-1.455e-43
1.001e-42
-6.61e-42
4.172e-41
-2.501e-40
1.414e-39
-7.446e-39
3.593e-38
-1.518e-37
5.562e-37
-1.194e-36
-3.807e-36
7.199e-35
-6.132e-34
3.806e-33
-2.146e-32
1.075e-31
-4.773e-31
2.12e-30
-7.717e-30
3.067e-29
-8.5e-29
3.859e-28
-2.814e-28
3.219e-27
1.577e-26
3.235e-26
2.224e-25
1.188e-24
1.575e-24
1.484e-23
4.344e-23
9.348e-23
1.854e-22
1.253e-21
3.207e-21
7.686e-21
4.897e-20
1.564e-19
1.098e-18
2.927e-18
5.851e-18
1.034e-17
1.705e-17
2.691e-17
4.116e-17
6.145e-17
8.994e-17
1.294e-16
1.834e-16
2.564e-16
3.54e-16
4.832e-16
6.527e-16
8.729e-16
1.157e-15
1.52e-15
1.981e-15
2.562e-15
3.29e-15
4.197e-15
5.32e-15
6.705e-15
8.402e-15
1.047e-14
1.299e-14
1.604e-14
1.971e-14
2.412e-14
2.94e-14
3.57e-14
4.318e-14
5.206e-14
6.254e-14
7.49e-14
8.942e-14
1.064e-13
1.263e-13
1.496e-13
1.766e-13
2.079e-13
2.443e-13
2.863e-13
3.347e-13
3.903e-13
4.541e-13
5.269e-13
6.092e-13
7.008e-13
7.993e-13
8.943e-13
-1.637e-70
1.139e-69
-2.846e-69
3.769e-69
-2.578e-69
4.329e-70
6.449e-70
-3.923e-70
-9.868e-72
-5.559e-70
9.973e-69
-1.36e-67
2.032e-66
-2.877e-65
3.848e-64
-4.886e-63
5.927e-62
-6.911e-61
7.795e-60
-8.543e-59
9.13e-58
-9.533e-57
9.735e-56
-9.716e-55
9.464e-54
-8.969e-53
8.249e-52
-7.289e-51
6.174e-50
-5.195e-49
4.326e-48
-3.556e-47
2.877e-46
-2.283e-45
1.773e-44
-1.342e-43
9.867e-43
-7.026e-42
4.825e-41
-3.183e-40
2.007e-39
-1.204e-38
6.812e-38
-3.603e-37
1.754e-36
-7.6e-36
2.851e-35
-7.831e-35
-3.789e-35
2.63e-33
-2.481e-32
1.564e-31
-9.02e-31
4.558e-30
-2.016e-29
9.253e-29
-3.271e-28
1.355e-27
-3.416e-27
1.819e-26
-3.43e-27
1.869e-25
7.874e-25
2.078e-24
1.259e-23
5.816e-23
1.027e-22
7.3e-22
2.125e-21
4.538e-21
9.389e-21
5.174e-20
1.316e-19
2.932e-19
1.409e-18
3.397e-18
6.415e-18
1.097e-17
1.774e-17
2.759e-17
4.17e-17
6.155e-17
8.909e-17
1.268e-16
1.778e-16
2.46e-16
3.362e-16
4.546e-16
6.086e-16
8.073e-16
1.062e-15
1.386e-15
1.795e-15
2.31e-15
2.954e-15
3.754e-15
4.743e-15
5.963e-15
7.457e-15
9.282e-15
1.15e-14
1.419e-14
1.743e-14
2.133e-14
2.601e-14
3.16e-14
3.825e-14
4.615e-14
5.551e-14
6.655e-14
7.956e-14
9.484e-14
1.127e-13
1.337e-13
1.581e-13
1.865e-13
2.194e-13
2.576e-13
3.017e-13
3.525e-13
4.11e-13
4.782e-13
5.551e-13
6.43e-13
7.43e-13
8.562e-13
9.839e-13
1.13e-12
2.696e-69
-2.142e-68
7.496e-68
-1.596e-67
2.19e-67
-1.959e-67
1.061e-67
-2.289e-68
-5.769e-69
-3.199e-68
5.299e-67
-6.827e-66
1.013e-64
-1.423e-63
1.883e-62
-2.364e-61
2.834e-60
-3.265e-59
3.641e-58
-3.948e-57
4.178e-56
-4.324e-55
4.38e-54
-4.339e-53
4.2e-52
-3.959e-51
3.624e-50
-3.192e-49
2.706e-48
-2.278e-47
1.898e-46
-1.559e-45
1.261e-44
-1e-43
7.756e-43
-5.865e-42
4.31e-41
-3.066e-40
2.105e-39
-1.389e-38
8.767e-38
-5.269e-37
2.996e-36
-1.598e-35
7.894e-35
-3.536e-34
1.349e-33
-4.888e-33
5.462e-33
6.68e-32
-8.223e-31
5.39e-30
-3.27e-29
1.685e-28
-7.396e-28
3.633e-27
-1.211e-26
5.452e-26
-1.109e-25
8.007e-25
5.773e-25
1.076e-23
4.325e-23
1.201e-22
6.84e-22
2.579e-21
6e-21
3.239e-20
9.091e-20
1.912e-19
4.019e-19
1.588e-18
3.835e-18
7.22e-18
1.243e-17
2.027e-17
3.179e-17
4.829e-17
7.147e-17
1.034e-16
1.468e-16
2.048e-16
2.813e-16
3.812e-16
5.102e-16
6.754e-16
8.854e-16
1.15e-15
1.483e-15
1.898e-15
2.413e-15
3.05e-15
3.835e-15
4.798e-15
5.975e-15
7.41e-15
9.152e-15
1.126e-14
1.381e-14
1.687e-14
2.055e-14
2.496e-14
3.022e-14
3.648e-14
4.391e-14
5.272e-14
6.312e-14
7.539e-14
8.981e-14
1.067e-13
1.265e-13
1.497e-13
1.766e-13
2.08e-13
2.443e-13
2.864e-13
3.351e-13
3.912e-13
4.557e-13
5.298e-13
6.148e-13
7.12e-13
8.229e-13
9.491e-13
1.093e-12
1.255e-12
1.442e-12
1.682e-12
-3.849e-68
3.324e-67
-1.44e-66
4.095e-66
-8.052e-66
1.131e-65
-1.142e-65
8.023e-66
-3.489e-66
-1.27e-66
2.699e-65
-3.238e-64
4.729e-63
-6.538e-62
8.502e-61
-1.047e-59
1.231e-58
-1.393e-57
1.526e-56
-1.629e-55
1.7e-54
-1.736e-53
1.739e-52
-1.706e-51
1.637e-50
-1.533e-49
1.396e-48
-1.226e-47
1.041e-46
-8.774e-46
7.314e-45
-6.013e-44
4.863e-43
-3.857e-42
2.992e-41
-2.262e-40
1.663e-39
-1.184e-38
8.135e-38
-5.377e-37
3.405e-36
-2.056e-35
1.178e-34
-6.362e-34
3.206e-33
-1.485e-32
6.123e-32
-2.258e-31
5.43e-31
2.85e-31
-1.918e-29
1.431e-28
-9.749e-28
5.22e-27
-2.231e-26
1.268e-25
-3.692e-25
1.983e-24
-2.081e-24
3.197e-23
5.795e-23
5.886e-22
2.221e-21
6.533e-21
3.307e-20
1.093e-19
2.739e-19
1.075e-18
2.813e-18
5.758e-18
1.061e-17
1.849e-17
3.082e-17
4.942e-17
7.659e-17
1.152e-16
1.685e-16
2.408e-16
3.365e-16
4.614e-16
6.217e-16
8.248e-16
1.079e-15
1.396e-15
1.785e-15
2.263e-15
2.845e-15
3.551e-15
4.406e-15
5.438e-15
6.68e-15
8.173e-15
9.964e-15
1.211e-14
1.467e-14
1.773e-14
2.138e-14
2.572e-14
3.087e-14
3.699e-14
4.422e-14
5.278e-14
6.288e-14
7.477e-14
8.874e-14
1.051e-13
1.243e-13
1.468e-13
1.73e-13
2.035e-13
2.39e-13
2.801e-13
3.277e-13
3.828e-13
4.463e-13
5.194e-13
6.035e-13
6.999e-13
8.103e-13
9.364e-13
1.08e-12
1.244e-12
1.43e-12
1.641e-12
1.879e-12
2.149e-12
2.456e-12
2.884e-12
5.075e-67
-4.628e-66
2.324e-65
-8.123e-65
2.054e-64
-3.876e-64
5.534e-64
-5.925e-64
4.578e-64
-2.677e-64
1.298e-63
-1.449e-62
2.055e-61
-2.765e-60
3.491e-59
-4.172e-58
4.767e-57
-5.245e-56
5.606e-55
-5.85e-54
5.981e-53
-6.004e-52
5.921e-51
-5.734e-50
5.444e-49
-5.055e-48
4.578e-47
-4.01e-46
3.416e-45
-2.886e-44
2.41e-43
-1.984e-42
1.607e-41
-1.276e-40
9.911e-40
-7.505e-39
5.525e-38
-3.942e-37
2.717e-36
-1.803e-35
1.148e-34
-6.987e-34
4.046e-33
-2.219e-32
1.144e-31
-5.49e-31
2.422e-30
-9.486e-30
3.291e-29
-6.815e-29
-6.937e-29
2.118e-27
-2.151e-26
1.282e-25
-4.92e-25
3.972e-24
-7.986e-24
6.629e-23
3.345e-23
1.099e-21
4.423e-21
2.869e-20
1.003e-19
2.991e-19
1.226e-18
3.468e-18
7.742e-18
1.558e-17
2.931e-17
5.218e-17
8.862e-17
1.442e-16
2.26e-16
3.419e-16
5.011e-16
7.136e-16
9.899e-16
1.341e-15
1.779e-15
2.317e-15
2.967e-15
3.746e-15
4.67e-15
5.759e-15
7.04e-15
8.539e-15
1.029e-14
1.234e-14
1.473e-14
1.753e-14
2.079e-14
2.462e-14
2.909e-14
3.433e-14
4.046e-14
4.765e-14
5.607e-14
6.592e-14
7.746e-14
9.096e-14
1.067e-13
1.252e-13
1.467e-13
1.718e-13
2.01e-13
2.349e-13
2.743e-13
3.2e-13
3.729e-13
4.341e-13
5.047e-13
5.861e-13
6.797e-13
7.873e-13
9.107e-13
1.052e-12
1.213e-12
1.398e-12
1.607e-12
1.846e-12
2.117e-12
2.423e-12
2.77e-12
3.161e-12
3.601e-12
4.096e-12
4.655e-12
5.47e-12
-6.369e-66
6.023e-65
-3.369e-64
1.376e-63
-4.219e-63
9.968e-63
-1.839e-62
2.635e-62
-2.817e-62
1.856e-62
4.86e-62
-6.055e-61
8.186e-60
-1.055e-58
1.273e-57
-1.455e-56
1.594e-55
-1.685e-54
1.739e-53
-1.76e-52
1.752e-51
-1.718e-50
1.662e-49
-1.584e-48
1.485e-47
-1.367e-46
1.231e-45
-1.077e-44
9.219e-44
-7.818e-43
6.552e-42
-5.412e-41
4.396e-40
-3.502e-39
2.728e-38
-2.073e-37
1.533e-36
-1.099e-35
7.614e-35
-5.087e-34
3.266e-33
-2.008e-32
1.179e-31
-6.578e-31
3.474e-30
-1.723e-29
8e-29
-3.428e-28
1.333e-27
-4.477e-27
1.317e-26
-1.074e-26
-1.42e-25
2.177e-24
-3.26e-24
1.127e-22
-2.903e-23
2.194e-21
6.27e-21
5.141e-20
2.244e-19
1.059e-18
3.427e-18
8.773e-18
2.009e-17
4.259e-17
8.459e-17
1.585e-16
2.816e-16
4.763e-16
7.695e-16
1.192e-15
1.775e-15
2.552e-15
3.551e-15
4.798e-15
6.313e-15
8.113e-15
1.021e-14
1.262e-14
1.535e-14
1.843e-14
2.187e-14
2.573e-14
3.003e-14
3.484e-14
4.025e-14
4.633e-14
5.321e-14
6.101e-14
6.99e-14
8.006e-14
9.17e-14
1.051e-13
1.205e-13
1.382e-13
1.587e-13
1.824e-13
2.097e-13
2.414e-13
2.78e-13
3.203e-13
3.691e-13
4.256e-13
4.907e-13
5.659e-13
6.524e-13
7.52e-13
8.665e-13
9.979e-13
1.149e-12
1.321e-12
1.519e-12
1.744e-12
2.001e-12
2.294e-12
2.626e-12
3.004e-12
3.432e-12
3.916e-12
4.462e-12
5.079e-12
5.772e-12
6.55e-12
7.423e-12
8.399e-12
9.488e-12
1.113e-11
7.715e-65
-7.48e-64
4.537e-63
-2.094e-62
7.499e-62
-2.127e-61
4.834e-61
-8.769e-61
1.237e-60
-1.307e-60
2.379e-60
-2.232e-59
2.898e-58
-3.505e-57
3.953e-56
-4.232e-55
4.365e-54
-4.366e-53
4.297e-52
-4.175e-51
4.017e-50
-3.83e-49
3.621e-48
-3.389e-47
3.136e-46
-2.861e-45
2.566e-44
-2.251e-43
1.942e-42
-1.658e-41
1.399e-40
-1.163e-39
9.502e-39
-7.615e-38
5.971e-37
-4.569e-36
3.402e-35
-2.459e-34
1.72e-33
-1.162e-32
7.552e-32
-4.711e-31
2.812e-30
-1.603e-29
8.671e-29
-4.422e-28
2.137e-27
-9.667e-27
4.103e-26
-1.611e-25
5.822e-25
-1.84e-24
3.512e-24
2.635e-23
1.234e-22
2.44e-21
7.023e-21
7.358e-20
3.622e-19
1.857e-18
6.604e-18
1.873e-17
4.745e-17
1.107e-16
2.403e-16
4.877e-16
9.3e-16
1.672e-15
2.844e-15
4.596e-15
7.081e-15
1.044e-14
1.478e-14
2.016e-14
2.661e-14
3.407e-14
4.248e-14
5.173e-14
6.172e-14
7.236e-14
8.357e-14
9.536e-14
1.077e-13
1.208e-13
1.347e-13
1.495e-13
1.655e-13
1.83e-13
2.022e-13
2.236e-13
2.474e-13
2.742e-13
3.045e-13
3.389e-13
3.78e-13
4.227e-13
4.737e-13
5.321e-13
5.991e-13
6.758e-13
7.637e-13
8.646e-13
9.802e-13
1.113e-12
1.265e-12
1.438e-12
1.637e-12
1.865e-12
2.124e-12
2.42e-12
2.758e-12
3.142e-12
3.579e-12
4.075e-12
4.638e-12
5.275e-12
5.995e-12
6.809e-12
7.726e-12
8.759e-12
9.919e-12
1.122e-11
1.268e-11
1.431e-11
1.613e-11
1.815e-11
2.039e-11
2.385e-11
-9.071e-64
8.948e-63
-5.778e-62
2.944e-61
-1.199e-60
3.971e-60
-1.078e-59
2.393e-59
-4.201e-59
5.152e-59
6.089e-59
-7.74e-58
8.774e-57
-9.482e-56
9.63e-55
-9.374e-54
8.871e-53
-8.192e-52
7.571e-51
-6.988e-50
6.457e-49
-5.958e-48
5.504e-47
-5.065e-46
4.638e-45
-4.21e-44
3.778e-43
-3.349e-42
2.931e-41
-2.536e-40
2.166e-39
-1.822e-38
1.506e-37
-1.222e-36
9.699e-36
-7.521e-35
5.682e-34
-4.171e-33
2.968e-32
-2.042e-31
1.355e-30
-8.646e-30
5.293e-29
-3.107e-28
1.727e-27
-8.995e-27
4.492e-26
-2.089e-25
9.283e-25
-3.848e-24
1.531e-23
-5.4e-23
1.3e-22
9.774e-22
9.235e-21
6.731e-20
4.388e-19
2.62e-18
1.046e-17
3.372e-17
9.706e-17
2.561e-16
6.24e-16
1.41e-15
2.961e-15
5.803e-15
1.065e-14
1.837e-14
2.989e-14
4.609e-14
6.759e-14
9.468e-14
1.272e-13
1.645e-13
2.056e-13
2.492e-13
2.941e-13
3.39e-13
3.832e-13
4.259e-13
4.67e-13
5.065e-13
5.448e-13
5.827e-13
6.207e-13
6.598e-13
7.007e-13
7.446e-13
7.924e-13
8.452e-13
9.043e-13
9.707e-13
1.046e-12
1.131e-12
1.229e-12
1.34e-12
1.466e-12
1.611e-12
1.776e-12
1.964e-12
2.18e-12
2.425e-12
2.706e-12
3.025e-12
3.389e-12
3.804e-12
4.275e-12
4.811e-12
5.42e-12
6.11e-12
6.893e-12
7.778e-12
8.78e-12
9.912e-12
1.119e-11
1.263e-11
1.425e-11
1.606e-11
1.811e-11
2.039e-11
2.295e-11
2.581e-11
2.899e-11
3.253e-11
3.647e-11
4.084e-11
4.561e-11
5.312e-11
1.034e-62
-1.033e-61
7.008e-61
-3.875e-60
1.762e-59
-6.673e-59
2.122e-58
-5.655e-58
1.242e-57
-2.171e-57
4.446e-57
-1.846e-56
1.903e-55
-1.774e-54
1.51e-53
-1.274e-52
1.038e-51
-8.365e-51
7.058e-50
-6.099e-49
5.411e-48
-4.835e-47
4.444e-46
-4.084e-45
3.774e-44
-3.467e-43
3.173e-42
-2.879e-41
2.585e-40
-2.293e-39
2.008e-38
-1.731e-37
1.469e-36
-1.221e-35
9.988e-35
-7.991e-34
6.247e-33
-4.744e-32
3.497e-31
-2.497e-30
1.723e-29
-1.148e-28
7.346e-28
-4.535e-27
2.613e-26
-1.408e-25
7.392e-25
-3.431e-24
1.587e-23
-6.624e-23
2.781e-22
-6.637e-22
5.041e-21
4.601e-20
3.865e-19
2.72e-18
1.255e-17
4.712e-17
1.582e-16
4.85e-16
1.363e-15
3.523e-15
8.385e-15
1.843e-14
3.748e-14
7.082e-14
1.248e-13
2.061e-13
3.201e-13
4.698e-13
6.546e-13
8.697e-13
1.107e-12
1.354e-12
1.601e-12
1.835e-12
2.048e-12
2.233e-12
2.392e-12
2.52e-12
2.623e-12
2.706e-12
2.775e-12
2.834e-12
2.888e-12
2.942e-12
3.001e-12
3.069e-12
3.148e-12
3.244e-12
3.36e-12
3.498e-12
3.66e-12
3.852e-12
4.077e-12
4.339e-12
4.643e-12
4.993e-12
5.395e-12
5.857e-12
6.385e-12
6.988e-12
7.674e-12
8.455e-12
9.343e-12
1.035e-11
1.149e-11
1.278e-11
1.424e-11
1.589e-11
1.775e-11
1.984e-11
2.22e-11
2.485e-11
2.783e-11
3.117e-11
3.491e-11
3.909e-11
4.376e-11
4.897e-11
5.477e-11
6.122e-11
6.838e-11
7.631e-11
8.509e-11
9.48e-11
1.053e-10
1.22e-10
-1.138e-61
1.145e-60
-8.088e-60
4.792e-59
-2.397e-58
1.023e-57
-3.749e-57
1.178e-56
-3.102e-56
6.308e-56
-2.025e-56
-2.966e-55
2.441e-54
-1.118e-53
3.104e-53
1.781e-52
-2.402e-51
2.624e-50
-2.484e-49
2.105e-48
-1.588e-47
1.281e-46
-7.109e-46
3.639e-45
-6.171e-45
-1.616e-43
3.278e-42
-4.277e-41
4.808e-40
-4.969e-39
4.899e-38
-4.641e-37
4.334e-36
-3.838e-35
3.428e-34
-2.964e-33
2.54e-32
-2.056e-31
1.598e-30
-1.196e-29
8.621e-29
-5.979e-28
3.977e-27
-2.553e-26
1.516e-25
-9.035e-25
5.109e-24
-2.736e-23
1.45e-22
-6.606e-22
4.282e-21
3.233e-21
1.998e-19
1.902e-18
1.052e-17
4.729e-17
1.897e-16
6.918e-16
2.301e-15
6.987e-15
1.938e-14
4.915e-14
1.142e-13
2.437e-13
4.788e-13
8.7e-13
1.469e-12
2.315e-12
3.423e-12
4.772e-12
6.303e-12
7.927e-12
9.54e-12
1.103e-11
1.232e-11
1.334e-11
1.406e-11
1.45e-11
1.473e-11
1.469e-11
1.455e-11
1.431e-11
1.401e-11
1.367e-11
1.335e-11
1.305e-11
1.281e-11
1.262e-11
1.249e-11
1.248e-11
1.253e-11
1.266e-11
1.289e-11
1.322e-11
1.366e-11
1.421e-11
1.488e-11
1.568e-11
1.663e-11
1.773e-11
1.901e-11
2.048e-11
2.216e-11
2.407e-11
2.625e-11
2.872e-11
3.151e-11
3.466e-11
3.821e-11
4.221e-11
4.671e-11
5.175e-11
5.741e-11
6.374e-11
7.081e-11
7.872e-11
8.753e-11
9.735e-11
1.083e-10
1.204e-10
1.338e-10
1.487e-10
1.652e-10
1.833e-10
2.033e-10
2.254e-10
2.49e-10
2.871e-10
1.196e-60
-1.208e-59
8.818e-59
-5.542e-58
3.014e-57
-1.432e-56
5.987e-56
-2.209e-55
7.145e-55
-1.959e-54
4.065e-54
1.8e-54
-5.248e-53
4.537e-52
-3.362e-51
2.443e-50
-1.81e-49
1.363e-48
-1.078e-47
8.41e-47
-6.468e-46
4.923e-45
-3.665e-44
2.874e-43
-2.114e-42
1.611e-41
-1.255e-40
9.934e-40
-7.964e-39
6.547e-38
-5.406e-37
4.43e-36
-3.36e-35
2.693e-34
-2.003e-33
1.481e-32
-1.052e-31
7.336e-31
-4.921e-30
3.161e-29
-1.933e-28
1.112e-27
-6.086e-27
2.934e-26
-1.207e-25
3.578e-25
-7.54e-26
-9.391e-24
1.953e-22
1.984e-22
6.468e-20
5.89e-19
5.283e-18
3.146e-17
1.552e-16
6.873e-16
2.764e-15
1.01e-14
3.349e-14
1.009e-13
2.757e-13
6.853e-13
1.551e-12
3.205e-12
6.064e-12
1.057e-11
1.704e-11
2.556e-11
3.587e-11
4.739e-11
5.919e-11
7.037e-11
7.994e-11
8.724e-11
9.177e-11
9.387e-11
9.322e-11
9.119e-11
8.783e-11
8.353e-11
7.873e-11
7.381e-11
6.901e-11
6.452e-11
6.045e-11
5.687e-11
5.378e-11
5.12e-11
4.91e-11
4.747e-11
4.629e-11
4.554e-11
4.518e-11
4.531e-11
4.574e-11
4.657e-11
4.78e-11
4.945e-11
5.152e-11
5.403e-11
5.702e-11
6.053e-11
6.46e-11
6.927e-11
7.46e-11
8.067e-11
8.753e-11
9.528e-11
1.04e-10
1.138e-10
1.248e-10
1.371e-10
1.508e-10
1.661e-10
1.832e-10
2.022e-10
2.233e-10
2.467e-10
2.726e-10
3.012e-10
3.329e-10
3.678e-10
4.063e-10
4.486e-10
4.95e-10
5.46e-10
6.001e-10
6.879e-10
-1.182e-59
1.195e-58
-8.951e-58
5.917e-57
-3.463e-56
1.809e-55
-8.503e-55
3.615e-54
-1.393e-53
4.837e-53
-1.484e-52
3.829e-52
-7.159e-52
6.992e-52
-1.629e-51
6.256e-50
-9.969e-49
1.024e-47
-9.069e-47
7.245e-46
-5.352e-45
3.705e-44
-2.226e-43
1.898e-42
-7.074e-42
2.134e-41
5.376e-41
-1.899e-39
2.219e-38
-1.989e-37
1.612e-36
-1.091e-35
1.319e-34
-5.445e-34
2.534e-33
-7.491e-33
-3.787e-32
9.635e-31
-1.186e-29
1.173e-28
-1.029e-27
8.306e-27
-6.263e-26
4.483e-25
-3.037e-24
1.966e-23
-1.185e-22
8.036e-22
-2.173e-21
1.516e-19
1.89e-18
1.366e-17
8.217e-17
4.453e-16
2.194e-15
9.816e-15
3.977e-14
1.457e-13
4.815e-13
1.436e-12
3.863e-12
9.387e-12
2.064e-11
4.118e-11
7.479e-11
1.245e-10
1.911e-10
2.72e-10
3.615e-10
4.514e-10
5.319e-10
5.975e-10
6.386e-10
6.555e-10
6.481e-10
6.268e-10
5.925e-10
5.495e-10
5.022e-10
4.543e-10
4.083e-10
3.657e-10
3.275e-10
2.94e-10
2.65e-10
2.404e-10
2.197e-10
2.026e-10
1.885e-10
1.772e-10
1.683e-10
1.615e-10
1.565e-10
1.534e-10
1.515e-10
1.517e-10
1.529e-10
1.554e-10
1.593e-10
1.646e-10
1.712e-10
1.793e-10
1.889e-10
2.002e-10
2.131e-10
2.28e-10
2.448e-10
2.639e-10
2.854e-10
3.095e-10
3.365e-10
3.666e-10
4.002e-10
4.376e-10
4.791e-10
5.252e-10
5.762e-10
6.325e-10
6.947e-10
7.633e-10
8.387e-10
9.217e-10
1.013e-09
1.112e-09
1.221e-09
1.341e-09
1.466e-09
1.671e-09
1.076e-58
-1.085e-57
8.292e-57
-5.721e-56
3.569e-55
-2.028e-54
1.057e-53
-5.089e-53
2.27e-52
-9.381e-52
3.557e-51
-1.197e-50
3.202e-50
-5.208e-52
-6.046e-49
6.442e-48
-5.472e-47
4.241e-46
-3.152e-45
2.271e-44
-1.607e-43
1.112e-42
-7.564e-42
5.041e-41
-3.296e-40
2.108e-39
-1.299e-38
7.705e-38
-4.361e-37
2.096e-36
-5.491e-36
-2.973e-35
7.339e-34
-9.061e-33
9.143e-32
-8.296e-31
7.009e-30
-5.607e-29
4.283e-28
-3.141e-27
2.217e-26
-1.507e-25
9.916e-25
-6.248e-24
3.841e-23
-2.22e-22
1.389e-21
-4.691e-21
2.402e-19
3.304e-18
2.638e-17
1.777e-16
1.082e-15
5.992e-15
3.007e-14
1.364e-13
5.569e-13
2.043e-12
6.725e-12
1.983e-11
5.24e-11
1.242e-10
2.644e-10
5.076e-10
8.816e-10
1.397e-09
2.033e-09
2.738e-09
3.436e-09
4.047e-09
4.487e-09
4.761e-09
4.732e-09
4.588e-09
4.315e-09
3.949e-09
3.535e-09
3.112e-09
2.705e-09
2.334e-09
2.005e-09
1.721e-09
1.48e-09
1.279e-09
1.113e-09
9.767e-10
8.653e-10
7.749e-10
7.017e-10
6.43e-10
5.962e-10
5.595e-10
5.313e-10
5.103e-10
4.956e-10
4.865e-10
4.824e-10
4.838e-10
4.889e-10
4.981e-10
5.116e-10
5.293e-10
5.512e-10
5.776e-10
6.087e-10
6.446e-10
6.858e-10
7.326e-10
7.855e-10
8.449e-10
9.114e-10
9.856e-10
1.068e-09
1.16e-09
1.261e-09
1.374e-09
1.498e-09
1.634e-09
1.785e-09
1.95e-09
2.131e-09
2.33e-09
2.547e-09
2.783e-09
3.041e-09
3.323e-09
3.618e-09
4.101e-09
-8.752e-58
8.771e-57
-6.807e-56
4.868e-55
-3.209e-54
1.963e-53
-1.122e-52
6.036e-52
-3.076e-51
1.495e-50
-6.967e-50
3.135e-49
-1.378e-48
6.05e-48
-2.762e-47
1.386e-46
-7.897e-46
5.076e-45
-3.486e-44
2.336e-43
-1.607e-42
1.067e-41
-7.106e-41
4.59e-40
-3.033e-39
2.126e-38
-1.625e-37
1.298e-36
-1.06e-35
8.662e-35
-6.993e-34
5.547e-33
-4.309e-32
3.275e-31
-2.433e-30
1.767e-29
-1.253e-28
8.68e-28
-5.87e-27
3.872e-26
-2.49e-25
1.561e-24
-9.486e-24
5.7e-23
-3.227e-22
1.95e-21
-7.3e-21
3.119e-19
4.745e-18
4.203e-17
3.177e-16
2.18e-15
1.362e-14
7.716e-14
3.944e-13
1.812e-12
7.454e-12
2.738e-11
8.958e-11
2.608e-10
6.753e-10
1.556e-09
3.198e-09
5.883e-09
9.729e-09
1.461e-08
2.009e-08
2.551e-08
3.019e-08
3.341e-08
3.48e-08
3.422e-08
3.252e-08
2.982e-08
2.65e-08
2.297e-08
1.951e-08
1.634e-08
1.356e-08
1.119e-08
9.216e-09
7.607e-09
6.308e-09
5.269e-09
4.441e-09
3.782e-09
3.26e-09
2.845e-09
2.515e-09
2.254e-09
2.047e-09
1.884e-09
1.757e-09
1.659e-09
1.586e-09
1.533e-09
1.5e-09
1.479e-09
1.48e-09
1.491e-09
1.514e-09
1.549e-09
1.597e-09
1.657e-09
1.73e-09
1.816e-09
1.916e-09
2.03e-09
2.16e-09
2.306e-09
2.469e-09
2.652e-09
2.855e-09
3.08e-09
3.329e-09
3.604e-09
3.906e-09
4.239e-09
4.604e-09
5.003e-09
5.44e-09
5.918e-09
6.438e-09
7.004e-09
7.618e-09
8.288e-09
8.983e-09
1.013e-08
6.086e-57
-6.049e-56
4.742e-55
-3.487e-54
2.404e-53
-1.561e-52
9.615e-52
-5.652e-51
3.192e-50
-1.741e-49
9.198e-49
-4.699e-48
2.306e-47
-1.068e-46
4.501e-46
-1.582e-45
3.204e-45
1.669e-44
-2.88e-43
2.543e-42
-1.798e-41
1.075e-40
-5.268e-40
1.452e-39
7.631e-39
-1.864e-37
2.224e-36
-2.054e-35
1.718e-34
-1.355e-33
1.027e-32
-7.542e-32
5.403e-31
-3.788e-30
2.604e-29
-1.756e-28
1.162e-27
-7.555e-27
4.818e-26
-3.013e-25
1.847e-24
-1.107e-23
6.555e-23
-3.626e-22
2.164e-21
-8.528e-21
3.263e-19
5.494e-18
5.401e-17
4.585e-16
3.551e-15
2.51e-14
1.611e-13
9.334e-13
4.857e-12
2.259e-11
9.353e-11
3.434e-10
1.116e-09
3.199e-09
8.095e-09
1.808e-08
3.571e-08
6.267e-08
9.819e-08
1.392e-07
1.801e-07
2.153e-07
2.398e-07
2.466e-07
2.405e-07
2.25e-07
2.02e-07
1.751e-07
1.475e-07
1.214e-07
9.829e-08
7.863e-08
6.248e-08
4.951e-08
3.929e-08
3.132e-08
2.514e-08
2.038e-08
1.67e-08
1.387e-08
1.167e-08
9.962e-09
8.63e-09
7.588e-09
6.772e-09
6.131e-09
5.63e-09
5.241e-09
4.943e-09
4.721e-09
4.561e-09
4.458e-09
4.389e-09
4.391e-09
4.417e-09
4.479e-09
4.576e-09
4.709e-09
4.876e-09
5.079e-09
5.318e-09
5.595e-09
5.91e-09
6.268e-09
6.669e-09
7.118e-09
7.617e-09
8.169e-09
8.779e-09
9.451e-09
1.019e-08
1.1e-08
1.189e-08
1.286e-08
1.391e-08
1.506e-08
1.631e-08
1.767e-08
1.914e-08
2.073e-08
2.238e-08
2.509e-08
-3.464e-56
3.409e-55
-2.688e-54
2.017e-53
-1.436e-52
9.748e-52
-6.347e-51
3.997e-50
-2.46e-49
1.497e-48
-9.116e-48
5.615e-47
-3.521e-46
2.255e-45
-1.467e-44
9.491e-44
-6.165e-43
4.072e-42
-2.674e-41
1.742e-40
-1.124e-39
7.191e-39
-4.561e-38
2.876e-37
-1.803e-36
1.14e-35
-7.138e-35
4.49e-34
-2.837e-33
1.797e-32
-1.14e-31
7.226e-31
-4.573e-30
2.884e-29
-1.81e-28
1.128e-27
-6.975e-27
4.269e-26
-2.583e-25
1.543e-24
-9.077e-24
5.273e-23
-2.935e-22
1.86e-21
-7.624e-21
2.71e-19
5.046e-18
5.5e-17
5.236e-16
4.573e-15
3.658e-14
2.664e-13
1.755e-12
1.039e-11
5.498e-11
2.585e-10
1.075e-09
3.941e-09
1.268e-08
3.572e-08
8.802e-08
1.897e-07
3.584e-07
5.97e-07
8.818e-07
1.174e-06
1.427e-06
1.609e-06
1.65e-06
1.6e-06
1.481e-06
1.309e-06
1.112e-06
9.146e-07
7.33e-07
5.76e-07
4.463e-07
3.428e-07
2.622e-07
2.006e-07
1.541e-07
1.192e-07
9.308e-08
7.356e-08
5.891e-08
4.787e-08
3.95e-08
3.312e-08
2.822e-08
2.444e-08
2.15e-08
1.921e-08
1.743e-08
1.604e-08
1.496e-08
1.414e-08
1.354e-08
1.31e-08
1.283e-08
1.265e-08
1.266e-08
1.275e-08
1.293e-08
1.321e-08
1.358e-08
1.406e-08
1.462e-08
1.529e-08
1.605e-08
1.692e-08
1.79e-08
1.9e-08
2.022e-08
2.158e-08
2.307e-08
2.471e-08
2.651e-08
2.848e-08
3.064e-08
3.298e-08
3.554e-08
3.831e-08
4.131e-08
4.456e-08
4.807e-08
5.187e-08
5.577e-08
6.221e-08
1.529e-55
-1.526e-54
1.217e-53
-9.252e-53
6.688e-52
-4.598e-51
3e-50
-1.851e-49
1.073e-48
-5.759e-48
2.784e-47
-1.125e-46
2.84e-46
1.246e-45
-2.314e-44
2.338e-43
-1.956e-42
1.468e-41
-1.028e-40
6.835e-40
-4.344e-39
2.646e-38
-1.54e-37
8.51e-37
-4.291e-36
2.246e-35
-7.873e-35
1.159e-34
1.292e-33
-1.987e-32
1.93e-31
-1.6e-30
1.219e-29
-8.808e-29
6.12e-28
-4.126e-27
2.712e-26
-1.743e-25
1.098e-24
-6.784e-24
4.118e-23
-2.437e-22
1.492e-21
-5.433e-21
1.739e-19
3.621e-18
4.377e-17
4.659e-16
4.574e-15
4.131e-14
3.41e-13
2.555e-12
1.724e-11
1.041e-10
5.588e-10
2.65e-09
1.104e-08
4.025e-08
1.278e-07
3.523e-07
8.412e-07
1.741e-06
3.13e-06
4.92e-06
6.816e-06
8.498e-06
9.741e-06
1.009e-05
9.766e-06
8.987e-06
7.865e-06
6.591e-06
5.328e-06
4.183e-06
3.21e-06
2.423e-06
1.809e-06
1.342e-06
9.943e-07
7.388e-07
5.525e-07
4.17e-07
3.185e-07
2.467e-07
1.94e-07
1.55e-07
1.26e-07
1.042e-07
8.768e-08
7.505e-08
6.533e-08
5.78e-08
5.194e-08
4.739e-08
4.386e-08
4.114e-08
3.908e-08
3.757e-08
3.652e-08
3.587e-08
3.553e-08
3.561e-08
3.592e-08
3.649e-08
3.731e-08
3.839e-08
3.973e-08
4.131e-08
4.316e-08
4.527e-08
4.766e-08
5.034e-08
5.332e-08
5.662e-08
6.026e-08
6.426e-08
6.865e-08
7.343e-08
7.865e-08
8.432e-08
9.048e-08
9.714e-08
1.043e-07
1.121e-07
1.205e-07
1.295e-07
1.388e-07
1.54e-07
-8.396e-55
7.561e-54
-5.753e-53
4.428e-52
-3.409e-51
2.61e-50
-1.976e-49
1.473e-48
-1.078e-47
7.736e-47
-5.442e-46
3.756e-45
-2.546e-44
1.699e-43
-1.117e-42
7.255e-42
-4.659e-41
2.963e-40
-1.868e-39
1.169e-38
-7.266e-38
4.49e-37
-2.761e-36
1.69e-35
-1.029e-34
6.245e-34
-3.771e-33
2.266e-32
-1.355e-31
8.061e-31
-4.772e-30
2.811e-29
-1.647e-28
9.6e-28
-5.563e-27
3.204e-26
-1.834e-25
1.042e-24
-5.882e-24
3.295e-23
-1.822e-22
1.029e-21
-4.686e-21
6.342e-20
1.949e-18
2.688e-17
3.196e-16
3.509e-15
3.563e-14
3.321e-13
2.822e-12
2.168e-11
1.495e-10
9.172e-10
4.973e-09
2.367e-08
9.831e-08
3.545e-07
1.104e-06
2.957e-06
6.799e-06
1.342e-05
2.284e-05
3.367e-05
4.359e-05
5.114e-05
5.416e-05
5.259e-05
4.844e-05
4.228e-05
3.522e-05
2.821e-05
2.188e-05
1.654e-05
1.226e-05
8.958e-06
6.491e-06
4.687e-06
3.388e-06
2.461e-06
1.803e-06
1.337e-06
1.004e-06
7.665e-07
5.948e-07
4.698e-07
3.779e-07
3.096e-07
2.583e-07
2.193e-07
1.896e-07
1.666e-07
1.488e-07
1.35e-07
1.243e-07
1.159e-07
1.096e-07
1.049e-07
1.014e-07
9.919e-08
9.775e-08
9.752e-08
9.796e-08
9.906e-08
1.009e-07
1.033e-07
1.065e-07
1.102e-07
1.147e-07
1.198e-07
1.256e-07
1.321e-07
1.393e-07
1.474e-07
1.562e-07
1.659e-07
1.765e-07
1.881e-07
2.007e-07
2.144e-07
2.291e-07
2.451e-07
2.623e-07
2.808e-07
3.007e-07
3.221e-07
3.438e-07
3.797e-07
-2.985e-54
2.901e-53
-2.313e-52
1.8e-51
-1.359e-50
9.963e-50
-7.097e-49
4.923e-48
-3.335e-47
2.212e-46
-1.442e-45
9.255e-45
-5.871e-44
3.688e-43
-2.299e-42
1.426e-41
-8.799e-41
5.415e-40
-3.325e-39
2.04e-38
-1.251e-37
7.677e-37
-4.719e-36
2.907e-35
-1.797e-34
1.116e-33
-6.92e-33
4.275e-32
-2.632e-31
1.615e-30
-9.883e-30
6.027e-29
-3.664e-28
2.22e-27
-1.34e-26
8.066e-26
-4.835e-25
2.888e-24
-1.717e-23
1.018e-22
-5.925e-22
3.745e-21
-1.561e-20
5.268e-19
1.225e-17
1.678e-16
2.052e-15
2.326e-14
2.435e-13
2.336e-12
2.036e-11
1.598e-10
1.12e-09
6.946e-09
3.78e-08
1.792e-07
7.359e-07
2.599e-06
7.855e-06
2.025e-05
4.442e-05
8.306e-05
0.0001327
0.0001824
0.0002218
0.0002436
0.0002385
0.0002216
0.0001947
0.0001628
0.0001305
0.0001011
7.61e-05
5.599e-05
4.049e-05
2.893e-05
2.054e-05
1.455e-05
1.034e-05
7.398e-06
5.348e-06
3.917e-06
2.912e-06
2.203e-06
1.696e-06
1.331e-06
1.064e-06
8.674e-07
7.204e-07
6.094e-07
5.248e-07
4.598e-07
4.095e-07
3.703e-07
3.399e-07
3.163e-07
2.982e-07
2.845e-07
2.744e-07
2.675e-07
2.633e-07
2.611e-07
2.618e-07
2.64e-07
2.679e-07
2.736e-07
2.809e-07
2.899e-07
3.006e-07
3.129e-07
3.269e-07
3.427e-07
3.603e-07
3.797e-07
4.011e-07
4.246e-07
4.502e-07
4.781e-07
5.083e-07
5.41e-07
5.763e-07
6.143e-07
6.551e-07
6.989e-07
7.456e-07
7.959e-07
8.466e-07
9.3e-07
5.507e-54
-5.41e-53
4.345e-52
-3.392e-51
2.564e-50
-1.877e-49
1.332e-48
-9.171e-48
6.137e-47
-4.001e-46
2.546e-45
-1.587e-44
9.721e-44
-5.875e-43
3.518e-42
-2.098e-41
1.251e-40
-7.494e-40
4.528e-39
-2.767e-38
1.712e-37
-1.073e-36
6.801e-36
-4.354e-35
2.809e-34
-1.824e-33
1.178e-32
-7.52e-32
4.756e-31
-2.984e-30
1.859e-29
-1.152e-28
7.097e-28
-4.355e-27
2.663e-26
-1.623e-25
9.869e-25
-5.988e-24
3.629e-23
-2.184e-22
1.384e-21
-5.006e-21
1.815e-19
4.567e-18
6.802e-17
9.147e-16
1.149e-14
1.34e-13
1.442e-12
1.417e-11
1.261e-10
1.007e-09
7.13e-09
4.437e-08
2.403e-07
1.123e-06
4.5e-06
1.535e-05
4.437e-05
0.0001084
0.0002242
0.0003929
0.0005842
0.0007463
0.0008681
0.0008626
0.0008173
0.000731
0.0006209
0.0005049
0.0003958
0.0003009
0.0002228
0.0001616
0.0001153
8.143e-05
5.716e-05
4.01e-05
2.824e-05
2.005e-05
1.44e-05
1.049e-05
7.767e-06
5.855e-06
4.498e-06
3.523e-06
2.814e-06
2.292e-06
1.903e-06
1.61e-06
1.386e-06
1.214e-06
1.081e-06
9.781e-07
8.975e-07
8.348e-07
7.865e-07
7.498e-07
7.227e-07
7.035e-07
6.918e-07
6.843e-07
6.854e-07
6.899e-07
6.988e-07
7.121e-07
7.295e-07
7.511e-07
7.768e-07
8.065e-07
8.404e-07
8.785e-07
9.209e-07
9.678e-07
1.019e-06
1.076e-06
1.137e-06
1.203e-06
1.275e-06
1.353e-06
1.436e-06
1.526e-06
1.622e-06
1.724e-06
1.832e-06
1.949e-06
2.065e-06
2.256e-06
-1.946e-53
1.771e-52
-1.353e-51
1.037e-50
-7.909e-50
5.974e-49
-4.457e-48
3.276e-47
-2.369e-46
1.683e-45
-1.174e-44
8.044e-44
-5.413e-43
3.58e-42
-2.329e-41
1.491e-40
-9.415e-40
5.864e-39
-3.608e-38
2.195e-37
-1.321e-36
7.883e-36
-4.664e-35
2.738e-34
-1.597e-33
9.257e-33
-5.331e-32
3.059e-31
-1.75e-30
9.992e-30
-5.695e-29
3.243e-28
-1.846e-27
1.051e-26
-5.99e-26
3.419e-25
-1.955e-24
1.122e-23
-6.439e-23
3.803e-22
-1.695e-21
3.749e-20
1.278e-18
2.12e-17
3.124e-16
4.311e-15
5.56e-14
6.653e-13
7.324e-12
7.346e-11
6.646e-10
5.361e-09
3.811e-08
2.36e-07
1.258e-06
5.72e-06
2.201e-05
7.117e-05
0.000193
0.0004394
0.0008463
0.001368
0.001884
0.002257
0.002397
0.002321
0.002131
0.00186
0.001556
0.001254
0.0009788
0.0007424
0.0005491
0.0003979
0.0002837
0.0002
0.0001402
9.824e-05
6.913e-05
4.907e-05
3.525e-05
2.571e-05
1.907e-05
1.441e-05
1.111e-05
8.728e-06
6.996e-06
5.719e-06
4.766e-06
4.045e-06
3.496e-06
3.072e-06
2.744e-06
2.488e-06
2.288e-06
2.132e-06
2.012e-06
1.92e-06
1.852e-06
1.804e-06
1.774e-06
1.755e-06
1.757e-06
1.768e-06
1.789e-06
1.821e-06
1.863e-06
1.915e-06
1.977e-06
2.049e-06
2.131e-06
2.222e-06
2.324e-06
2.437e-06
2.559e-06
2.693e-06
2.839e-06
2.996e-06
3.165e-06
3.346e-06
3.54e-06
3.747e-06
3.968e-06
4.201e-06
4.449e-06
4.712e-06
4.973e-06
5.399e-06
-5.793e-53
5.446e-52
-4.263e-51
3.319e-50
-2.548e-49
1.925e-48
-1.428e-47
1.04e-46
-7.421e-46
5.193e-45
-3.564e-44
2.401e-43
-1.588e-42
1.033e-41
-6.618e-41
4.179e-40
-2.605e-39
1.604e-38
-9.782e-38
5.909e-37
-3.541e-36
2.107e-35
-1.246e-34
7.335e-34
-4.299e-33
2.511e-32
-1.464e-31
8.504e-31
-4.93e-30
2.855e-29
-1.653e-28
9.572e-28
-5.552e-27
3.228e-26
-1.883e-25
1.103e-24
-6.493e-24
3.849e-23
-2.291e-22
1.42e-21
-6.451e-21
1.429e-19
4.876e-18
8.231e-17
1.241e-15
1.754e-14
2.315e-13
2.831e-12
3.176e-11
3.237e-10
2.962e-09
2.402e-08
1.703e-07
1.04e-06
5.396e-06
2.353e-05
8.531e-05
0.000256
0.0006378
0.001332
0.002365
0.003461
0.004544
0.005
0.004936
0.004686
0.00425
0.003692
0.003098
0.002522
0.001995
0.001533
0.001149
0.0008416
0.000606
0.000431
0.0003044
0.0002148
0.0001522
0.0001088
7.871e-05
5.784e-05
4.324e-05
3.294e-05
2.559e-05
2.027e-05
1.638e-05