/*--------------------------------*- C++ -*----------------------------------*\
  =========                 |
  \\      /  F ield         | OpenFOAM: The Open Source CFD Toolbox
   \\    /   O peration     | Website:  https://openfoam.org
    \\  /    A nd           | Version:  7
     \\/     M anipulation  |
\*---------------------------------------------------------------------------*/
FoamFile
{
    version     2.0;
    format      ascii;
    class       volScalarField;
    location    "5000";
    object      p;
}
// * * * * * * * * * * * * * * * * * * * * * * * * * * * * * * * * * * * * * //

dimensions      [1 -1 -2 0 0 0 0];

internalField   nonuniform List<scalar> 
3200
(
106.88
106.885
106.896
106.912
106.932
106.957
106.985
107.018
107.053
107.091
107.132
107.175
107.219
107.265
107.312
107.36
107.409
107.457
107.505
107.552
107.599
107.644
107.687
107.729
107.768
107.805
107.839
107.87
107.898
107.923
107.944
107.961
107.975
107.985
107.992
107.995
107.994
107.99
107.982
107.971
104.415
104.421
104.432
104.448
104.468
104.493
104.522
104.555
104.591
104.629
104.671
104.714
104.76
104.806
104.855
104.903
104.953
105.002
105.052
105.1
105.148
105.195
105.24
105.283
105.324
105.363
105.399
105.432
105.462
105.488
105.511
105.53
105.545
105.557
105.565
105.568
105.568
105.564
105.557
105.546
101.939
101.945
101.956
101.972
101.993
102.019
102.048
102.082
102.118
102.158
102.201
102.245
102.292
102.341
102.391
102.442
102.493
102.545
102.597
102.649
102.699
102.749
102.798
102.844
102.889
102.931
102.971
103.008
103.042
103.072
103.098
103.121
103.139
103.154
103.164
103.169
103.171
103.168
103.161
103.15
99.4509
99.4568
99.4683
99.4851
99.5068
99.533
99.5635
99.5979
99.6359
99.6772
99.7213
99.7681
99.8171
99.8681
99.9206
99.9744
100.029
100.085
100.14
100.196
100.251
100.306
100.359
100.411
100.461
100.51
100.555
100.598
100.638
100.674
100.706
100.735
100.758
100.778
100.792
100.801
100.805
100.804
100.798
100.787
96.9502
96.9563
96.9682
96.9856
97.008
97.0353
97.067
97.1028
97.1424
97.1856
97.2319
97.2811
97.3329
97.3869
97.4428
97.5004
97.5593
97.6192
97.6798
97.7408
97.8019
97.8626
97.9228
97.982
98.0398
98.096
98.15
98.2015
98.2501
98.2952
98.3366
98.3735
98.4057
98.4326
98.4539
98.4691
98.4779
98.4801
98.4758
98.4649
94.4367
94.443
94.4554
94.4734
94.4968
94.5251
94.5582
94.5957
94.6372
94.6826
94.7314
94.7834
94.8384
94.896
94.9559
95.0179
95.0817
95.1471
95.2136
95.2811
95.3492
95.4176
95.4861
95.5542
95.6217
95.6881
95.7531
95.8161
95.8768
95.9345
95.9887
96.0387
96.0837
96.1231
96.156
96.1816
96.1991
96.2078
96.2074
96.1976
91.9098
91.9164
91.9292
91.948
91.9723
92.0019
92.0365
92.0757
92.1194
92.1671
92.2187
92.2738
92.3323
92.3939
92.4582
92.5251
92.5944
92.6658
92.739
92.8138
92.8899
92.9672
93.0453
93.1239
93.2028
93.2817
93.3601
93.4378
93.5141
93.5886
93.6606
93.7294
93.7939
93.8531
93.9056
93.9498
93.984
94.0063
94.0152
94.0093
89.369
89.3758
89.3892
89.4087
89.434
89.4649
89.501
89.5421
89.5879
89.6381
89.6925
89.7509
89.813
89.8787
89.9477
90.0198
90.0948
90.1725
90.2528
90.3354
90.4202
90.507
90.5956
90.6858
90.7774
90.8703
90.9643
91.059
91.1542
91.2496
91.3448
91.4391
91.5318
91.6216
91.7069
91.7853
91.8537
91.9077
91.9421
91.9509
86.8138
86.8209
86.8347
86.8549
86.8813
86.9134
86.951
86.9939
87.0417
87.0944
87.1516
87.2131
87.2789
87.3486
87.4221
87.4994
87.5801
87.6642
87.7516
87.8421
87.9356
88.032
88.1312
88.2333
88.338
88.4453
88.5554
88.6681
88.7837
88.9022
89.0239
89.1489
89.2776
89.4099
89.5458
89.6843
89.8228
89.9558
90.0722
90.1506
84.2436
84.2509
84.2652
84.2861
84.3133
84.3466
84.3856
84.4301
84.4798
84.5347
84.5945
84.659
84.7281
84.8016
84.8794
84.9615
85.0476
85.1377
85.2317
85.3297
85.4314
85.5369
85.6462
85.7593
85.8762
85.997
86.1218
86.251
86.3848
86.5239
86.6692
86.8219
86.984
87.1585
87.3499
87.5651
87.8148
88.1157
88.4947
88.9947
81.6581
81.6656
81.6802
81.7017
81.7296
81.7638
81.804
81.8499
81.9013
81.9581
82.0201
82.0871
82.1591
82.2359
82.3175
82.4037
82.4945
82.5899
82.6899
82.7943
82.9033
83.0169
83.1349
83.2576
83.3849
83.5169
83.6538
83.7956
83.9426
84.095
84.2533
84.4182
84.5905
84.7714
84.9626
85.1664
85.3854
85.6225
85.88
86.1632
79.0567
79.0643
79.0793
79.1011
79.1297
79.1646
79.2056
79.2525
79.3052
79.3635
79.4272
79.4962
79.5705
79.6499
79.7344
79.8239
79.9185
80.0182
80.1229
80.2327
80.3476
80.4677
80.593
80.7235
80.8593
81.0004
81.1467
81.2981
81.4545
81.6155
81.7806
81.9492
82.1202
82.2922
82.4632
82.6304
82.79
82.9367
83.0632
83.1661
76.4392
76.4469
76.462
76.4842
76.513
76.5483
76.5899
76.6375
76.691
76.7501
76.8149
76.8852
76.961
77.0421
77.1286
77.2204
77.3176
77.4202
77.5283
77.6419
77.7611
77.886
78.0168
78.1533
78.2959
78.4443
78.5987
78.7588
78.9243
79.0947
79.269
79.446
79.6236
79.7993
79.9692
80.1285
80.2711
80.3897
80.4757
80.5249
73.8055
73.8132
73.8283
73.8505
73.8794
73.9149
73.9566
74.0043
74.0581
74.1176
74.1827
74.2535
74.3298
74.4117
74.499
74.5919
74.6903
74.7943
74.9041
75.0197
75.1412
75.2689
75.4029
75.5434
75.6906
75.8447
76.0059
76.1743
76.35
76.5329
76.7227
76.9187
77.1199
77.3242
77.5285
77.728
77.9156
78.0805
78.2078
78.2827
71.1554
71.1631
71.1781
71.2001
71.2288
71.264
71.3055
71.3529
71.4063
71.4655
71.5303
71.6007
71.6766
71.758
71.845
71.9375
72.0356
72.1393
72.2488
72.3643
72.4859
72.6138
72.7483
72.8897
73.0385
73.195
73.3597
73.5335
73.717
73.9113
74.1176
74.3373
74.5722
74.8244
75.0961
75.3896
75.706
76.0438
76.3957
76.7981
68.4891
68.4967
68.5115
68.5331
68.5614
68.596
68.6367
68.6834
68.7358
68.7939
68.8576
68.9267
69.0013
69.0812
69.1665
69.2572
69.3534
69.455
69.5623
69.6753
69.7942
69.9194
70.051
70.1894
70.3351
70.4886
70.6507
70.8222
71.0045
71.199
71.4082
71.635
71.8838
72.1613
72.4771
72.8461
73.2915
73.8507
74.5851
90.3938
65.807
65.8143
65.8287
65.8498
65.8773
65.911
65.9506
65.996
66.0469
66.1034
66.1652
66.2322
66.3044
66.3818
66.4642
66.5517
66.6444
66.7422
66.8452
66.9535
67.0672
67.1865
67.3116
67.4428
67.5803
67.7246
67.8762
68.0355
68.2034
68.3807
68.5683
68.7674
68.9792
69.2046
69.444
69.6965
69.9578
70.2174
70.4898
86.2974
63.1093
63.1164
63.1303
63.1506
63.1771
63.2095
63.2476
63.2913
63.3403
63.3944
63.4537
63.5179
63.5869
63.6607
63.7392
63.8224
63.9102
64.0026
64.0996
64.2013
64.3076
64.4186
64.5343
64.6549
64.7803
64.9107
65.0461
65.1866
65.3321
65.4827
65.638
65.7975
65.9604
66.1252
66.2896
66.45
66.6017
66.738
66.8887
75.156
60.3966
60.4034
60.4167
60.4361
60.4613
60.4923
60.5286
60.5701
60.6167
60.6681
60.7242
60.7849
60.8501
60.9196
60.9933
61.0712
61.1531
61.2391
61.3289
61.4225
61.5199
61.6209
61.7255
61.8335
61.9448
62.0592
62.1764
62.2961
62.4179
62.5411
62.665
62.7886
62.9105
63.029
63.1421
63.2472
63.3414
63.4215
63.5126
68.2307
57.6697
57.6761
57.6887
57.707
57.7309
57.76
57.7943
57.8334
57.8772
57.9254
57.978
58.0348
58.0955
58.1602
58.2286
58.3005
58.3759
58.4547
58.5366
58.6215
58.7092
58.7996
58.8925
58.9875
59.0844
59.1829
59.2825
59.3827
59.483
59.5827
59.6808
59.7765
59.8686
59.9559
60.0369
60.1103
60.1745
60.2281
60.2924
63.6001
54.9293
54.9353
54.947
54.9642
54.9865
55.0138
55.0458
55.0822
55.123
55.1678
55.2166
55.2691
55.3251
55.3845
55.4472
55.5129
55.5815
55.6527
55.7265
55.8025
55.8806
55.9604
56.0418
56.1245
56.208
56.2919
56.3759
56.4594
56.5418
56.6226
56.7011
56.7764
56.8479
56.9146
56.9759
57.0308
57.0787
57.119
57.1709
59.8684
52.1761
52.1817
52.1926
52.2086
52.2293
52.2545
52.2841
52.3178
52.3553
52.3966
52.4413
52.4894
52.5406
52.5946
52.6515
52.7108
52.7725
52.8364
52.9021
52.9695
53.0383
53.1082
53.179
53.2504
53.3219
53.3932
53.464
53.5337
53.6019
53.6681
53.7318
53.7926
53.8498
53.9029
53.9516
53.9955
54.0341
54.0673
54.1141
56.5124
49.4113
49.4164
49.4264
49.4411
49.4601
49.4833
49.5104
49.5412
49.5755
49.6131
49.6538
49.6974
49.7437
49.7924
49.8435
49.8966
49.9517
50.0083
50.0664
50.1257
50.1859
50.2468
50.3081
50.3694
50.4306
50.4912
50.5509
50.6094
50.6664
50.7214
50.7741
50.8242
50.8714
50.9153
50.9557
50.9925
51.0254
51.0543
51.099
53.325
46.6355
46.6402
46.6494
46.6627
46.6801
46.7012
46.7258
46.7537
46.7848
46.8188
46.8555
46.8946
46.9361
46.9797
47.0252
47.0724
47.1211
47.171
47.222
47.2737
47.3261
47.3788
47.4317
47.4843
47.5366
47.5881
47.6388
47.6882
47.7362
47.7825
47.8268
47.869
47.9088
47.9462
47.9808
48.0128
48.0419
48.0682
48.1124
50.2152
43.85
43.8542
43.8625
43.8746
43.8902
43.9092
43.9314
43.9565
43.9844
44.0149
44.0476
44.0826
44.1194
44.1581
44.1983
44.2398
44.2826
44.3262
44.3706
44.4156
44.4609
44.5063
44.5517
44.5968
44.6414
44.6852
44.7282
44.7702
44.8109
44.8501
44.8879
44.9239
44.9582
44.9905
45.021
45.0494
45.0759
45.1004
45.1455
47.134
41.0554
41.0592
41.0666
41.0775
41.0915
41.1085
41.1283
41.1507
41.1755
41.2026
41.2316
41.2625
41.295
41.329
41.3642
41.4005
41.4377
41.4756
41.514
41.5528
41.5917
41.6306
41.6694
41.7078
41.7457
41.7829
41.8194
41.8549
41.8895
41.9229
41.9552
41.9861
42.0158
42.0442
42.0712
42.0969
42.1213
42.1444
42.1913
44.0507
38.2528
38.2562
38.2628
38.2725
38.2849
38.3
38.3175
38.3374
38.3593
38.3831
38.4086
38.4356
38.464
38.4937
38.5243
38.5557
38.5878
38.6204
38.6534
38.6865
38.7197
38.7527
38.7855
38.8179
38.8499
38.8812
38.9119
38.9418
38.971
38.9992
39.0266
39.0531
39.0788
39.1036
39.1275
39.1508
39.1733
39.1951
39.2443
40.9475
35.4431
35.4461
35.452
35.4604
35.4714
35.4847
35.5001
35.5174
35.5366
35.5573
35.5796
35.6031
35.6277
35.6532
35.6796
35.7065
35.734
35.7617
35.7897
35.8177
35.8456
35.8733
35.9007
35.9277
35.9542
35.9802
36.0056
36.0303
36.0543
36.0777
36.1005
36.1227
36.1443
36.1655
36.1863
36.2068
36.2272
36.2476
36.2997
37.8208
32.6271
32.6298
32.6348
32.6422
32.6518
32.6634
32.6768
32.6918
32.7084
32.7264
32.7455
32.7657
32.7868
32.8087
32.8311
32.8539
32.8771
32.9004
32.9238
32.9471
32.9702
32.9931
33.0155
33.0375
33.059
33.0799
33.1002
33.1199
33.1391
33.1576
33.1756
33.1932
33.2104
33.2274
33.2442
33.2612
33.2783
33.2959
33.3474
34.6836
29.8056
29.8079
29.8123
29.8187
29.827
29.8369
29.8485
29.8614
29.8757
29.891
29.9074
29.9245
29.9424
29.9608
29.9797
29.9988
30.0181
30.0374
30.0566
30.0756
30.0944
30.1127
30.1306
30.1479
30.1647
30.1808
30.1962
30.211
30.2251
30.2386
30.2516
30.264
30.2761
30.288
30.2997
30.3116
30.3237
30.3362
30.376
31.5668
26.9793
26.9813
26.985
26.9905
26.9976
27.0061
27.0159
27.027
27.039
27.052
27.0658
27.0803
27.0952
27.1106
27.1262
27.1419
27.1577
27.1734
27.1888
27.204
27.2187
27.233
27.2467
27.2597
27.272
27.2836
27.2943
27.3042
27.3133
27.3215
27.329
27.3358
27.342
27.3478
27.3533
27.3586
27.3641
27.3698
27.3886
28.5102
24.149
24.1506
24.1538
24.1584
24.1644
24.1716
24.1799
24.1891
24.1993
24.2101
24.2216
24.2336
24.2459
24.2585
24.2712
24.284
24.2966
24.3091
24.3212
24.3329
24.3442
24.3548
24.3647
24.3738
24.3821
24.3894
24.3958
24.401
24.4052
24.4081
24.41
24.4106
24.4102
24.4089
24.4068
24.4042
24.4017
24.3998
24.3992
25.4951
21.3151
21.3165
21.3192
21.323
21.328
21.334
21.3409
21.3486
21.3569
21.3659
21.3753
21.3851
21.3951
21.4052
21.4154
21.4255
21.4355
21.4451
21.4544
21.4631
21.4713
21.4788
21.4855
21.4913
21.4961
21.4998
21.5023
21.5035
21.5032
21.5013
21.4977
21.4922
21.4848
21.4752
21.4635
21.4499
21.435
21.42
21.4078
21.8176
18.4784
18.4795
18.4817
18.4849
18.489
18.4939
18.4995
18.5058
18.5126
18.5198
18.5274
18.5352
18.5432
18.5513
18.5592
18.5671
18.5747
18.582
18.5888
18.5951
18.6008
18.6057
18.6099
18.613
18.6151
18.616
18.6156
18.6138
18.6102
18.6048
18.5972
18.5871
18.574
18.5571
18.5354
18.5073
18.4702
18.42
18.3498
18.2891
15.6392
15.6402
15.6419
15.6445
15.6478
15.6517
15.6562
15.6612
15.6666
15.6724
15.6784
15.6845
15.6908
15.697
15.7031
15.709
15.7147
15.72
15.7249
15.7293
15.733
15.736
15.7382
15.7395
15.7398
15.739
15.7369
15.7334
15.7284
15.7217
15.713
15.7023
15.6893
15.6737
15.6552
15.6339
15.6098
15.5835
15.5569
15.5337
12.7982
12.7989
12.8003
12.8023
12.8049
12.8079
12.8114
12.8153
12.8195
12.8239
12.8285
12.8332
12.838
12.8426
12.8472
12.8516
12.8557
12.8594
12.8628
12.8657
12.868
12.8696
12.8706
12.8708
12.87
12.8683
12.8656
12.8618
12.8567
12.8503
12.8426
12.8335
12.823
12.8111
12.7979
12.7837
12.7687
12.7536
12.7391
12.726
9.95563
9.95617
9.95721
9.95871
9.96063
9.96292
9.96553
9.96842
9.97152
9.97479
9.97817
9.9816
9.98504
9.98841
9.99167
9.99475
9.9976
10.0002
10.0024
10.0042
10.0055
10.0063
10.0066
10.0062
10.0051
10.0032
10.0006
9.99716
9.99285
9.98767
9.98161
9.97471
9.96701
9.9586
9.94964
9.94028
9.93076
9.92135
9.91231
9.90389
7.11195
7.11232
7.11304
7.11408
7.11541
7.11699
7.11879
7.12078
7.12291
7.12515
7.12746
7.12979
7.13211
7.13438
7.13655
7.13858
7.14043
7.14206
7.14342
7.14448
7.1452
7.14553
7.14544
7.1449
7.14386
7.14232
7.14023
7.1376
7.13442
7.13068
7.12643
7.12169
7.11652
7.11099
7.10521
7.09927
7.0933
7.08741
7.08174
7.07637
4.26747
4.26769
4.26812
4.26873
4.26951
4.27043
4.27149
4.27265
4.2739
4.2752
4.27654
4.2779
4.27924
4.28054
4.28177
4.28292
4.28396
4.28485
4.28559
4.28614
4.28647
4.28657
4.28642
4.286
4.28529
4.28428
4.28297
4.28134
4.27941
4.27718
4.27467
4.27192
4.26896
4.26582
4.26257
4.25926
4.25594
4.25268
4.24951
4.24649
1.42254
1.42261
1.42275
1.42295
1.42321
1.42352
1.42387
1.42425
1.42466
1.42509
1.42553
1.42597
1.42641
1.42683
1.42723
1.4276
1.42794
1.42822
1.42845
1.42862
1.42871
1.42873
1.42867
1.42851
1.42826
1.42791
1.42746
1.42692
1.42627
1.42553
1.42471
1.4238
1.42284
1.42182
1.42077
1.41971
1.41864
1.41759
1.41657
1.4156
107.957
107.94
107.919
107.894
107.866
107.834
107.798
107.758
107.715
107.668
107.618
107.565
107.51
107.451
107.391
107.328
107.264
107.199
107.132
107.065
106.998
106.931
106.864
106.798
106.734
106.671
106.609
106.55
106.494
106.44
106.389
106.342
106.299
106.26
106.226
106.196
106.172
106.153
106.14
106.133
105.532
105.514
105.492
105.466
105.437
105.403
105.365
105.324
105.279
105.23
105.178
105.123
105.065
105.005
104.943
104.878
104.812
104.745
104.677
104.609
104.54
104.472
104.404
104.337
104.272
104.208
104.146
104.086
104.029
103.975
103.924
103.877
103.833
103.794
103.76
103.73
103.705
103.687
103.674
103.667
103.135
103.116
103.092
103.064
103.032
102.995
102.954
102.909
102.86
102.807
102.751
102.691
102.629
102.565
102.498
102.43
102.36
102.29
102.219
102.148
102.076
102.006
101.936
101.867
101.8
101.735
101.672
101.611
101.553
101.498
101.446
101.398
101.354
101.315
101.28
101.25
101.225
101.206
101.193
101.187
100.771
100.75
100.724
100.692
100.655
100.613
100.566
100.514
100.458
100.398
100.335
100.269
100.2
100.129
100.056
99.982
99.907
99.8315
99.7558
99.6804
99.6055
99.5315
99.4587
99.3874
99.3179
99.2505
99.1855
99.1232
99.0638
99.0078
98.9552
98.9065
98.862
98.8218
98.7865
98.7562
98.7312
98.712
98.6988
98.6921
98.4476
98.4237
98.3928
98.355
98.3105
98.2597
98.2031
98.1412
98.0748
98.0044
97.9306
97.8542
97.7755
97.6953
97.614
97.532
97.4497
97.3676
97.286
97.2052
97.1256
97.0473
96.9708
96.8962
96.8238
96.7539
96.6868
96.6226
96.5617
96.5042
96.4506
96.4009
96.3556
96.3148
96.2789
96.2482
96.2229
96.2035
96.1902
96.1833
96.1784
96.1495
96.1107
96.0624
96.0053
95.9402
95.8683
95.7907
95.7085
95.6227
95.5342
95.4438
95.3523
95.2601
95.1679
95.076
94.9849
94.8949
94.8063
94.7192
94.6341
94.551
94.4702
94.392
94.3164
94.2438
94.1743
94.1081
94.0454
93.9866
93.9317
93.881
93.8349
93.7934
93.757
93.7258
93.7003
93.6806
93.6671
93.6602
93.9878
93.9503
93.8969
93.8292
93.7494
93.6599
93.5631
93.4611
93.3555
93.248
93.1395
93.0311
92.9233
92.8167
92.7116
92.6085
92.5075
92.4087
92.3125
92.2188
92.1279
92.0398
91.9547
91.8727
91.794
91.7186
91.6468
91.5786
91.5143
91.454
91.398
91.3464
91.2994
91.2573
91.2204
91.1889
91.163
91.1431
91.1295
91.1225
91.9286
91.8722
91.7858
91.6768
91.5526
91.4193
91.2813
91.142
91.0034
90.867
90.7336
90.6036
90.4774
90.355
90.2365
90.1217
90.0107
89.9034
89.7998
89.6998
89.6035
89.5108
89.4217
89.3363
89.2547
89.1768
89.1029
89.033
88.9673
88.9058
88.8488
88.7964
88.7488
88.7062
88.6689
88.637
88.6109
88.5909
88.5772
88.5701
90.1511
90.0259
89.8366
89.623
89.4056
89.194
88.9924
88.8019
88.6225
88.4534
88.2937
88.1424
87.9987
87.862
87.7314
87.6067
87.4873
87.3728
87.2632
87.1581
87.0573
86.9609
86.8687
86.7806
86.6967
86.617
86.5415
86.4704
86.4036
86.3412
86.2835
86.2306
86.1826
86.1397
86.1021
86.0701
86.0439
86.0238
86.01
86.003
90.3547
88.6753
88.048
87.5695
87.1886
86.8736
86.6045
86.3686
86.1574
85.9652
85.7881
85.6234
85.469
85.3235
85.1857
85.0549
84.9303
84.8115
84.6982
84.5899
84.4865
84.3877
84.2936
84.204
84.1188
84.038
83.9616
83.8898
83.8225
83.7598
83.7018
83.6487
83.6005
83.5576
83.52
83.488
83.4618
83.4417
83.428
83.4209
94.57
85.3516
85.0274
84.7269
84.4498
84.1959
83.9631
83.7488
83.5503
83.3656
83.1927
83.0301
82.8765
82.731
82.5928
82.4612
82.3359
82.2162
82.102
81.993
81.889
81.7897
81.6952
81.6052
81.5198
81.4389
81.3626
81.2908
81.2236
81.161
81.1033
81.0504
81.0025
80.9598
80.9224
80.8907
80.8647
80.8447
80.8311
80.8241
85.7818
81.9455
81.8173
81.6705
81.5091
81.3406
81.1703
81.0015
80.836
80.6752
80.5197
80.3698
80.2255
80.0869
79.9539
79.8263
79.7039
79.5867
79.4744
79.367
79.2644
79.1663
79.0729
78.984
78.8995
78.8195
78.7441
78.6731
78.6067
78.5449
78.4879
78.4357
78.3885
78.3463
78.3095
78.2782
78.2525
78.2329
78.2195
78.2126
80.5556
78.8589
78.7912
78.7039
78.5975
78.4773
78.3477
78.2125
78.0745
77.9359
77.7982
77.6627
77.5301
77.401
77.2757
77.1546
77.0377
76.9251
76.8169
76.713
76.6134
76.5181
76.4272
76.3405
76.2581
76.18
76.1063
76.037
75.972
75.9116
75.8559
75.8048
75.7586
75.7174
75.6814
75.6507
75.6257
75.6064
75.5933
75.5866
78.2738
76.0185
75.9492
75.8678
75.7713
75.6634
75.5474
75.426
75.3015
75.1757
75.05
74.9255
74.8029
74.6828
74.5657
74.4519
74.3416
74.2349
74.132
74.0329
73.9377
73.8464
73.7591
73.6757
73.5963
73.521
73.4498
73.3828
73.32
73.2616
73.2075
73.1581
73.1133
73.0733
73.0384
73.0086
72.9843
72.9657
72.9529
72.9464
76.7902
73.3508
73.2432
73.1328
73.0145
72.8924
72.769
72.6455
72.5228
72.4016
72.2822
72.1649
72.0501
71.9379
71.8286
71.7223
71.619
71.519
71.4224
71.329
71.2392
71.1528
71.07
70.9908
70.9152
70.8435
70.7755
70.7114
70.6513
70.5953
70.5435
70.496
70.453
70.4146
70.381
70.3524
70.329
70.311
70.2988
70.2925
87.5543
70.9515
70.645
70.4425
70.2694
70.1159
69.9759
69.8453
69.7216
69.6033
69.4893
69.379
69.2719
69.1678
69.0666
68.9683
68.8728
68.7802
68.6904
68.6036
68.5199
68.4392
68.3616
68.2873
68.2162
68.1486
68.0844
68.0238
67.9669
67.9137
67.8645
67.8194
67.7784
67.7418
67.7098
67.6825
67.6602
67.643
67.6313
67.6253
78.1368
67.9338
67.6653
67.5065
67.3613
67.2274
67.1027
66.9852
66.8735
66.7666
66.6635
66.5638
66.467
66.3729
66.2812
66.192
66.1051
66.0207
65.9386
65.859
65.782
65.7075
65.6358
65.5668
65.5008
65.4377
65.3778
65.321
65.2677
65.2178
65.1715
65.1289
65.0903
65.0558
65.0255
64.9997
64.9785
64.9623
64.9512
64.9455
69.0938
64.6899
64.5399
64.4477
64.3536
64.2594
64.166
64.0739
63.9835
63.8948
63.8077
63.7222
63.6384
63.5561
63.4755
63.3964
63.319
63.2434
63.1696
63.0977
63.0278
62.9601
62.8945
62.8313
62.7706
62.7125
62.6571
62.6045
62.5549
62.5085
62.4653
62.4256
62.3895
62.3572
62.3288
62.3046
62.2847
62.2695
62.2591
62.2537
63.411
61.5128
61.4408
61.3912
61.3349
61.2736
61.2089
61.1418
61.0731
61.0035
60.9334
60.8632
60.7931
60.7234
60.6543
60.5858
60.5183
60.4518
60.3865
60.3225
60.26
60.1991
60.1399
60.0827
60.0275
59.9744
59.9237
59.8755
59.8299
59.7871
59.7472
59.7105
59.677
59.647
59.6206
59.5981
59.5796
59.5654
59.5557
59.5507
59.4277
58.4428
58.4065
58.3786
58.3442
58.3043
58.2599
58.2118
58.1608
58.1076
58.0526
57.9963
57.9391
57.8813
57.8231
57.765
57.707
57.6495
57.5925
57.5363
57.4811
57.427
57.3742
57.3229
57.2732
57.2253
57.1793
57.1354
57.0939
57.0548
57.0182
56.9845
56.9537
56.9261
56.9018
56.881
56.8639
56.8507
56.8417
56.8371
56.0979
55.4491
55.428
55.4107
55.3882
55.3612
55.33
55.2951
55.2571
55.2165
55.1736
55.1289
55.0826
55.0353
54.987
54.9382
54.889
54.8398
54.7906
54.7418
54.6935
54.646
54.5993
54.5537
54.5094
54.4665
54.4252
54.3857
54.3481
54.3126
54.2795
54.2487
54.2207
54.1954
54.1731
54.1541
54.1384
54.1263
54.1181
54.1138
53.0157
52.5042
52.4903
52.4784
52.4627
52.4433
52.4205
52.3946
52.3658
52.3345
52.3009
52.2653
52.228
52.1893
52.1495
52.1087
52.0674
52.0255
51.9835
51.9414
51.8996
51.8581
51.8172
51.777
51.7378
51.6997
51.6629
51.6275
51.5938
51.5619
51.532
51.5042
51.4788
51.4559
51.4356
51.4183
51.404
51.393
51.3855
51.3816
50.0367
49.5919
49.5817
49.5729
49.5612
49.5467
49.5294
49.5096
49.4873
49.4627
49.4361
49.4075
49.3774
49.3457
49.3129
49.279
49.2442
49.2089
49.1731
49.1371
49.101
49.065
49.0294
48.9943
48.9598
48.9262
48.8936
48.8622
48.8322
48.8036
48.7768
48.7519
48.729
48.7084
48.6901
48.6745
48.6616
48.6516
48.6448
48.6413
47.1089
46.7027
46.6946
46.6877
46.6785
46.6671
46.6536
46.638
46.6203
46.6007
46.5793
46.5563
46.5317
46.5057
46.4785
46.4503
46.4212
46.3913
46.3609
46.3302
46.2992
46.2682
46.2373
46.2068
46.1767
46.1472
46.1185
46.0908
46.0642
46.0388
46.015
45.9928
45.9723
45.9538
45.9375
45.9234
45.9118
45.9028
45.8967
45.8935
44.2119
43.8304
43.8236
43.8179
43.8104
43.8012
43.7903
43.7777
43.7634
43.7475
43.7301
43.7112
43.691
43.6695
43.647
43.6234
43.599
43.5738
43.548
43.5218
43.4954
43.4687
43.4421
43.4156
43.3894
43.3637
43.3385
43.3142
43.2908
43.2684
43.2473
43.2276
43.2094
43.193
43.1784
43.1658
43.1555
43.1474
43.1419
43.1391
41.336
40.9708
40.965
40.96
40.9537
40.946
40.937
40.9266
40.9148
40.9017
40.8874
40.8718
40.8551
40.8372
40.8184
40.7987
40.7781
40.7569
40.7351
40.7128
40.6902
40.6673
40.6444
40.6215
40.5988
40.5765
40.5546
40.5333
40.5128
40.4932
40.4746
40.4572
40.4411
40.4266
40.4136
40.4025
40.3933
40.3862
40.3813
40.3788
38.4761
38.1213
38.1159
38.1114
38.1059
38.0994
38.0917
38.083
38.0731
38.0623
38.0503
38.0373
38.0234
38.0085
37.9927
37.9762
37.9589
37.9409
37.9224
37.9035
37.8842
37.8647
37.845
37.8253
37.8057
37.7864
37.7674
37.7488
37.7309
37.7138
37.6975
37.6822
37.6681
37.6553
37.6439
37.6341
37.626
37.6197
37.6153
37.6131
35.628
35.2793
35.2742
35.27
35.2651
35.2594
35.2528
35.2454
35.2371
35.2279
35.2179
35.2071
35.1954
35.1829
35.1697
35.1557
35.1412
35.126
35.1103
35.0942
35.0778
35.0611
35.0443
35.0274
35.0105
34.9938
34.9774
34.9614
34.9458
34.9309
34.9167
34.9034
34.8911
34.8798
34.8698
34.8612
34.8541
34.8485
34.8447
34.8428
32.7876
32.4425
32.4377
32.4338
32.4294
32.4244
32.4188
32.4125
32.4055
32.3978
32.3894
32.3803
32.3705
32.36
32.3489
32.3372
32.3249
32.3121
32.2989
32.2852
32.2713
32.257
32.2427
32.2282
32.2138
32.1994
32.1853
32.1714
32.158
32.145
32.1327
32.1212
32.1104
32.1007
32.092
32.0844
32.0782
32.0734
32.07
32.0683
29.951
29.6092
29.6048
29.6014
29.5975
29.5933
29.5885
29.5833
29.5774
29.5711
29.5641
29.5565
29.5483
29.5396
29.5303
29.5204
29.5101
29.4993
29.4881
29.4765
29.4647
29.4526
29.4404
29.428
29.4157
29.4034
29.3913
29.3794
29.3678
29.3567
29.3461
29.3361
29.3268
29.3183
29.3108
29.3042
29.2988
29.2946
29.2917
29.2903
27.1135
26.7777
26.7741
26.7713
26.7683
26.7649
26.7612
26.757
26.7524
26.7472
26.7415
26.7352
26.7285
26.7212
26.7134
26.7052
26.6965
26.6874
26.678
26.6682
26.6582
26.648
26.6376
26.6271
26.6166
26.6061
26.5958
26.5856
26.5757
26.5662
26.5571
26.5485
26.5405
26.5332
26.5267
26.5211
26.5165
26.5128
26.5103
26.5091
24.2601
23.9462
23.9442
23.9427
23.941
23.9389
23.9364
23.9334
23.9299
23.9259
23.9213
23.9163
23.9107
23.9047
23.8982
23.8913
23.8841
23.8765
23.8685
23.8603
23.8519
23.8432
23.8345
23.8256
23.8167
23.8078
23.7991
23.7904
23.782
23.7739
23.7662
23.7588
23.752
23.7458
23.7403
23.7355
23.7315
23.7284
23.7263
23.7252
21.2742
21.1124
21.1141
21.1154
21.116
21.1157
21.1147
21.1129
21.1104
21.1073
21.1037
21.0995
21.095
21.0899
21.0845
21.0788
21.0727
21.0663
21.0596
21.0528
21.0457
21.0384
21.0311
21.0236
21.0161
21.0087
21.0013
20.994
20.987
20.9801
20.9736
20.9674
20.9617
20.9564
20.9517
20.9477
20.9443
20.9417
20.9399
20.9389
18.2651
18.276
18.2873
18.2937
18.2969
18.298
18.2977
18.2964
18.2943
18.2917
18.2885
18.285
18.281
18.2768
18.2722
18.2673
18.2622
18.2568
18.2513
18.2455
18.2396
18.2336
18.2275
18.2213
18.2151
18.2089
18.2027
18.1967
18.1908
18.1851
18.1797
18.1745
18.1697
18.1654
18.1614
18.1581
18.1552
18.153
18.1515
18.1508
15.5171
15.5069
15.5006
15.4964
15.4931
15.4902
15.4875
15.4847
15.4818
15.4788
15.4755
15.4721
15.4685
15.4648
15.4608
15.4566
15.4523
15.4479
15.4432
15.4385
15.4336
15.4287
15.4237
15.4186
15.4135
15.4084
15.4034
15.3985
15.3937
15.389
15.3846
15.3804
15.3765
15.3729
15.3697
15.3669
15.3646
15.3628
15.3616
15.3609
12.7147
12.7053
12.6975
12.6911
12.6857
12.6811
12.6771
12.6734
12.6699
12.6666
12.6633
12.66
12.6567
12.6534
12.65
12.6465
12.6429
12.6392
12.6354
12.6316
12.6277
12.6237
12.6197
12.6156
12.6116
12.6076
12.6036
12.5997
12.5958
12.5921
12.5886
12.5853
12.5821
12.5793
12.5768
12.5745
12.5727
12.5713
12.5703
12.5698
9.89619
9.8892
9.88289
9.87727
9.87227
9.86781
9.8638
9.86015
9.85678
9.85362
9.85062
9.84771
9.84486
9.84204
9.83922
9.83639
9.83352
9.83062
9.82768
9.8247
9.82168
9.81862
9.81555
9.81246
9.80937
9.80629
9.80326
9.80027
9.79737
9.79456
9.79187
9.78933
9.78697
9.7848
9.78287
9.78119
9.7798
9.77871
9.77797
9.77758
7.07133
7.06659
7.06215
7.05804
7.05426
7.05079
7.04761
7.04469
7.04198
7.03945
7.03706
7.03478
7.03258
7.03043
7.02831
7.02621
7.02411
7.022
7.01988
7.01774
7.01559
7.01342
7.01124
7.00906
7.00688
7.00472
7.00258
7.00049
6.99844
6.99647
6.99458
6.9928
6.99114
6.98962
6.98827
6.98709
6.98611
6.98535
6.98482
6.98455
4.24362
4.24088
4.23827
4.23581
4.2335
4.23135
4.22936
4.2275
4.22578
4.22416
4.22263
4.22119
4.2198
4.21845
4.21713
4.21584
4.21455
4.21327
4.21198
4.2107
4.2094
4.20811
4.2068
4.2055
4.20421
4.20292
4.20165
4.20041
4.1992
4.19803
4.19691
4.19585
4.19486
4.19396
4.19316
4.19246
4.19188
4.19143
4.19112
4.19096
1.41466
1.41377
1.41291
1.41209
1.41131
1.41059
1.40991
1.40928
1.40869
1.40814
1.40761
1.40712
1.40664
1.40618
1.40574
1.4053
1.40487
1.40444
1.40401
1.40357
1.40314
1.40271
1.40228
1.40185
1.40142
1.40099
1.40057
1.40016
1.39975
1.39937
1.39899
1.39864
1.39832
1.39802
1.39775
1.39752
1.39733
1.39718
1.39708
1.39702
)
;

boundaryField
{
    top
    {
        type            fixedValue;
        value           uniform 0;
    }
    inlet
    {
        type            darcyGradPressure;
        gradient        nonuniform List<scalar> 
80
(
9.81
9.81
9.81
9.81
9.81
9.81
9.81
9.81
9.81
9.81
9.81
9.81
9.81
9.81
9.81
9.81
9.81
9.81
9.81
9.81
9.81
9.81
9.81
9.81
9.81
9.81
9.81
9.81
9.81
9.81
9.81
9.81
9.81
9.81
9.81
9.81
9.81
9.81
9.81
9.81
9.81
9.81
9.81
9.81
9.81
9.81
9.81
9.81
9.81
9.81
9.81
9.81
9.81
9.81
9.81
9.81
9.81
9.81
9.81
9.81
9.81
9.81
9.81
9.81
9.81
9.81
9.81
9.81
9.81
9.81
9.81
9.81
9.81
9.81
9.81
9.81
9.81
9.81
9.81
9.81
)
;
        value           nonuniform List<scalar> 
80
(
108.106
108.111
108.122
108.138
108.158
108.183
108.212
108.244
108.279
108.317
108.358
108.401
108.445
108.492
108.539
108.587
108.635
108.683
108.731
108.778
108.825
108.87
108.913
108.955
108.994
109.031
109.065
109.096
109.124
109.149
109.17
109.188
109.202
109.212
109.218
109.221
109.22
109.216
109.208
109.197
109.183
109.166
109.145
109.12
109.092
109.06
109.024
108.984
108.941
108.894
108.844
108.792
108.736
108.677
108.617
108.554
108.49
108.425
108.358
108.292
108.224
108.157
108.091
108.025
107.96
107.897
107.836
107.776
107.72
107.666
107.616
107.569
107.525
107.486
107.452
107.422
107.398
107.379
107.366
107.36
)
;
    }
    axis
    {
        type            darcyGradPressure;
        gradient        uniform -0;
        value           nonuniform List<scalar> 
80
(
106.88
104.415
101.939
99.4509
96.9502
94.4367
91.9098
89.369
86.8138
84.2436
81.6581
79.0567
76.4392
73.8055
71.1554
68.4891
65.807
63.1093
60.3966
57.6697
54.9293
52.1761
49.4113
46.6355
43.85
41.0554
38.2528
35.4431
32.6271
29.8056
26.9793
24.149
21.3151
18.4784
15.6392
12.7982
9.95563
7.11195
4.26747
1.42254
106.133
103.667
101.187
98.6921
96.1833
93.6602
91.1225
88.5701
86.003
83.4209
80.8241
78.2126
75.5866
72.9464
70.2925
67.6253
64.9455
62.2537
59.5507
56.8371
54.1138
51.3816
48.6413
45.8935
43.1391
40.3788
37.6131
34.8428
32.0683
29.2903
26.5091
23.7252
20.9389
18.1508
15.3609
12.5698
9.77758
6.98455
4.19096
1.39702
)
;
    }
    frontAndBack
    {
        type            empty;
    }
}


// ************************************************************************* //
