/*--------------------------------*- C++ -*----------------------------------*\
  =========                 |
  \\      /  F ield         | OpenFOAM: The Open Source CFD Toolbox
   \\    /   O peration     | Website:  https://openfoam.org
    \\  /    A nd           | Version:  7
     \\/     M anipulation  |
\*---------------------------------------------------------------------------*/
FoamFile
{
    version     2.0;
    format      ascii;
    class       surfaceScalarField;
    location    "5000";
    object      phia;
}
// * * * * * * * * * * * * * * * * * * * * * * * * * * * * * * * * * * * * * //

dimensions      [0 3 -1 0 0 0 0];

internalField   nonuniform List<scalar> 
6280
(
-4.60667e-08
4.60667e-08
-9.1103e-08
4.50363e-08
-1.34923e-07
4.38196e-08
-1.77352e-07
4.24291e-08
-2.18225e-07
4.08733e-08
-2.57383e-07
3.91576e-08
-2.94667e-07
3.72844e-08
-3.29921e-07
3.52545e-08
-3.62988e-07
3.3067e-08
-3.93709e-07
3.07202e-08
-4.2192e-07
2.82119e-08
-4.4746e-07
2.55397e-08
-4.70162e-07
2.27017e-08
-4.89859e-07
1.96967e-08
-5.06383e-07
1.65246e-08
-5.1957e-07
1.31871e-08
-5.29258e-07
9.6879e-09
-5.35292e-07
6.03349e-09
-5.37525e-07
2.23339e-09
-5.35826e-07
-1.69916e-09
-5.30079e-07
-5.74674e-09
-5.20192e-07
-9.88728e-09
-5.06098e-07
-1.40936e-08
-4.87765e-07
-1.83334e-08
-4.65196e-07
-2.25686e-08
-4.3844e-07
-2.67562e-08
-4.07592e-07
-3.08482e-08
-3.72799e-07
-3.47922e-08
-3.34266e-07
-3.85333e-08
-2.92252e-07
-4.20147e-08
-2.47071e-07
-4.51802e-08
-1.99095e-07
-4.7976e-08
-1.48742e-07
-5.03535e-08
-9.64707e-08
-5.22712e-08
-4.27736e-08
-5.36971e-08
1.18373e-08
-5.4611e-08
6.68426e-08
-5.50053e-08
1.21729e-07
-5.48862e-08
1.76002e-07
-5.4273e-08
-5.31975e-08
2.29199e-07
-4.65354e-08
9.26021e-08
-9.20427e-08
9.05436e-08
-1.36345e-07
8.81219e-08
-1.79278e-07
8.53617e-08
-2.20684e-07
8.22792e-08
-2.6041e-07
7.88842e-08
-2.98307e-07
7.51815e-08
-3.34224e-07
7.11717e-08
-3.6801e-07
6.68528e-08
-3.99511e-07
6.22204e-08
-4.28568e-07
5.72695e-08
-4.55023e-07
5.19941e-08
-4.7871e-07
4.63892e-08
-4.99464e-07
4.04506e-08
-5.17116e-07
3.41764e-08
-5.31496e-07
2.75672e-08
-5.42436e-07
2.06277e-08
-5.49769e-07
1.33672e-08
-5.53337e-07
5.80048e-09
-5.52985e-07
-2.05054e-09
-5.48576e-07
-1.01563e-08
-5.39985e-07
-1.84782e-08
-5.2711e-07
-2.69679e-08
-5.09878e-07
-3.55659e-08
-4.88245e-07
-4.42016e-08
-4.62208e-07
-5.27927e-08
-4.31811e-07
-6.12452e-08
-3.97149e-07
-6.94548e-08
-3.58374e-07
-7.73082e-08
-3.15703e-07
-8.46856e-08
-2.69419e-07
-9.14644e-08
-2.19872e-07
-9.75233e-08
-1.67478e-07
-1.02747e-07
-1.12715e-07
-1.07034e-07
-5.6113e-08
-1.10299e-07
1.75679e-09
-1.12481e-07
6.02981e-08
-1.13547e-07
1.18907e-07
-1.13495e-07
1.76989e-07
-1.12356e-07
-1.10191e-07
2.33983e-07
-4.74504e-08
1.40053e-07
-9.38773e-08
1.3697e-07
-1.39123e-07
1.33368e-07
-1.8304e-07
1.29279e-07
-2.25487e-07
1.24727e-07
-2.66328e-07
1.19725e-07
-3.05426e-07
1.1428e-07
-3.42645e-07
1.0839e-07
-3.77844e-07
1.02052e-07
-4.1088e-07
9.52571e-08
-4.41607e-07
8.79962e-08
-4.69871e-07
8.02584e-08
-4.95515e-07
7.20328e-08
-5.18374e-07
6.33097e-08
-5.38279e-07
5.40817e-08
-5.55056e-07
4.43441e-08
-5.68525e-07
3.4097e-08
-5.78504e-07
2.3346e-08
-5.84807e-07
1.21035e-08
-5.87249e-07
3.90863e-10
-5.85644e-07
-1.17607e-08
-5.79815e-07
-2.43078e-08
-5.69589e-07
-3.71932e-08
-5.54812e-07
-5.03437e-08
-5.35345e-07
-6.36686e-08
-5.11079e-07
-7.70579e-08
-4.81943e-07
-9.03811e-08
-4.47911e-07
-1.03487e-07
-4.09017e-07
-1.16203e-07
-3.65364e-07
-1.28338e-07
-3.17141e-07
-1.39688e-07
-2.64627e-07
-1.50037e-07
-2.08205e-07
-1.59169e-07
-1.48365e-07
-1.66874e-07
-8.56983e-08
-1.72966e-07
-2.0891e-08
-1.77288e-07
4.52939e-08
-1.79731e-07
1.12043e-07
-1.80243e-07
1.78523e-07
-1.78836e-07
-1.75588e-07
2.4392e-07
-4.87675e-08
1.8882e-07
-9.65185e-08
1.84721e-07
-1.43123e-07
1.79972e-07
-1.8846e-07
1.74615e-07
-2.32412e-07
1.68679e-07
-2.74864e-07
1.62178e-07
-3.15703e-07
1.55118e-07
-3.54811e-07
1.47497e-07
-3.92067e-07
1.39308e-07
-4.27346e-07
1.30536e-07
-4.60517e-07
1.21167e-07
-4.91442e-07
1.11183e-07
-5.19974e-07
1.00565e-07
-5.45958e-07
8.92935e-08
-5.69229e-07
7.73526e-08
-5.89612e-07
6.47272e-08
-6.0692e-07
5.14059e-08
-6.20957e-07
3.73824e-08
-6.3151e-07
2.26569e-08
-6.38357e-07
7.23753e-09
-6.4126e-07
-8.8576e-09
-6.3997e-07
-2.55979e-08
-6.34226e-07
-4.29375e-08
-6.23757e-07
-6.08126e-08
-6.08288e-07
-7.91373e-08
-5.87546e-07
-9.77997e-08
-5.61269e-07
-1.16658e-07
-5.2922e-07
-1.35536e-07
-4.91204e-07
-1.54219e-07
-4.4709e-07
-1.72452e-07
-3.96841e-07
-1.89938e-07
-3.40537e-07
-2.06341e-07
-2.78412e-07
-2.21294e-07
-2.10879e-07
-2.34407e-07
-1.38553e-07
-2.45291e-07
-6.2261e-08
-2.5358e-07
1.69691e-08
-2.58962e-07
9.79369e-08
-2.61211e-07
1.79326e-07
-2.60225e-07
-2.56042e-07
2.59779e-07
-5.04219e-08
2.39242e-07
-9.98369e-08
2.34136e-07
-1.48151e-07
2.28286e-07
-1.95276e-07
2.2174e-07
-2.41127e-07
2.14529e-07
-2.85617e-07
2.06668e-07
-3.28661e-07
1.98162e-07
-3.7017e-07
1.89006e-07
-4.10048e-07
1.79186e-07
-4.48196e-07
1.68685e-07
-4.84507e-07
1.57478e-07
-5.18865e-07
1.45541e-07
-5.51144e-07
1.32844e-07
-5.81209e-07
1.19358e-07
-6.08908e-07
1.05052e-07
-6.34079e-07
8.98981e-08
-6.5654e-07
7.38673e-08
-6.76092e-07
5.69344e-08
-6.92513e-07
3.90772e-08
-7.05553e-07
2.02783e-08
-7.14937e-07
5.26501e-10
-7.20354e-07
-2.0181e-08
-7.21456e-07
-4.18362e-08
-7.17852e-07
-6.44166e-08
-7.09108e-07
-8.78804e-08
-6.94748e-07
-1.12161e-07
-6.74248e-07
-1.37157e-07
-6.47057e-07
-1.62727e-07
-6.12604e-07
-1.88672e-07
-5.70327e-07
-2.14728e-07
-5.19717e-07
-2.40548e-07
-4.60369e-07
-2.65689e-07
-3.92054e-07
-2.89609e-07
-3.14803e-07
-3.11658e-07
-2.28997e-07
-3.31097e-07
-1.35454e-07
-3.47124e-07
-3.54848e-08
-3.58931e-07
6.90901e-08
-3.65786e-07
1.76006e-07
-3.67141e-07
-3.6274e-07
2.82704e-07
-5.23305e-08
2.91572e-07
-1.03666e-07
2.85472e-07
-1.53957e-07
2.78576e-07
-2.03152e-07
2.70936e-07
-2.51205e-07
2.62582e-07
-2.98065e-07
2.53529e-07
-3.43682e-07
2.43779e-07
-3.87998e-07
2.33323e-07
-4.30955e-07
2.22143e-07
-4.72484e-07
2.10214e-07
-5.12511e-07
1.97506e-07
-5.50954e-07
1.83983e-07
-5.87718e-07
1.69608e-07
-6.22698e-07
1.54338e-07
-6.55777e-07
1.38131e-07
-6.86818e-07
1.2094e-07
-7.15669e-07
1.02718e-07
-7.42153e-07
8.34179e-08
-7.66065e-07
6.29901e-08
-7.87171e-07
4.13841e-08
-8.05194e-07
1.85488e-08
-8.19807e-07
-5.56807e-09
-8.30624e-07
-3.10188e-08
-8.37186e-07
-5.78547e-08
-8.38943e-07
-8.61235e-08
-8.35239e-07
-1.15865e-07
-8.25294e-07
-1.47102e-07
-8.08188e-07
-1.79832e-07
-7.82853e-07
-2.14007e-07
-7.48073e-07
-2.49508e-07
-7.02509e-07
-2.86112e-07
-6.44753e-07
-3.23445e-07
-5.73431e-07
-3.60931e-07
-4.87361e-07
-3.97729e-07
-3.85781e-07
-4.32677e-07
-2.68648e-07
-4.64258e-07
-1.36971e-07
-4.90608e-07
6.86497e-09
-5.09622e-07
1.58914e-07
-5.19189e-07
-5.17607e-07
3.13781e-07
-5.4395e-08
3.45967e-07
-1.0781e-07
3.38888e-07
-1.60242e-07
3.31008e-07
-2.11686e-07
3.2238e-07
-2.62136e-07
3.13032e-07
-3.11583e-07
3.02976e-07
-3.60017e-07
2.92212e-07
-4.07419e-07
2.80725e-07
-4.5377e-07
2.68494e-07
-4.99043e-07
2.55487e-07
-5.43204e-07
2.41667e-07
-5.86212e-07
2.26991e-07
-6.28018e-07
2.11413e-07
-6.68561e-07
1.94881e-07
-7.0777e-07
1.7734e-07
-7.45559e-07
1.58729e-07
-7.8183e-07
1.38988e-07
-8.1646e-07
1.18048e-07
-8.49308e-07
9.58378e-08
-8.80201e-07
7.22775e-08
-9.08932e-07
4.72797e-08
-9.35245e-07
2.07453e-08
-9.58824e-07
-7.44002e-09
-9.79269e-07
-3.74095e-08
-9.96072e-07
-6.93206e-08
-1.00858e-06
-1.0336e-07
-1.01593e-06
-1.39747e-07
-1.01703e-06
-1.78737e-07
-1.01042e-06
-2.20613e-07
-9.94252e-07
-2.65678e-07
-9.66147e-07
-3.14217e-07
-9.23157e-07
-3.66436e-07
-8.61724e-07
-4.22363e-07
-7.77771e-07
-4.81682e-07
-6.6696e-07
-5.43488e-07
-5.25263e-07
-6.05955e-07
-3.49952e-07
-6.65918e-07
-1.41116e-07
-7.18458e-07
9.63699e-08
-7.56675e-07
-7.72138e-07
3.50901e-07
-5.65054e-08
4.02473e-07
-1.12048e-07
3.9443e-07
-1.66675e-07
3.85635e-07
-2.20429e-07
3.76133e-07
-2.73348e-07
3.65951e-07
-3.25469e-07
3.55097e-07
-3.76822e-07
3.43565e-07
-4.27435e-07
3.31339e-07
-4.77331e-07
3.1839e-07
-5.26529e-07
3.04685e-07
-5.75043e-07
2.9018e-07
-6.2288e-07
2.74829e-07
-6.70044e-07
2.58577e-07
-7.1653e-07
2.41367e-07
-7.62328e-07
2.23137e-07
-8.07418e-07
2.0382e-07
-8.51775e-07
1.83345e-07
-8.95363e-07
1.61636e-07
-9.38137e-07
1.38612e-07
-9.80041e-07
1.14181e-07
-1.02101e-06
8.82445e-08
-1.06095e-06
6.0685e-08
-1.09975e-06
3.13651e-08
-1.13728e-06
1.15799e-10
-1.17332e-06
-3.32764e-08
-1.20759e-06
-6.90884e-08
-1.23965e-06
-1.07686e-07
-1.26883e-06
-1.49557e-07
-1.29409e-06
-1.95357e-07
-1.3138e-06
-2.45963e-07
-1.32548e-06
-3.02537e-07
-1.32533e-06
-3.66585e-07
-1.30769e-06
-4.40004e-07
-1.26433e-06
-5.25048e-07
-1.18367e-06
-6.24148e-07
-1.05024e-06
-7.39379e-07
-8.44895e-07
-8.71266e-07
-5.47061e-07
-1.01629e-06
-1.417e-07
-1.16204e-06
-1.27801e-06
3.64172e-07
-5.85459e-08
4.61019e-07
-1.16148e-07
4.52032e-07
-1.72903e-07
4.4239e-07
-2.28902e-07
4.32133e-07
-2.84231e-07
4.2128e-07
-3.38968e-07
4.09834e-07
-3.93191e-07
3.97788e-07
-4.46971e-07
3.85119e-07
-5.00378e-07
3.71797e-07
-5.53478e-07
3.57785e-07
-6.06336e-07
3.43038e-07
-6.59013e-07
3.27506e-07
-7.11568e-07
3.11132e-07
-7.64057e-07
2.93856e-07
-8.16535e-07
2.75615e-07
-8.69056e-07
2.56341e-07
-9.21674e-07
2.35964e-07
-9.74448e-07
2.1441e-07
-1.02744e-06
1.91604e-07
-1.08073e-06
1.67468e-07
-1.1344e-06
1.4192e-07
-1.18859e-06
1.14876e-07
-1.24347e-06
8.62404e-08
-1.29926e-06
5.59081e-08
-1.35629e-06
2.37497e-08
-1.41497e-06
-1.04024e-08
-1.47588e-06
-4.67815e-08
-1.5397e-06
-8.57303e-08
-1.60729e-06
-1.27773e-07
-1.67952e-06
-1.73731e-07
-1.75714e-06
-2.24914e-07
-1.84029e-06
-2.83433e-07
-1.92759e-06
-3.52708e-07
-2.01431e-06
-4.38324e-07
-2.08902e-06
-5.49443e-07
-2.12722e-06
-7.01176e-07
-2.07992e-06
-9.18569e-07
-1.85289e-06
-1.24332e-06
-1.26987e-06
-1.74506e-06
-2.54035e-06
-7.53192e-09
-6.03992e-08
5.21418e-07
-1.19874e-07
5.11507e-07
-1.7857e-07
5.01087e-07
-2.36625e-07
4.90187e-07
-2.94166e-07
4.78821e-07
-3.51318e-07
4.66986e-07
-4.082e-07
4.5467e-07
-4.64928e-07
4.41847e-07
-5.21618e-07
4.28487e-07
-5.78384e-07
4.14551e-07
-6.35338e-07
3.99993e-07
-6.92595e-07
3.84763e-07
-7.50269e-07
3.68806e-07
-8.08476e-07
3.52063e-07
-8.67333e-07
3.34472e-07
-9.26959e-07
3.15968e-07
-9.87481e-07
2.96486e-07
-1.04903e-06
2.7596e-07
-1.11176e-06
2.54328e-07
-1.17582e-06
2.31534e-07
-1.24143e-06
2.07528e-07
-1.30883e-06
1.82279e-07
-1.37837e-06
1.55774e-07
-1.45049e-06
1.28033e-07
-1.52586e-06
9.91182e-08
-1.60542e-06
6.91531e-08
-1.69054e-06
3.8342e-08
-1.78327e-06
7.00218e-09
-1.88665e-06
-2.43934e-08
-2.00523e-06
-5.51517e-08
-2.14589e-06
-8.42591e-08
-2.3191e-06
-1.10219e-07
-2.54103e-06
-1.30775e-07
-2.83692e-06
-1.42436e-07
-3.24673e-06
-1.3963e-07
-3.83469e-06
-1.13221e-07
-4.70539e-06
-4.78671e-08
-6.03134e-06
8.26286e-08
-8.09986e-06
3.23466e-07
7.42629e-07
-1.13796e-05
-6.19535e-08
5.83371e-07
-1.23002e-07
5.72556e-07
-1.83336e-07
5.6142e-07
-2.43133e-07
5.49984e-07
-3.02561e-07
5.38249e-07
-3.61783e-07
5.26209e-07
-4.2096e-07
5.13846e-07
-4.80247e-07
5.01134e-07
-5.39801e-07
4.88042e-07
-5.99782e-07
4.74531e-07
-6.60348e-07
4.60559e-07
-7.21662e-07
4.46077e-07
-7.8389e-07
4.31033e-07
-8.472e-07
4.15373e-07
-9.11765e-07
3.99037e-07
-9.7776e-07
3.81963e-07
-1.04537e-06
3.64091e-07
-1.11476e-06
3.45357e-07
-1.18614e-06
3.25703e-07
-1.25968e-06
3.05077e-07
-1.33559e-06
2.8344e-07
-1.41408e-06
2.60772e-07
-1.4954e-06
2.37089e-07
-1.57982e-06
2.12455e-07
-1.66771e-06
1.87008e-07
-1.75956e-06
1.60997e-07
-1.85604e-06
1.34827e-07
-1.95816e-06
1.09123e-07
-2.06738e-06
8.48258e-08
-2.18584e-06
6.33084e-08
-2.31664e-06
4.65379e-08
-2.46414e-06
3.72866e-08
-2.63432e-06
3.93983e-08
-2.83487e-06
5.81158e-08
-3.07496e-06
1.0046e-07
-3.3638e-06
1.75623e-07
-3.70695e-06
2.95279e-07
-4.09794e-06
4.73621e-07
-4.50117e-06
7.267e-07
1.04697e-06
-3.99791e-06
-6.31082e-08
6.4648e-07
-1.2533e-07
6.34778e-07
-1.86893e-07
6.22983e-07
-2.48008e-07
6.11099e-07
-3.08878e-07
5.99119e-07
-3.69698e-07
5.87029e-07
-4.30662e-07
5.74809e-07
-4.9196e-07
5.62433e-07
-5.53787e-07
5.49868e-07
-6.16337e-07
5.37082e-07
-6.79812e-07
5.24033e-07
-7.44416e-07
5.10681e-07
-8.10361e-07
4.96979e-07
-8.77865e-07
4.82877e-07
-9.4715e-07
4.68321e-07
-1.01844e-06
4.53255e-07
-1.09197e-06
4.37616e-07
-1.16795e-06
4.21339e-07
-1.2466e-06
4.04356e-07
-1.32812e-06
3.86594e-07
-1.41266e-06
3.67981e-07
-1.50034e-06
3.48448e-07
-1.59118e-06
3.27932e-07
-1.68511e-06
3.06389e-07
-1.7819e-06
2.83799e-07
-1.8811e-06
2.60193e-07
-1.98195e-06
2.35676e-07
-2.08329e-06
2.10466e-07
-2.18341e-06
1.84946e-07
-2.27984e-06
1.59739e-07
-2.3691e-06
1.35792e-07
-2.4463e-06
1.14485e-07
-2.50464e-06
9.7746e-08
-2.53468e-06
8.81487e-08
-2.52317e-06
8.89506e-08
-2.45153e-06
1.03983e-07
-2.2935e-06
1.37251e-07
-2.0119e-06
1.92025e-07
-1.55429e-06
2.69088e-07
3.44472e-07
-5.03009e-07
-6.37794e-08
7.10259e-07
-1.2669e-07
6.97689e-07
-1.88985e-07
6.85278e-07
-2.50903e-07
6.73016e-07
-3.12669e-07
6.60886e-07
-3.74505e-07
6.48866e-07
-4.36629e-07
6.36933e-07
-4.99257e-07
6.25061e-07
-5.62611e-07
6.13222e-07
-6.26916e-07
6.01387e-07
-6.92405e-07
5.89522e-07
-7.59318e-07
5.77594e-07
-8.27907e-07
5.65568e-07
-8.98432e-07
5.53402e-07
-9.71165e-07
5.41054e-07
-1.04638e-06
5.28475e-07
-1.12438e-06
5.15608e-07
-1.20543e-06
5.02389e-07
-1.28981e-06
4.88741e-07
-1.37779e-06
4.7457e-07
-1.46957e-06
4.59763e-07
-1.5653e-06
4.44176e-07
-1.665e-06
4.27634e-07
-1.76852e-06
4.09909e-07
-1.87544e-06
3.90715e-07
-1.98493e-06
3.69686e-07
-2.09561e-06
3.46355e-07
-2.20527e-06
3.20132e-07
-2.3106e-06
2.90276e-07
-2.40674e-06
2.55874e-07
-2.48678e-06
2.15835e-07
-2.54121e-06
1.68913e-07
-2.55725e-06
1.13789e-07
-2.51838e-06
4.92735e-08
-2.40411e-06
-2.53148e-08
-2.19066e-06
-1.09465e-07
-1.85307e-06
-2.00347e-07
-1.36998e-06
-2.91062e-07
-7.32782e-07
-3.68109e-07
-3.78997e-07
-5.05203e-09
-6.39048e-08
7.74164e-07
-1.26956e-07
7.6074e-07
-1.89423e-07
7.47745e-07
-2.51558e-07
7.35151e-07
-3.13602e-07
7.2293e-07
-3.75791e-07
7.11054e-07
-4.38356e-07
6.99498e-07
-5.01531e-07
6.88236e-07
-5.65552e-07
6.77244e-07
-6.30664e-07
6.66498e-07
-6.97119e-07
6.55977e-07
-7.65183e-07
6.45658e-07
-8.35134e-07
6.35519e-07
-9.0727e-07
6.25538e-07
-9.81904e-07
6.15688e-07
-1.05937e-06
6.0594e-07
-1.14002e-06
5.9626e-07
-1.22423e-06
5.86601e-07
-1.3124e-06
5.76905e-07
-1.40492e-06
5.67094e-07
-1.50222e-06
5.57058e-07
-1.60469e-06
5.46649e-07
-1.71272e-06
5.35659e-07
-1.8266e-06
5.23797e-07
-1.94655e-06
5.10657e-07
-2.07253e-06
4.95669e-07
-2.20421e-06
4.78034e-07
-2.34071e-06
4.56632e-07
-2.48033e-06
4.29895e-07
-2.62009e-06
3.95636e-07
-2.75507e-06
3.50816e-07
-2.8774e-06
2.91248e-07
-2.97484e-06
2.11224e-07
-3.02867e-06
1.03099e-07
-3.01087e-06
-4.31086e-08
-2.88043e-06
-2.3991e-07
-2.57883e-06
-5.01943e-07
-2.0257e-06
-8.4419e-07
-1.11653e-06
-1.27728e-06
-1.62917e-06
1.338e-07
-6.34475e-08
8.37611e-07
-1.26054e-07
8.23346e-07
-1.88093e-07
8.09784e-07
-2.4982e-07
7.96878e-07
-3.1148e-07
7.8459e-07
-3.7331e-07
7.72885e-07
-4.35546e-07
7.61734e-07
-4.98422e-07
7.51113e-07
-5.6218e-07
7.41001e-07
-6.27066e-07
7.31384e-07
-6.93339e-07
7.2225e-07
-7.61271e-07
7.1359e-07
-8.31152e-07
7.054e-07
-9.03294e-07
6.9768e-07
-9.78034e-07
6.90428e-07
-1.05574e-06
6.83648e-07
-1.13682e-06
6.77342e-07
-1.22173e-06
6.71508e-07
-1.31097e-06
6.66144e-07
-1.40511e-06
6.61237e-07
-1.50482e-06
6.56761e-07
-1.61084e-06
6.52672e-07
-1.72407e-06
6.48894e-07
-1.84559e-06
6.4531e-07
-1.97667e-06
6.41738e-07
-2.1189e-06
6.37904e-07
-2.27427e-06
6.33399e-07
-2.44525e-06
6.27609e-07
-2.63497e-06
6.19618e-07
-2.84736e-06
6.0803e-07
-3.08724e-06
5.90696e-07
-3.36024e-06
5.64245e-07
-3.67229e-06
5.23273e-07
-4.02814e-06
4.58954e-07
-4.42786e-06
3.56615e-07
-4.85926e-06
1.9149e-07
-5.28254e-06
-7.86715e-08
-5.60023e-06
-5.26496e-07
-5.59984e-06
-1.27767e-06
-1.95554e-06
1.10484e-07
-6.23975e-08
9.00009e-07
-1.23965e-07
8.84913e-07
-1.84966e-07
8.70785e-07
-2.45651e-07
8.57562e-07
-3.06254e-07
8.45193e-07
-3.67005e-07
8.33636e-07
-4.28129e-07
8.22858e-07
-4.89851e-07
8.12835e-07
-5.52399e-07
8.03549e-07
-6.16008e-07
7.94993e-07
-6.80921e-07
7.87163e-07
-7.47397e-07
7.80066e-07
-8.15711e-07
7.73715e-07
-8.86161e-07
7.68129e-07
-9.59071e-07
7.63338e-07
-1.0348e-06
7.59378e-07
-1.11375e-06
7.56295e-07
-1.19639e-06
7.54145e-07
-1.28324e-06
7.52995e-07
-1.37493e-06
7.52924e-07
-1.4722e-06
7.5403e-07
-1.57596e-06
7.56431e-07
-1.68733e-06
7.60272e-07
-1.80777e-06
7.65742e-07
-1.93911e-06
7.73084e-07
-2.08384e-06
7.82631e-07
-2.24529e-06
7.94851e-07
-2.42811e-06
8.10426e-07
-2.63887e-06
8.30378e-07
-2.88713e-06
8.56288e-07
-3.18708e-06
8.90647e-07
-3.5603e-06
9.37472e-07
-4.04037e-06
1.00334e-06
-4.68057e-06
1.09915e-06
-5.56715e-06
1.2432e-06
-6.84203e-06
1.46637e-06
-8.74186e-06
1.82116e-06
-1.16655e-05
2.39711e-06
-1.59278e-05
3.27015e-06
1.3089e-08
2.88651e-06
-6.07722e-08
9.60781e-07
-1.20723e-07
9.44864e-07
-1.80098e-07
9.3016e-07
-2.39127e-07
9.16592e-07
-2.98028e-07
9.04094e-07
-3.57009e-07
8.92617e-07
-4.16274e-07
8.82123e-07
-4.76024e-07
8.72585e-07
-5.36463e-07
8.63988e-07
-5.97795e-07
8.56325e-07
-6.60232e-07
8.496e-07
-7.23995e-07
8.43829e-07
-7.89316e-07
8.39036e-07
-8.56444e-07
8.35257e-07
-9.25647e-07
8.32542e-07
-9.97221e-07
8.30952e-07
-1.07149e-06
8.30567e-07
-1.14883e-06
8.31483e-07
-1.22966e-06
8.3382e-07
-1.31446e-06
8.37725e-07
-1.40381e-06
8.4338e-07
-1.49839e-06
8.51012e-07
-1.59902e-06
8.60907e-07
-1.70671e-06
8.73427e-07
-1.82266e-06
8.89037e-07
-1.94838e-06
9.08343e-07
-2.08566e-06
9.32134e-07
-2.23668e-06
9.61449e-07
-2.40396e-06
9.97659e-07
-2.59024e-06
1.04257e-06
-2.79812e-06
1.09852e-06
-3.02919e-06
1.16855e-06
-3.28223e-06
1.25637e-06
-3.54946e-06
1.36638e-06
-3.80941e-06
1.50315e-06
-4.01326e-06
1.67022e-06
-4.05947e-06
1.86736e-06
-3.74718e-06
2.08482e-06
-1.04062e-06
1.98037e-06
6.91791e-08
5.42034e-07
-5.86136e-08
1.01939e-06
-1.16414e-07
1.00266e-06
-1.7362e-07
9.87366e-07
-2.30432e-07
9.73404e-07
-2.87041e-07
9.60703e-07
-3.43627e-07
9.49203e-07
-4.00363e-07
9.38859e-07
-4.57416e-07
9.29639e-07
-5.14953e-07
9.21525e-07
-5.73137e-07
9.14508e-07
-6.32131e-07
9.08594e-07
-6.92101e-07
9.03799e-07
-7.53216e-07
9.0015e-07
-8.15648e-07
8.97689e-07
-8.79578e-07
8.96471e-07
-9.4519e-07
8.96565e-07
-1.01268e-06
8.98059e-07
-1.08226e-06
9.01061e-07
-1.15414e-06
9.05702e-07
-1.22856e-06
9.12139e-07
-1.30574e-06
9.20567e-07
-1.38595e-06
9.31215e-07
-1.4694e-06
9.44366e-07
-1.55633e-06
9.60356e-07
-1.64689e-06
9.79593e-07
-1.74111e-06
1.00256e-06
-1.83881e-06
1.02984e-06
-1.93946e-06
1.06209e-06
-2.04188e-06
1.10008e-06
-2.14396e-06
1.14464e-06
-2.24205e-06
1.19662e-06
-2.33027e-06
1.25676e-06
-2.39948e-06
1.32559e-06
-2.43615e-06
1.40305e-06
-2.42117e-06
1.48817e-06
-2.32943e-06
1.57849e-06
-2.13153e-06
1.66946e-06
-1.80077e-06
1.75406e-06
-3.52411e-07
1.38352e-06
2.30593e-08
2.6073e-07
-5.5985e-08
1.07538e-06
-1.11167e-07
1.05785e-06
-1.65728e-07
1.04193e-06
-2.19837e-07
1.02751e-06
-2.73649e-07
1.01452e-06
-3.27311e-07
1.00286e-06
-3.80959e-07
9.92506e-07
-4.3472e-07
9.83401e-07
-4.88717e-07
9.75522e-07
-5.43065e-07
9.68856e-07
-5.97871e-07
9.634e-07
-6.53237e-07
9.59166e-07
-7.09259e-07
9.56173e-07
-7.66024e-07
9.54454e-07
-8.23609e-07
9.54056e-07
-8.8208e-07
9.55036e-07
-9.41486e-07
9.57466e-07
-1.00186e-06
9.61433e-07
-1.0632e-06
9.67042e-07
-1.12547e-06
9.74414e-07
-1.18859e-06
9.83688e-07
-1.25241e-06
9.95027e-07
-1.31665e-06
1.00861e-06
-1.38094e-06
1.02464e-06
-1.44468e-06
1.04334e-06
-1.50704e-06
1.06492e-06
-1.56682e-06
1.08962e-06
-1.62236e-06
1.11763e-06
-1.67137e-06
1.1491e-06
-1.71081e-06
1.18408e-06
-1.73667e-06
1.22248e-06
-1.74384e-06
1.26393e-06
-1.72602e-06
1.30777e-06
-1.67587e-06
1.3529e-06
-1.58535e-06
1.39765e-06
-1.44663e-06
1.43977e-06
-1.25358e-06
1.47641e-06
-1.00378e-06
1.50426e-06
-1.60561e-07
1.0602e-06
8.96462e-09
1.65491e-07
-5.29649e-08
1.12834e-06
-1.05139e-07
1.11002e-06
-1.56665e-07
1.09345e-06
-2.07676e-07
1.07852e-06
-2.58289e-07
1.06513e-06
-3.08614e-07
1.05319e-06
-3.58747e-07
1.04264e-06
-4.08776e-07
1.03343e-06
-4.58777e-07
1.02552e-06
-5.08816e-07
1.01889e-06
-5.58946e-07
1.01353e-06
-6.09209e-07
1.00943e-06
-6.59628e-07
1.00659e-06
-7.10212e-07
1.00504e-06
-7.60947e-07
1.00479e-06
-8.11793e-07
1.00588e-06
-8.62678e-07
1.00835e-06
-9.13491e-07
1.01225e-06
-9.64074e-07
1.01762e-06
-1.0142e-06
1.02454e-06
-1.06359e-06
1.03307e-06
-1.11183e-06
1.04327e-06
-1.15841e-06
1.0552e-06
-1.20268e-06
1.06891e-06
-1.2438e-06
1.08445e-06
-1.28069e-06
1.10181e-06
-1.31204e-06
1.12097e-06
-1.33624e-06
1.14183e-06
-1.35134e-06
1.16419e-06
-1.35505e-06
1.18779e-06
-1.34476e-06
1.21219e-06
-1.31763e-06
1.2368e-06
-1.2707e-06
1.26084e-06
-1.20114e-06
1.28335e-06
-1.10665e-06
1.30315e-06
-9.85825e-07
1.31895e-06
-8.38766e-07
1.32935e-06
-6.67521e-07
1.33302e-06
-9.67414e-08
8.7045e-07
4.52485e-09
1.23124e-07
-4.96409e-08
1.17799e-06
-9.85069e-08
1.15889e-06
-1.46702e-07
1.14165e-06
-1.9432e-07
1.12614e-06
-2.41442e-07
1.11225e-06
-2.88139e-07
1.09989e-06
-3.34471e-07
1.08897e-06
-3.80487e-07
1.07945e-06
-4.26222e-07
1.07126e-06
-4.71697e-07
1.06437e-06
-5.1692e-07
1.05875e-06
-5.61878e-07
1.05439e-06
-6.06542e-07
1.05126e-06
-6.50858e-07
1.04935e-06
-6.94746e-07
1.04868e-06
-7.38092e-07
1.04923e-06
-7.80748e-07
1.05101e-06
-8.22521e-07
1.05402e-06
-8.63164e-07
1.05827e-06
-9.02372e-07
1.06375e-06
-9.39766e-07
1.07046e-06
-9.74884e-07
1.07839e-06
-1.00717e-06
1.08748e-06
-1.03596e-06
1.0977e-06
-1.06048e-06
1.10896e-06
-1.07981e-06
1.12114e-06
-1.09292e-06
1.13408e-06
-1.09865e-06
1.14756e-06
-1.09575e-06
1.1613e-06
-1.08291e-06
1.17494e-06
-1.05879e-06
1.18807e-06
-1.02216e-06
1.20017e-06
-9.71986e-07
1.21067e-06
-9.07568e-07
1.21893e-06
-8.28702e-07
1.22428e-06
-7.35825e-07
1.22607e-06
-6.3014e-07
1.22366e-06
-5.13658e-07
1.21654e-06
-6.98664e-08
7.4984e-07
2.83015e-09
9.85329e-08
-4.61034e-08
1.22409e-06
-9.14534e-08
1.20424e-06
-1.36115e-07
1.18631e-06
-1.80146e-07
1.17017e-06
-2.23592e-07
1.1557e-06
-2.66492e-07
1.14279e-06
-3.08871e-07
1.13135e-06
-3.50744e-07
1.12132e-06
-3.92112e-07
1.11263e-06
-4.32962e-07
1.10522e-06
-4.73265e-07
1.09906e-06
-5.12972e-07
1.09409e-06
-5.52017e-07
1.0903e-06
-5.90308e-07
1.08764e-06
-6.27726e-07
1.0861e-06
-6.64124e-07
1.08563e-06
-6.99319e-07
1.0862e-06
-7.33092e-07
1.08779e-06
-7.65178e-07
1.09035e-06
-7.95266e-07
1.09384e-06
-8.22994e-07
1.09819e-06
-8.47941e-07
1.10333e-06
-8.69632e-07
1.10918e-06
-8.87531e-07
1.1156e-06
-9.01048e-07
1.12248e-06
-9.09544e-07
1.12964e-06
-9.12346e-07
1.13688e-06
-9.08767e-07
1.14398e-06
-8.9813e-07
1.15066e-06
-8.79812e-07
1.15663e-06
-8.53287e-07
1.16155e-06
-8.18182e-07
1.16507e-06
-7.74336e-07
1.16682e-06
-7.21863e-07
1.16645e-06
-6.61205e-07
1.16363e-06
-5.93177e-07
1.15804e-06
-5.18985e-07
1.14947e-06
-4.4022e-07
1.13778e-06
-5.58198e-08
6.63113e-07
2.06866e-09
8.21136e-08
-4.24403e-08
1.26653e-06
-8.4154e-08
1.24595e-06
-1.25171e-07
1.22733e-06
-1.65515e-07
1.21052e-06
-2.05204e-07
1.19539e-06
-2.44243e-07
1.18183e-06
-2.82633e-07
1.16974e-06
-3.20361e-07
1.15905e-06
-3.57402e-07
1.14967e-06
-3.93719e-07
1.14154e-06
-4.29258e-07
1.1346e-06
-4.63951e-07
1.12879e-06
-4.97711e-07
1.12406e-06
-5.30429e-07
1.12036e-06
-5.61979e-07
1.11765e-06
-5.92204e-07
1.11585e-06
-6.20928e-07
1.11493e-06
-6.47942e-07
1.11481e-06
-6.7301e-07
1.11542e-06
-6.95866e-07
1.1167e-06
-7.16213e-07
1.11854e-06
-7.33727e-07
1.12085e-06
-7.48056e-07
1.1235e-06
-7.58828e-07
1.12638e-06
-7.65658e-07
1.12931e-06
-7.6816e-07
1.13214e-06
-7.65956e-07
1.13468e-06
-7.58702e-07
1.13673e-06
-7.46101e-07
1.13806e-06
-7.27934e-07
1.13846e-06
-7.04078e-07
1.13769e-06
-6.7454e-07
1.13553e-06
-6.39476e-07
1.13176e-06
-5.99209e-07
1.12619e-06
-5.5424e-07
1.11866e-06
-5.05249e-07
1.10905e-06
-4.53079e-07
1.0973e-06
-3.987e-07
1.08341e-06
-4.69333e-08
5.97365e-07
1.67605e-09
6.99529e-08
-3.8732e-08
1.30526e-06
-7.67698e-08
1.28399e-06
-1.14112e-07
1.26467e-06
-1.50755e-07
1.24716e-06
-1.86689e-07
1.23132e-06
-2.21898e-07
1.21704e-06
-2.56359e-07
1.2042e-06
-2.90039e-07
1.19273e-06
-3.22897e-07
1.18252e-06
-3.54881e-07
1.17352e-06
-3.85924e-07
1.16564e-06
-4.1595e-07
1.15881e-06
-4.44867e-07
1.15298e-06
-4.72569e-07
1.14807e-06
-4.98935e-07
1.14401e-06
-5.23826e-07
1.14074e-06
-5.47089e-07
1.13819e-06
-5.68553e-07
1.13627e-06
-5.88032e-07
1.1349e-06
-6.05327e-07
1.13399e-06
-6.20226e-07
1.13344e-06
-6.32509e-07
1.13313e-06
-6.4195e-07
1.13295e-06
-6.48327e-07
1.13275e-06
-6.51426e-07
1.13241e-06
-6.51052e-07
1.13177e-06
-6.47037e-07
1.13067e-06
-6.39252e-07
1.12894e-06
-6.27621e-07
1.12643e-06
-6.12129e-07
1.12297e-06
-5.92836e-07
1.1184e-06
-5.69884e-07
1.11258e-06
-5.43501e-07
1.10537e-06
-5.14007e-07
1.09669e-06
-4.81803e-07
1.08645e-06
-4.47365e-07
1.07461e-06
-4.11224e-07
1.06116e-06
-3.73933e-07
1.04612e-06
-4.03695e-08
5.44946e-07
1.45976e-09
6.01694e-08
-3.50492e-08
1.34031e-06
-6.94414e-08
1.31838e-06
-1.0315e-07
1.29838e-06
-1.36146e-07
1.28016e-06
-1.68401e-07
1.26357e-06
-1.9988e-07
1.24851e-06
-2.30543e-07
1.23487e-06
-2.60346e-07
1.22253e-06
-2.89236e-07
1.21141e-06
-3.17153e-07
1.20144e-06
-3.44028e-07
1.19251e-06
-3.69785e-07
1.18457e-06
-3.94339e-07
1.17753e-06
-4.17595e-07
1.17132e-06
-4.39449e-07
1.16587e-06
-4.59791e-07
1.16108e-06
-4.78503e-07
1.1569e-06
-4.95459e-07
1.15323e-06
-5.10532e-07
1.14997e-06
-5.23591e-07
1.14705e-06
-5.34505e-07
1.14435e-06
-5.43151e-07
1.14178e-06
-5.49411e-07
1.13921e-06
-5.53182e-07
1.13652e-06
-5.5438e-07
1.13361e-06
-5.52944e-07
1.13033e-06
-5.48842e-07
1.12656e-06
-5.42079e-07
1.12218e-06
-5.32699e-07
1.11705e-06
-5.20787e-07
1.11106e-06
-5.06477e-07
1.10409e-06
-4.89947e-07
1.09604e-06
-4.71419e-07
1.08685e-06
-4.51157e-07
1.07643e-06
-4.29457e-07
1.06475e-06
-4.06647e-07
1.0518e-06
-3.83076e-07
1.03759e-06
-3.59104e-07
1.02216e-06
-3.4897e-08
5.00336e-07
1.33891e-09
5.17423e-08
-3.14511e-08
1.37176e-06
-6.22864e-08
1.34921e-06
-9.24582e-08
1.32855e-06
-1.2192e-07
1.30962e-06
-1.50627e-07
1.29228e-06
-1.78529e-07
1.27642e-06
-2.05578e-07
1.26191e-06
-2.31719e-07
1.24867e-06
-2.56896e-07
1.23659e-06
-2.81045e-07
1.22559e-06
-3.04102e-07
1.21557e-06
-3.25995e-07
1.20646e-06
-3.46651e-07
1.19819e-06
-3.65991e-07
1.19066e-06
-3.83935e-07
1.18381e-06
-4.00401e-07
1.17755e-06
-4.15309e-07
1.17181e-06
-4.28579e-07
1.1665e-06
-4.40135e-07
1.16153e-06
-4.49908e-07
1.15682e-06
-4.5784e-07
1.15229e-06
-4.63884e-07
1.14782e-06
-4.68008e-07
1.14333e-06
-4.702e-07
1.13872e-06
-4.7047e-07
1.13388e-06
-4.6885e-07
1.12871e-06
-4.65401e-07
1.12312e-06
-4.60213e-07
1.11699e-06
-4.534e-07
1.11024e-06
-4.45107e-07
1.10276e-06
-4.35501e-07
1.09448e-06
-4.24767e-07
1.08531e-06
-4.13107e-07
1.07519e-06
-4.00724e-07
1.06405e-06
-3.87817e-07
1.05185e-06
-3.74572e-07
1.03856e-06
-3.61146e-07
1.02416e-06
-3.47653e-07
1.00868e-06
-2.99466e-08
4.59558e-07
1.26753e-09
4.41139e-08
-2.79851e-08
1.39975e-06
-5.53985e-08
1.37663e-06
-8.21764e-08
1.35533e-06
-1.08259e-07
1.3357e-06
-1.33587e-07
1.31761e-06
-1.58105e-07
1.30093e-06
-1.81755e-07
1.28556e-06
-2.04478e-07
1.27139e-06
-2.26215e-07
1.25833e-06
-2.46907e-07
1.24628e-06
-2.6649e-07
1.23515e-06
-2.84904e-07
1.22488e-06
-3.02085e-07
1.21537e-06
-3.17974e-07
1.20655e-06
-3.32512e-07
1.19835e-06
-3.45643e-07
1.19068e-06
-3.57319e-07
1.18348e-06
-3.67498e-07
1.17667e-06
-3.76148e-07
1.17018e-06
-3.83251e-07
1.16393e-06
-3.888e-07
1.15783e-06
-3.9281e-07
1.15183e-06
-3.95311e-07
1.14583e-06
-3.96359e-07
1.13976e-06
-3.96031e-07
1.13355e-06
-3.94429e-07
1.12711e-06
-3.91681e-07
1.12037e-06
-3.87939e-07
1.11325e-06
-3.83377e-07
1.10567e-06
-3.78191e-07
1.09758e-06
-3.72587e-07
1.08888e-06
-3.66783e-07
1.07951e-06
-3.60995e-07
1.0694e-06
-3.55424e-07
1.05848e-06
-3.50243e-07
1.04667e-06
-3.45569e-07
1.03388e-06
-3.41436e-07
1.02003e-06
-3.37723e-07
1.00498e-06
-2.52927e-08
4.23319e-07
1.21081e-09
3.70301e-08
-2.46875e-08
1.42443e-06
-4.88493e-08
1.40079e-06
-7.24095e-08
1.37889e-06
-9.52981e-08
1.35859e-06
-1.17449e-07
1.33976e-06
-1.38798e-07
1.32228e-06
-1.59283e-07
1.30605e-06
-1.78845e-07
1.29096e-06
-1.97423e-07
1.27691e-06
-2.1496e-07
1.26381e-06
-2.31399e-07
1.25159e-06
-2.46686e-07
1.24016e-06
-2.60769e-07
1.22945e-06
-2.73601e-07
1.21938e-06
-2.85141e-07
1.20989e-06
-2.95353e-07
1.2009e-06
-3.04213e-07
1.19234e-06
-3.11706e-07
1.18417e-06
-3.17831e-07
1.17631e-06
-3.22601e-07
1.1687e-06
-3.2605e-07
1.16128e-06
-3.28229e-07
1.15401e-06
-3.29214e-07
1.14682e-06
-3.29103e-07
1.13965e-06
-3.28023e-07
1.13247e-06
-3.26125e-07
1.12521e-06
-3.23587e-07
1.11783e-06
-3.20617e-07
1.11028e-06
-3.17444e-07
1.1025e-06
-3.14324e-07
1.09446e-06
-3.11532e-07
1.08608e-06
-3.09359e-07
1.07734e-06
-3.08113e-07
1.06815e-06
-3.08111e-07
1.05847e-06
-3.0968e-07
1.04823e-06
-3.13156e-07
1.03736e-06
-3.18881e-07
1.02576e-06
-3.27166e-07
1.01329e-06
-2.09542e-08
3.93193e-07
1.14086e-09
3.04782e-08
-2.15848e-08
1.44602e-06
-4.26903e-08
1.4219e-06
-6.32327e-08
1.39943e-06
-8.31352e-08
1.37849e-06
-1.02326e-07
1.35895e-06
-1.20737e-07
1.34069e-06
-1.38304e-07
1.32362e-06
-1.54966e-07
1.30762e-06
-1.70664e-07
1.2926e-06
-1.85341e-07
1.27849e-06
-1.98945e-07
1.2652e-06
-2.11427e-07
1.25265e-06
-2.22743e-07
1.24077e-06
-2.32854e-07
1.22949e-06
-2.41729e-07
1.21876e-06
-2.49344e-07
1.20851e-06
-2.55688e-07
1.19869e-06
-2.6076e-07
1.18924e-06
-2.64574e-07
1.18012e-06
-2.67161e-07
1.17128e-06
-2.68569e-07
1.16269e-06
-2.68872e-07
1.15431e-06
-2.68163e-07
1.14611e-06
-2.66563e-07
1.13805e-06
-2.64223e-07
1.13013e-06
-2.61322e-07
1.12231e-06
-2.58072e-07
1.11458e-06
-2.54716e-07
1.10692e-06
-2.51531e-07
1.09932e-06
-2.48822e-07
1.09175e-06
-2.46927e-07
1.08419e-06
-2.4621e-07
1.07662e-06
-2.47066e-07
1.06901e-06
-2.4992e-07
1.06133e-06
-2.55244e-07
1.05356e-06
-2.63577e-07
1.04569e-06
-2.75579e-07
1.03776e-06
-2.92056e-07
1.02981e-06
-1.72008e-08
3.69364e-07
1.03421e-09
2.46251e-08
-1.86943e-08
1.46471e-06
-3.69556e-08
1.44016e-06
-5.46955e-08
1.41717e-06
-7.1833e-08
1.39563e-06
-8.82931e-08
1.37541e-06
-1.04006e-07
1.35641e-06
-1.18905e-07
1.33852e-06
-1.3293e-07
1.32164e-06
-1.46021e-07
1.30569e-06
-1.58124e-07
1.29059e-06
-1.69187e-07
1.27626e-06
-1.79165e-07
1.26262e-06
-1.88016e-07
1.24962e-06
-1.95705e-07
1.23718e-06
-2.02202e-07
1.22526e-06