/*--------------------------------*- C++ -*----------------------------------*\
  =========                 |
  \\      /  F ield         | OpenFOAM: The Open Source CFD Toolbox
   \\    /   O peration     | Website:  https://openfoam.org
    \\  /    A nd           | Version:  7
     \\/     M anipulation  |
\*---------------------------------------------------------------------------*/
FoamFile
{
    version     2.0;
    format      ascii;
    class       surfaceScalarField;
    location    "5000";
    object      phib;
}
// * * * * * * * * * * * * * * * * * * * * * * * * * * * * * * * * * * * * * //

dimensions      [0 3 -1 0 0 0 0];

internalField   nonuniform List<scalar> 
6280
(
-8.20576e-22
-1.71015e-16
-1.6228e-21
-1.68002e-16
-2.40335e-21
-1.65043e-16
-3.15913e-21
-1.62135e-16
-3.8872e-21
-1.59279e-16
-4.5847e-21
-1.56473e-16
-5.24884e-21
-1.53717e-16
-5.87682e-21
-1.51009e-16
-6.46584e-21
-1.48349e-16
-7.01305e-21
-1.45736e-16
-7.51558e-21
-1.43168e-16
-7.97052e-21
-1.40646e-16
-8.3749e-21
-1.38169e-16
-8.72575e-21
-1.35735e-16
-9.0201e-21
-1.33344e-16
-9.255e-21
-1.30995e-16
-9.42757e-21
-1.28687e-16
-9.53504e-21
-1.2642e-16
-9.57482e-21
-1.24193e-16
-9.54456e-21
-1.22006e-16
-9.44219e-21
-1.19857e-16
-9.26607e-21
-1.17745e-16
-9.01502e-21
-1.15671e-16
-8.68845e-21
-1.13633e-16
-8.28644e-21
-1.11632e-16
-7.80984e-21
-1.09665e-16
-7.26035e-21
-1.07734e-16
-6.6406e-21
-1.05836e-16
-5.95422e-21
-1.03972e-16
-5.20582e-21
-1.0214e-16
-4.40103e-21
-1.00341e-16
-3.54645e-21
-9.85733e-17
-2.64951e-21
-9.68369e-17
-1.71841e-21
-9.5131e-17
-7.61918e-22
-9.34552e-17
2.10856e-22
-9.1809e-17
1.19065e-21
-9.01917e-17
2.16833e-21
-8.86029e-17
3.13508e-21
-8.70421e-17
-8.55087e-17
4.08268e-21
-8.28926e-22
-1.71014e-16
-1.63954e-21
-1.68001e-16
-2.42869e-21
-1.65042e-16
-3.19344e-21
-1.62134e-16
-3.93099e-21
-1.59278e-16
-4.63863e-21
-1.56473e-16
-5.31369e-21
-1.53716e-16
-5.95347e-21
-1.51008e-16
-6.55529e-21
-1.48348e-16
-7.1164e-21
-1.45735e-16
-7.634e-21
-1.43168e-16
-8.10522e-21
-1.40646e-16
-8.52716e-21
-1.38168e-16
-8.89685e-21
-1.35734e-16
-9.21128e-21
-1.33343e-16
-9.46743e-21
-1.30995e-16
-9.6623e-21
-1.28687e-16
-9.79293e-21
-1.2642e-16
-9.85647e-21
-1.24193e-16
-9.85021e-21
-1.22006e-16
-9.77166e-21
-1.19857e-16
-9.61863e-21
-1.17745e-16
-9.38931e-21
-1.15671e-16
-9.08235e-21
-1.13634e-16
-8.69701e-21
-1.11632e-16
-8.23322e-21
-1.09666e-16
-7.69177e-21
-1.07734e-16
-7.07433e-21
-1.05836e-16
-6.38364e-21
-1.03972e-16
-5.62355e-21
-1.02141e-16
-4.7991e-21
-1.00342e-16
-3.91653e-21
-9.85741e-17
-2.98325e-21
-9.68378e-17
-2.00777e-21
-9.5132e-17
-9.99529e-22
-9.34562e-17
3.12934e-23
-9.181e-17
1.07408e-21
-9.01927e-17
2.11806e-21
-8.86039e-17
3.15267e-21
-8.70431e-17
-8.55097e-17
4.16789e-21
-8.45225e-22
-1.71013e-16
-1.67222e-21
-1.68001e-16
-2.47817e-21
-1.65041e-16
-3.26045e-21
-1.62134e-16
-4.01656e-21
-1.59278e-16
-4.74405e-21
-1.56472e-16
-5.4405e-21
-1.53715e-16
-6.10346e-21
-1.51008e-16
-6.73045e-21
-1.48348e-16
-7.31892e-21
-1.45734e-16
-7.86625e-21
-1.43167e-16
-8.36972e-21
-1.40645e-16
-8.8265e-21
-1.38168e-16
-9.23369e-21
-1.35734e-16
-9.58825e-21
-1.33343e-16
-9.8871e-21
-1.30994e-16
-1.0127e-20
-1.28687e-16
-1.03048e-20
-1.2642e-16
-1.0417e-20
-1.24193e-16
-1.04605e-20
-1.22006e-16
-1.0432e-20
-1.19857e-16
-1.03281e-20
-1.17745e-16
-1.0146e-20
-1.15671e-16
-9.88274e-21
-1.13634e-16
-9.53598e-21
-1.11633e-16
-9.10375e-21
-1.09666e-16
-8.58476e-21
-1.07735e-16
-7.97855e-21
-1.05837e-16
-7.28574e-21
-1.03973e-16
-6.50816e-21
-1.02142e-16
-5.64916e-21
-1.00342e-16
-4.71374e-21
-9.85751e-17
-3.70872e-21
-9.68388e-17
-2.6428e-21
-9.51331e-17
-1.52653e-21
-9.34574e-17
-3.72126e-22
-9.18112e-17
8.06811e-22
-9.01939e-17
1.99579e-21
-8.86051e-17
3.17999e-21
-8.70443e-17
-8.55109e-17
4.34491e-21
-8.68686e-22
-1.71012e-16
-1.71926e-21
-1.68e-16
-2.54942e-21
-1.6504e-16
-3.357e-21
-1.62133e-16
-4.1399e-21
-1.59277e-16
-4.8961e-21
-1.56471e-16
-5.62355e-21
-1.53715e-16
-6.32017e-21
-1.51007e-16
-6.9838e-21
-1.48347e-16
-7.61223e-21
-1.45734e-16
-8.2031e-21
-1.43167e-16
-8.75395e-21
-1.40645e-16
-9.26219e-21
-1.38167e-16
-9.72503e-21
-1.35734e-16
-1.01396e-20
-1.33343e-16
-1.05026e-20
-1.30994e-16
-1.08109e-20
-1.28687e-16
-1.1061e-20
-1.2642e-16
-1.1249e-20
-1.24193e-16
-1.13709e-20
-1.22006e-16
-1.14226e-20
-1.19857e-16
-1.13997e-20
-1.17745e-16
-1.12973e-20
-1.15672e-16
-1.11109e-20
-1.13634e-16
-1.08353e-20
-1.11633e-16
-1.04658e-20
-1.09667e-16
-9.99778e-21
-1.07735e-16
-9.42689e-21
-1.05838e-16
-8.74971e-21
-1.03974e-16
-7.96393e-21
-1.02142e-16
-7.06884e-21
-1.00343e-16
-6.06591e-21
-9.85761e-17
-4.95929e-21
-9.68399e-17
-3.75634e-21
-9.51343e-17
-2.46802e-21
-9.34587e-17
-1.10904e-21
-9.18125e-17
3.02268e-22
-9.01953e-17
1.74453e-21
-8.86066e-17
3.19429e-21
-8.70457e-17
-8.55123e-17
4.6274e-21
-8.98155e-22
-1.71011e-16
-1.77837e-21
-1.67999e-16
-2.63899e-21
-1.65039e-16
-3.47841e-21
-1.62132e-16
-4.29514e-21
-1.59276e-16
-5.08764e-21
-1.5647e-16
-5.85438e-21
-1.53714e-16
-6.59376e-21
-1.51006e-16
-7.3041e-21
-1.48346e-16
-7.98363e-21
-1.45733e-16
-8.63043e-21
-1.43166e-16
-9.24244e-21
-1.40644e-16
-9.81742e-21
-1.38167e-16
-1.03529e-20
-1.35733e-16
-1.08464e-20
-1.33342e-16
-1.12947e-20
-1.30993e-16
-1.16948e-20
-1.28686e-16
-1.20431e-20
-1.26419e-16
-1.23356e-20
-1.24193e-16
-1.25679e-20
-1.22005e-16
-1.2735e-20
-1.19856e-16
-1.28315e-20
-1.17745e-16
-1.28511e-20
-1.15672e-16
-1.27869e-20
-1.13634e-16
-1.26312e-20
-1.11633e-16
-1.23754e-20
-1.09667e-16
-1.20102e-20
-1.07735e-16
-1.15259e-20
-1.05838e-16
-1.09122e-20
-1.03974e-16
-1.01591e-20
-1.02143e-16
-9.25762e-21
-1.00344e-16
-8.20047e-21
-9.85771e-17
-6.98358e-21
-9.68411e-17
-5.60752e-21
-9.51356e-17
-4.07908e-21
-9.34602e-17
-2.41281e-21
-9.18142e-17
-6.32084e-22
-9.01971e-17
1.23069e-21
-8.86084e-17
3.13516e-21
-8.70476e-17
-8.55142e-17
5.03575e-21
-9.32153e-22
-1.7101e-16
-1.84659e-21
-1.67998e-16
-2.7424e-21
-1.65038e-16
-3.6187e-21
-1.62131e-16
-4.47465e-21
-1.59275e-16
-5.30937e-21
-1.56469e-16
-6.12193e-21
-1.53713e-16
-6.91134e-21
-1.51005e-16
-7.67651e-21
-1.48345e-16
-8.41626e-21
-1.45732e-16
-9.12926e-21
-1.43165e-16
-9.81402e-21
-1.40643e-16
-1.04689e-20
-1.38166e-16
-1.1092e-20
-1.35732e-16
-1.16812e-20
-1.33342e-16
-1.22342e-20
-1.30993e-16
-1.27481e-20
-1.28686e-16
-1.32198e-20
-1.26419e-16
-1.36458e-20
-1.24192e-16
-1.40217e-20
-1.22005e-16
-1.43427e-20
-1.19856e-16
-1.4603e-20
-1.17745e-16
-1.47957e-20
-1.15671e-16
-1.49126e-20
-1.13634e-16
-1.49439e-20
-1.11633e-16
-1.48779e-20
-1.09667e-16
-1.47008e-20
-1.07736e-16
-1.43961e-20
-1.05838e-16
-1.39448e-20
-1.03975e-16
-1.33253e-20
-1.02144e-16
-1.25136e-20
-1.00345e-16
-1.14849e-20
-9.85782e-17
-1.02144e-20
-9.68424e-17
-8.68126e-21
-9.51372e-17
-6.87184e-21
-9.3462e-17
-4.78537e-21
-9.18163e-17
-2.43983e-21
-9.01994e-17
1.22284e-22
-8.8611e-17
2.8307e-21
-8.70503e-17
-8.5517e-17
5.58932e-21
-9.68926e-22
-1.71009e-16
-1.9204e-21
-1.67997e-16
-2.85436e-21
-1.65038e-16
-3.77072e-21
-1.6213e-16
-4.66937e-21
-1.59274e-16
-5.55017e-21
-1.56469e-16
-6.4129e-21
-1.53712e-16
-7.25728e-21
-1.51005e-16
-8.08292e-21
-1.48345e-16
-8.88935e-21
-1.45732e-16
-9.67599e-21
-1.43165e-16
-1.04421e-20
-1.40643e-16
-1.11868e-20
-1.38165e-16
-1.19089e-20
-1.35732e-16
-1.26074e-20
-1.33341e-16
-1.32805e-20
-1.30992e-16
-1.39266e-20
-1.28685e-16
-1.45434e-20
-1.26418e-16
-1.51285e-20
-1.24192e-16
-1.56788e-20
-1.22004e-16
-1.61906e-20
-1.19856e-16
-1.66593e-20
-1.17745e-16
-1.70793e-20
-1.15671e-16
-1.74435e-20
-1.13634e-16
-1.77428e-20
-1.11633e-16
-1.79656e-20
-1.09667e-16
-1.80966e-20
-1.07736e-16
-1.81161e-20
-1.05838e-16
-1.79984e-20
-1.03975e-16
-1.77104e-20
-1.02144e-16
-1.72098e-20
-1.00346e-16
-1.6444e-20
-9.85789e-17
-1.53497e-20
-9.68435e-17
-1.38543e-20
-9.51387e-17
-1.18804e-20
-9.3464e-17
-9.35639e-21
-9.18188e-17
-6.23362e-21
-9.02026e-17
-2.51366e-21
-8.86147e-17
1.71662e-21
-8.70546e-17
-8.55215e-17
6.25052e-21
-1.00652e-21
-1.71008e-16
-1.99589e-21
-1.67996e-16
-2.96895e-21
-1.65037e-16
-3.92645e-21
-1.62129e-16
-4.86909e-21
-1.59273e-16
-5.79751e-21
-1.56468e-16
-6.71225e-21
-1.53711e-16
-7.61381e-21
-1.51004e-16
-8.5026e-21
-1.48344e-16
-9.37896e-21
-1.45731e-16
-1.02431e-20
-1.43164e-16
-1.10952e-20
-1.40642e-16
-1.19354e-20
-1.38165e-16
-1.27634e-20
-1.35731e-16
-1.35792e-20
-1.3334e-16
-1.43824e-20
-1.30991e-16
-1.51725e-20
-1.28684e-16
-1.59489e-20
-1.26418e-16
-1.67108e-20
-1.24191e-16
-1.74573e-20
-1.22004e-16
-1.8187e-20
-1.19855e-16
-1.88984e-20
-1.17744e-16
-1.95896e-20
-1.1567e-16
-2.02581e-20
-1.13633e-16
-2.09001e-20
-1.11632e-16
-2.15106e-20
-1.09666e-16
-2.20817e-20
-1.07735e-16
-2.26014e-20
-1.05838e-16
-2.30513e-20
-1.03974e-16
-2.34025e-20
-1.02144e-16
-2.36106e-20
-1.00345e-16
-2.36079e-20
-9.85789e-17
-2.32937e-20
-9.68438e-17
-2.25212e-20
-9.51394e-17
-2.10844e-20
-9.34654e-17
-1.87078e-20
-9.18212e-17
-1.50499e-20
-9.02062e-17
-9.74468e-21
-8.862e-17
-2.52407e-21
-8.70618e-17
-8.55305e-17
6.48693e-21
-1.04287e-21
-1.71007e-16
-2.06892e-21
-1.67995e-16
-3.07989e-21
-1.65036e-16
-4.07739e-21
-1.62128e-16
-5.06294e-21
-1.59272e-16
-6.03797e-21
-1.56467e-16
-7.00382e-21
-1.5371e-16
-7.9618e-21
-1.51003e-16
-8.91312e-21
-1.48343e-16
-9.85899e-21
-1.4573e-16
-1.08005e-20
-1.43163e-16
-1.17389e-20
-1.40641e-16
-1.2675e-20
-1.38164e-16
-1.361e-20
-1.3573e-16
-1.45448e-20
-1.33339e-16
-1.54803e-20
-1.3099e-16
-1.64176e-20
-1.28683e-16
-1.73576e-20
-1.26417e-16
-1.83016e-20
-1.2419e-16
-1.92508e-20
-1.22003e-16
-2.02069e-20
-1.19854e-16
-2.11722e-20
-1.17743e-16
-2.21496e-20
-1.15669e-16
-2.31435e-20
-1.13632e-16
-2.41593e-20
-1.11631e-16
-2.52046e-20
-1.09665e-16
-2.62895e-20
-1.07734e-16
-2.74264e-20
-1.05837e-16
-2.86303e-20
-1.03973e-16
-2.99169e-20
-1.02142e-16
-3.12996e-20
-1.00344e-16
-3.27808e-20
-9.85775e-17
-3.43358e-20
-9.68422e-17
-3.58806e-20
-9.51379e-17
-3.72113e-20
-9.34641e-17
-3.78918e-20
-9.18205e-17
-3.70492e-20
-9.02071e-17
-3.30052e-20
-8.86241e-17
-2.26199e-20
-8.70722e-17
-8.62059e-17
-1.34165e-22
-1.07588e-21
-1.71006e-16
-2.13529e-21
-1.67994e-16
-3.18084e-21
-1.65034e-16
-4.21495e-21
-1.62127e-16
-5.23992e-21
-1.59271e-16
-6.25796e-21
-1.56466e-16
-7.27118e-21
-1.53709e-16
-8.28167e-21
-1.51002e-16
-9.29148e-21
-1.48342e-16
-1.03026e-20
-1.45729e-16
-1.13171e-20
-1.43162e-16
-1.23371e-20
-1.4064e-16
-1.33644e-20
-1.38163e-16
-1.44012e-20
-1.35729e-16
-1.54496e-20
-1.33338e-16
-1.65117e-20
-1.30989e-16
-1.75898e-20
-1.28682e-16
-1.86862e-20
-1.26416e-16
-1.98035e-20
-1.24189e-16
-2.09447e-20
-1.22002e-16
-2.21133e-20
-1.19853e-16
-2.3314e-20
-1.17742e-16
-2.45526e-20
-1.15668e-16
-2.58373e-20
-1.13631e-16
-2.71798e-20
-1.1163e-16
-2.85969e-20
-1.09664e-16
-3.01132e-20
-1.07732e-16
-3.1765e-20
-1.05835e-16
-3.36065e-20
-1.03971e-16
-3.57187e-20
-1.0214e-16
-3.82242e-20
-1.00341e-16
-4.13096e-20
-9.85744e-17
-4.52629e-20
-9.68383e-17
-5.05335e-20
-9.51326e-17
-5.78334e-20
-9.34568e-17
-6.83065e-20
-9.181e-17
-8.38162e-20
-9.01916e-17
-1.07435e-19
-8.86004e-17
-1.45383e-19
-8.70353e-17
-9.0026e-14
-3.19472e-09
-1.10357e-21
-1.71005e-16
-2.19101e-21
-1.67993e-16
-3.26573e-21
-1.65033e-16
-4.33087e-21
-1.62126e-16
-5.38945e-21
-1.5927e-16
-6.44437e-21
-1.56465e-16
-7.49847e-21
-1.53708e-16
-8.55453e-21
-1.51001e-16
-9.61537e-21
-1.48341e-16
-1.06838e-20
-1.45728e-16
-1.17626e-20
-1.43161e-16
-1.28548e-20
-1.40639e-16
-1.39633e-20
-1.38161e-16
-1.5091e-20
-1.35728e-16
-1.62411e-20
-1.33337e-16
-1.74166e-20
-1.30988e-16
-1.86209e-20
-1.28681e-16
-1.9857e-20
-1.26414e-16
-2.11284e-20
-1.24188e-16
-2.24384e-20
-1.22e-16
-2.37906e-20
-1.19851e-16
-2.51888e-20
-1.1774e-16
-2.66372e-20
-1.15667e-16
-2.8141e-20
-1.13629e-16
-2.97066e-20
-1.11628e-16
-3.13426e-20
-1.09662e-16
-3.30613e-20
-1.07731e-16
-3.48803e-20
-1.05833e-16
-3.68258e-20
-1.03969e-16
-3.89359e-20
-1.02138e-16
-4.12658e-20
-1.00339e-16
-4.38933e-20
-9.85717e-17
-4.69245e-20
-9.68353e-17
-5.04969e-20
-9.51291e-17
-5.47736e-20
-9.34525e-17
-5.99187e-20
-9.18049e-17
-6.60311e-20
-9.01854e-17
-7.29958e-20
-8.85935e-17
-8.60379e-17
-8.70282e-17
-9.90081e-12
-8.07589e-07
-1.12413e-21
-1.71004e-16
-2.23249e-21
-1.67992e-16
-3.32909e-21
-1.65032e-16
-4.41772e-21
-1.62125e-16
-5.50198e-21
-1.59269e-16
-6.58536e-21
-1.56463e-16
-7.67129e-21
-1.53707e-16
-8.76319e-21
-1.51e-16
-9.86449e-21
-1.4834e-16
-1.09787e-20
-1.45727e-16
-1.21093e-20
-1.43159e-16
-1.32601e-20
-1.40638e-16
-1.44348e-20
-1.3816e-16
-1.56372e-20
-1.35727e-16
-1.68714e-20
-1.33336e-16
-1.81413e-20
-1.30987e-16
-1.9451e-20
-1.2868e-16
-2.08045e-20
-1.26413e-16
-2.22055e-20
-1.24186e-16
-2.36575e-20
-1.21999e-16
-2.51634e-20
-1.1985e-16
-2.67252e-20
-1.17739e-16
-2.83434e-20
-1.15665e-16
-3.00166e-20
-1.13628e-16
-3.17407e-20
-1.11626e-16
-3.35076e-20
-1.0966e-16
-3.53041e-20
-1.07729e-16
-3.71092e-20
-1.05831e-16
-3.88927e-20
-1.03968e-16
-4.06104e-20
-1.02136e-16
-4.22002e-20
-1.00338e-16
-4.35754e-20
-9.85704e-17
-4.46147e-20
-9.68342e-17
-4.51497e-20
-9.51285e-17
-4.49446e-20
-9.34527e-17
-4.36685e-20
-9.18061e-17
-4.08536e-20
-9.01883e-17
-3.58376e-20
-8.85985e-17
-3.44109e-15
-8.70363e-17
-1.91658e-11
-3.48778e-07
-1.13609e-21
-1.71003e-16
-2.2567e-21
-1.67991e-16
-3.36636e-21
-1.65031e-16
-4.46928e-21
-1.62124e-16
-5.56951e-21
-1.59268e-16
-6.67099e-21
-1.56462e-16
-7.77758e-21
-1.53706e-16
-8.89317e-21
-1.50998e-16
-1.00217e-20
-1.48339e-16
-1.11671e-20
-1.45725e-16
-1.23337e-20
-1.43158e-16
-1.35256e-20
-1.40636e-16
-1.47473e-20
-1.38159e-16
-1.60036e-20
-1.35725e-16
-1.72992e-20
-1.33334e-16
-1.8639e-20
-1.30986e-16
-2.00283e-20
-1.28678e-16
-2.1472e-20
-1.26412e-16
-2.29751e-20
-1.24185e-16
-2.45422e-20
-1.21997e-16
-2.61771e-20
-1.19848e-16
-2.78823e-20
-1.17737e-16
-2.96583e-20
-1.15663e-16
-3.15023e-20
-1.13626e-16
-3.34067e-20
-1.11624e-16
-3.53571e-20
-1.09658e-16
-3.73286e-20
-1.07727e-16
-3.92821e-20
-1.0583e-16
-4.11583e-20
-1.03966e-16
-4.28707e-20
-1.02135e-16
-4.42965e-20
-1.00336e-16
-4.5266e-20
-9.85694e-17
-4.55518e-20
-9.68339e-17
-4.48593e-20
-9.51292e-17
-4.28239e-20
-9.34547e-17
-3.90218e-20
-9.18099e-17
-3.30083e-20
-9.01943e-17
-2.44032e-20
-8.86071e-17
-3.18284e-15
-8.70477e-17
-1.8644e-11
-4.26173e-09
-1.13832e-21
-1.71002e-16
-2.26144e-21
-1.67989e-16
-3.37415e-21
-1.6503e-16
-4.48094e-21
-1.62123e-16
-5.58613e-21
-1.59267e-16
-6.69388e-21
-1.56461e-16
-7.80835e-21
-1.53705e-16
-8.93367e-21
-1.50997e-16
-1.00741e-20
-1.48337e-16
-1.12339e-20
-1.45724e-16
-1.24176e-20
-1.43157e-16
-1.363e-20
-1.40635e-16
-1.48761e-20
-1.38158e-16
-1.6161e-20
-1.35724e-16
-1.74904e-20
-1.33333e-16
-1.88703e-20
-1.30984e-16
-2.0307e-20
-1.28677e-16
-2.1807e-20
-1.2641e-16
-2.33775e-20
-1.24183e-16
-2.50256e-20
-1.21996e-16
-2.67587e-20
-1.19846e-16
-2.8584e-20
-1.17735e-16
-3.05082e-20
-1.15661e-16
-3.25369e-20
-1.13624e-16
-3.46734e-20
-1.11622e-16
-3.69175e-20
-1.09656e-16
-3.92631e-20
-1.07725e-16
-4.16945e-20
-1.05827e-16
-4.41815e-20
-1.03963e-16
-4.66711e-20
-1.02132e-16
-4.90755e-20
-1.00334e-16
-5.12546e-20
-9.85672e-17
-5.29902e-20
-9.68322e-17
-5.3949e-20
-9.51283e-17
-5.3632e-20
-9.34551e-17
-5.13085e-20
-9.18123e-17
-4.59362e-20
-9.01996e-17
-3.60834e-20
-8.86169e-17
-4.71395e-15
-8.7064e-17
-1.80889e-10
5.64895e-16
-1.13018e-21
-1.71001e-16
-2.24537e-21
-1.67988e-16
-3.35046e-21
-1.65029e-16
-4.44999e-21
-1.62122e-16
-5.54832e-21
-1.59266e-16
-6.64969e-21
-1.5646e-16
-7.75829e-21
-1.53704e-16
-8.8783e-21
-1.50996e-16
-1.0014e-20
-1.48336e-16
-1.11698e-20
-1.45723e-16
-1.23503e-20
-1.43156e-16
-1.35604e-20
-1.40634e-16
-1.48051e-20
-1.38157e-16
-1.60902e-20
-1.35723e-16
-1.74215e-20
-1.33332e-16
-1.88057e-20
-1.30983e-16
-2.025e-20
-1.28675e-16
-2.17625e-20
-1.26409e-16
-2.3352e-20
-1.24182e-16
-2.5029e-20
-1.21994e-16
-2.6805e-20
-1.19845e-16
-2.86935e-20
-1.17733e-16
-3.07106e-20
-1.15659e-16
-3.2875e-20
-1.13622e-16
-3.521e-20
-1.1162e-16
-3.77436e-20
-1.09654e-16
-4.05111e-20
-1.07722e-16
-4.35566e-20
-1.05824e-16
-4.69361e-20
-1.0396e-16
-5.07195e-20
-1.02128e-16
-5.49924e-20
-1.00329e-16
-5.98552e-20
-9.85624e-17
-6.54137e-20
-9.68266e-17
-7.17524e-20
-9.51219e-17
-7.88726e-20
-9.34479e-17
-8.65571e-20
-9.18046e-17
-9.40967e-20
-9.01921e-17
-9.9756e-20
-8.86113e-17
-2.45517e-13
-4.07808e-16
-5.38413e-06
4.84403e-15
-1.11147e-21
-1.71e-16
-2.20815e-21
-1.67987e-16
-3.29476e-21
-1.65028e-16
-4.37572e-21
-1.62121e-16
-5.45524e-21
-1.59265e-16
-6.53739e-21
-1.56459e-16
-7.62618e-21
-1.53703e-16
-8.72562e-21
-1.50995e-16
-9.83977e-21
-1.48335e-16
-1.09728e-20
-1.45722e-16
-1.21291e-20
-1.43155e-16
-1.33132e-20
-1.40633e-16
-1.45301e-20
-1.38155e-16
-1.5785e-20
-1.35721e-16
-1.70837e-20
-1.3333e-16
-1.84327e-20
-1.30982e-16
-1.98391e-20
-1.28674e-16
-2.13111e-20
-1.26407e-16
-2.28581e-20
-1.2418e-16
-2.44913e-20
-1.21992e-16
-2.6224e-20
-1.19843e-16
-2.80722e-20
-1.17732e-16
-3.00561e-20
-1.15657e-16
-3.22014e-20
-1.1362e-16
-3.4541e-20
-1.11618e-16
-3.7119e-20
-1.09651e-16
-3.99949e-20
-1.07719e-16
-4.32514e-20
-1.05821e-16
-4.70056e-20
-1.03956e-16
-5.14278e-20
-1.02124e-16
-5.67707e-20
-1.00324e-16
-6.34189e-20
-9.85557e-17
-7.19703e-20
-9.68181e-17
-8.3374e-20
-9.51105e-17
-9.91666e-20
-9.34321e-17
-1.21876e-19
-9.17819e-17
-1.55717e-19
-9.01583e-17
-9.75155e-19
-8.85594e-17
-2.85378e-07
-1.56942e-10
-2.65041e-05
5.17178e-08
-1.08252e-21
-1.70998e-16
-2.15041e-21
-1.67986e-16
-3.20804e-21
-1.65027e-16
-4.25952e-21
-1.6212e-16
-5.3087e-21
-1.59264e-16
-6.35932e-21
-1.56458e-16
-7.415e-21
-1.53702e-16
-8.47932e-21
-1.50994e-16
-9.5559e-21
-1.48334e-16
-1.06484e-20
-1.45721e-16
-1.17606e-20
-1.43154e-16
-1.28964e-20
-1.40632e-16
-1.40599e-20
-1.38154e-16
-1.52557e-20
-1.3572e-16
-1.64884e-20
-1.33329e-16
-1.77633e-20
-1.3098e-16
-1.90863e-20
-1.28673e-16
-2.04639e-20
-1.26406e-16
-2.19036e-20
-1.24179e-16
-2.34142e-20
-1.21991e-16
-2.50057e-20
-1.19841e-16
-2.66905e-20
-1.1773e-16
-2.84831e-20
-1.15655e-16
-3.04013e-20
-1.13618e-16
-3.24667e-20
-1.11616e-16
-3.4706e-20
-1.09649e-16
-3.71514e-20
-1.07716e-16
-3.98415e-20
-1.05818e-16
-4.28213e-20
-1.03953e-16
-4.61394e-20
-1.02121e-16
-4.98423e-20
-1.0032e-16
-5.39584e-20
-9.85516e-17
-5.84656e-20
-9.68136e-17
-6.32258e-20
-9.51058e-17
-6.78562e-20
-9.34275e-17
-7.14874e-20
-9.17782e-17
-7.23106e-20
-9.01574e-17
-1.39314e-13
-8.85697e-17
-1.41486e-06
-2.06965e-09
-3.02947e-05
7.36961e-07
-1.04407e-21
-1.70997e-16
-2.07366e-21
-1.67985e-16
-3.09265e-21
-1.65026e-16
-4.10464e-21
-1.62119e-16
-5.113e-21
-1.59263e-16
-6.12095e-21
-1.56457e-16
-7.13158e-21
-1.53701e-16
-8.14786e-21
-1.50993e-16
-9.17275e-21
-1.48333e-16
-1.02092e-20
-1.4572e-16
-1.126e-20
-1.43153e-16
-1.23283e-20
-1.40631e-16
-1.34169e-20
-1.38153e-16
-1.4529e-20
-1.35719e-16
-1.56677e-20
-1.33328e-16
-1.68365e-20
-1.30979e-16
-1.80387e-20
-1.28671e-16
-1.92781e-20
-1.26404e-16
-2.05585e-20
-1.24177e-16
-2.1884e-20
-1.21989e-16
-2.32589e-20
-1.1984e-16
-2.46876e-20
-1.17728e-16
-2.61742e-20
-1.15654e-16
-2.77227e-20
-1.13616e-16
-2.93357e-20
-1.11614e-16
-3.1014e-20
-1.09647e-16
-3.27544e-20
-1.07715e-16
-3.45472e-20
-1.05816e-16
-3.63717e-20
-1.03951e-16
-3.81899e-20
-1.02119e-16
-3.99372e-20
-1.00319e-16
-4.15086e-20
-9.855e-17
-4.27415e-20
-9.68123e-17
-4.33946e-20
-9.51051e-17
-4.31278e-20
-9.34278e-17
-4.14937e-20
-9.17799e-17
-3.79707e-20
-9.0161e-17
-1.0159e-12
-8.8588e-17
-8.48237e-07
-5.34741e-09
-3.23375e-05
6.27566e-07
-9.97249e-22
-1.70996e-16
-1.98019e-21
-1.67984e-16
-2.95207e-21
-1.65025e-16
-3.9159e-21
-1.62118e-16
-4.87446e-21
-1.59262e-16
-5.83033e-21
-1.56456e-16
-6.78594e-21
-1.537e-16
-7.74358e-21
-1.50992e-16
-8.70542e-21
-1.48332e-16
-9.6735e-21
-1.45719e-16
-1.06497e-20
-1.43152e-16
-1.1636e-20
-1.4063e-16
-1.26339e-20
-1.38152e-16
-1.3645e-20
-1.35718e-16
-1.46708e-20
-1.33327e-16
-1.57123e-20
-1.30978e-16
-1.67705e-20
-1.2867e-16
-1.78459e-20
-1.26403e-16
-1.89385e-20
-1.24176e-16
-2.00478e-20
-1.21988e-16
-2.11722e-20
-1.19839e-16
-2.23089e-20
-1.17727e-16
-2.34533e-20
-1.15653e-16
-2.45984e-20
-1.13615e-16
-2.57338e-20
-1.11613e-16
-2.68446e-20
-1.09646e-16
-2.79094e-20
-1.07714e-16
-2.88987e-20
-1.05815e-16
-2.97718e-20
-1.0395e-16
-3.04743e-20
-1.02118e-16
-3.0935e-20
-1.00318e-16
-3.10626e-20
-9.85499e-17
-3.07453e-20
-9.68127e-17
-2.98519e-20
-9.5106e-17
-2.82395e-20
-9.34294e-17
-2.57685e-20
-9.17823e-17
-2.23341e-20
-9.01644e-17
-1.58709e-12
-8.86107e-17
-5.15831e-07
-9.41163e-09
-3.3697e-05
5.31671e-07
-9.43452e-22
-1.70995e-16
-1.87281e-21
-1.67983e-16
-2.79065e-21
-1.65024e-16
-3.69929e-21
-1.62117e-16
-4.60086e-21
-1.59261e-16
-5.49728e-21
-1.56455e-16
-6.39029e-21
-1.53699e-16
-7.28144e-21
-1.50991e-16
-8.1721e-21
-1.48331e-16
-9.06343e-21
-1.45718e-16
-9.95639e-21
-1.43151e-16
-1.08517e-20
-1.40629e-16
-1.17498e-20
-1.38151e-16
-1.26509e-20
-1.35717e-16
-1.35546e-20
-1.33326e-16
-1.44603e-20
-1.30977e-16
-1.53667e-20
-1.28669e-16
-1.62718e-20
-1.26402e-16
-1.71728e-20
-1.24175e-16
-1.80658e-20
-1.21987e-16
-1.89455e-20
-1.19838e-16
-1.98048e-20
-1.17726e-16
-2.06346e-20
-1.15652e-16
-2.14232e-20
-1.13614e-16
-2.21555e-20
-1.11612e-16
-2.28127e-20
-1.09645e-16
-2.33712e-20
-1.07713e-16
-2.38022e-20
-1.05815e-16
-2.40711e-20
-1.0395e-16
-2.41371e-20
-1.02118e-16
-2.39539e-20
-1.00318e-16
-2.34706e-20
-9.85504e-17
-2.26346e-20
-9.68135e-17
-2.13957e-20
-9.51072e-17
-1.97125e-20
-9.34311e-17
-1.75603e-20
-9.17845e-17
-1.49468e-20
-9.0167e-17
-1.97145e-12
-8.86357e-17
-3.76488e-07
-1.39578e-08
-3.4768e-05
4.7916e-07
-8.84242e-22
-1.70995e-16
-1.75468e-21
-1.67982e-16
-2.61318e-21
-1.65023e-16
-3.46138e-21
-1.62116e-16
-4.30075e-21
-1.5926e-16
-5.13256e-21
-1.56454e-16
-5.95787e-21
-1.53698e-16
-6.77754e-21
-1.5099e-16
-7.5922e-21
-1.4833e-16
-8.40225e-21
-1.45717e-16
-9.20778e-21
-1.4315e-16
-1.00086e-20
-1.40628e-16
-1.08042e-20
-1.3815e-16
-1.15936e-20
-1.35716e-16
-1.23754e-20
-1.33325e-16
-1.31475e-20
-1.30976e-16
-1.39073e-20
-1.28669e-16
-1.46514e-20
-1.26402e-16
-1.53754e-20
-1.24175e-16
-1.60738e-20
-1.21987e-16
-1.67399e-20
-1.19837e-16
-1.73654e-20
-1.17726e-16
-1.79405e-20
-1.15651e-16
-1.84534e-20
-1.13614e-16
-1.88901e-20
-1.11612e-16
-1.92344e-20
-1.09645e-16
-1.94679e-20
-1.07713e-16
-1.957e-20
-1.05815e-16
-1.95185e-20
-1.0395e-16
-1.92896e-20
-1.02118e-16
-1.886e-20
-1.00319e-16
-1.82075e-20
-9.8551e-17
-1.73138e-20
-9.68144e-17
-1.61663e-20
-9.51084e-17
-1.47615e-20
-9.34325e-17
-1.31071e-20
-9.17862e-17
-1.12319e-20
-9.01689e-17
-2.35895e-12
-8.86721e-17
-3.16679e-07
-2.04617e-08
-3.5698e-05
4.46614e-07
-8.21231e-22
-1.70994e-16
-1.62904e-21
-1.67981e-16
-2.42459e-21
-1.65022e-16
-3.2089e-21
-1.62115e-16
-3.9828e-21
-1.59259e-16
-4.74697e-21
-1.56454e-16
-5.50186e-21
-1.53697e-16
-6.24773e-21
-1.5099e-16
-6.98461e-21
-1.4833e-16
-7.71226e-21
-1.45716e-16
-8.43017e-21
-1.43149e-16
-9.13747e-21
-1.40627e-16
-9.83297e-21
-1.3815e-16
-1.0515e-20
-1.35716e-16
-1.11816e-20
-1.33325e-16
-1.18299e-20
-1.30976e-16
-1.24568e-20
-1.28668e-16
-1.30584e-20
-1.26401e-16
-1.363e-20
-1.24174e-16
-1.41659e-20
-1.21986e-16
-1.46598e-20
-1.19837e-16
-1.51042e-20
-1.17725e-16
-1.54906e-20
-1.15651e-16
-1.58094e-20
-1.13613e-16
-1.60502e-20
-1.11611e-16
-1.62015e-20
-1.09645e-16
-1.62514e-20
-1.07713e-16
-1.61877e-20
-1.05815e-16
-1.59982e-20
-1.0395e-16
-1.56719e-20
-1.02119e-16
-1.51994e-20
-1.00319e-16
-1.45741e-20
-9.85517e-17
-1.37931e-20
-9.68152e-17
-1.28584e-20
-9.51093e-17
-1.17779e-20
-9.34336e-17
-1.05661e-20
-9.17874e-17
-9.25416e-21
-9.01702e-17
-3.1198e-12
-8.87226e-17
-2.89041e-07
-2.90969e-08
-3.65495e-05
4.25194e-07
-7.5598e-22
-1.70993e-16
-1.49902e-21
-1.67981e-16
-2.22965e-21
-1.65022e-16
-2.94829e-21
-1.62114e-16
-3.65525e-21
-1.59259e-16
-4.35066e-21
-1.56453e-16
-5.03449e-21
-1.53697e-16
-5.70653e-21
-1.50989e-16
-6.36633e-21
-1.48329e-16
-7.01323e-21
-1.45716e-16
-7.64628e-21
-1.43149e-16
-8.26426e-21
-1.40627e-16
-8.86561e-21
-1.38149e-16
-9.44843e-21
-1.35715e-16
-1.00104e-20
-1.33324e-16
-1.05488e-20
-1.30975e-16
-1.10605e-20
-1.28668e-16
-1.15417e-20
-1.26401e-16
-1.19882e-20
-1.24174e-16
-1.23953e-20
-1.21986e-16
-1.27578e-20
-1.19836e-16
-1.30697e-20
-1.17725e-16
-1.3325e-20
-1.15651e-16
-1.35168e-20
-1.13613e-16
-1.36385e-20
-1.11611e-16
-1.36831e-20
-1.09645e-16
-1.36438e-20
-1.07713e-16
-1.35146e-20
-1.05815e-16
-1.32902e-20
-1.03951e-16
-1.29665e-20
-1.02119e-16
-1.25416e-20
-1.0032e-16
-1.20154e-20
-9.85522e-17
-1.13909e-20
-9.68158e-17
-1.06736e-20
-9.511e-17
-9.87256e-21
-9.34344e-17
-8.9999e-21
-9.17882e-17
-8.08346e-21
-9.01712e-17
-4.23438e-12
-8.87939e-17
-2.74651e-07
-4.04691e-08
-3.735e-05
4.0936e-07
-6.89925e-22
-1.70992e-16
-1.36748e-21
-1.6798e-16
-2.03266e-21
-1.65021e-16
-2.68537e-21
-1.62114e-16
-3.32545e-21
-1.59258e-16
-3.95262e-21
-1.56452e-16
-4.56647e-21
-1.53696e-16
-5.16641e-21
-1.50988e-16
-5.75171e-21
-1.48328e-16
-6.32141e-21
-1.45715e-16
-6.87438e-21
-1.43148e-16
-7.40923e-21
-1.40626e-16
-7.92433e-21
-1.38149e-16
-8.41778e-21
-1.35715e-16
-8.88742e-21
-1.33324e-16
-9.3308e-21
-1.30975e-16
-9.74518e-21
-1.28667e-16
-1.01275e-20
-1.264e-16
-1.04745e-20
-1.24173e-16
-1.07826e-20
-1.21985e-16
-1.1048e-20
-1.19836e-16
-1.12667e-20
-1.17725e-16
-1.14349e-20
-1.15651e-16
-1.15485e-20
-1.13613e-16
-1.16037e-20
-1.11611e-16
-1.15971e-20
-1.09645e-16
-1.15255e-20
-1.07713e-16
-1.13869e-20
-1.05815e-16
-1.11797e-20
-1.03951e-16
-1.09037e-20
-1.02119e-16
-1.05601e-20
-1.0032e-16
-1.01512e-20
-9.85526e-17
-9.68127e-21
-9.68163e-17
-9.1559e-21
-9.51106e-17
-8.58225e-21
-9.34349e-17
-7.96882e-21
-9.17889e-17
-7.34254e-21
-9.01718e-17
-5.83144e-12
-8.89051e-17
-2.65125e-07
-5.64946e-08
-3.81106e-05
3.9516e-07
-6.24324e-22
-1.70992e-16
-1.23695e-21
-1.67979e-16
-1.83739e-21
-1.6502e-16
-2.42515e-21
-1.62113e-16
-2.9997e-21
-1.59257e-16
-3.56042e-21
-1.56452e-16
-4.10662e-21
-1.53696e-16
-4.63749e-21
-1.50988e-16
-5.1521e-21
-1.48328e-16
-5.64937e-21
-1.45715e-16
-6.1281e-21
-1.43148e-16
-6.58691e-21
-1.40626e-16
-7.02428e-21
-1.38148e-16
-7.43852e-21
-1.35714e-16
-7.82781e-21
-1.33323e-16
-8.19017e-21
-1.30974e-16
-8.52347e-21
-1.28667e-16
-8.82552e-21
-1.264e-16
-9.09401e-21
-1.24173e-16
-9.32661e-21
-1.21985e-16
-9.52104e-21
-1.19836e-16
-9.67504e-21
-1.17725e-16
-9.78655e-21
-1.15651e-16
-9.85372e-21
-1.13613e-16
-9.87506e-21
-1.11611e-16
-9.84947e-21
-1.09645e-16
-9.77641e-21
-1.07713e-16
-9.65595e-21
-1.05815e-16
-9.48885e-21
-1.03951e-16
-9.27668e-21
-1.02119e-16
-9.02178e-21
-1.0032e-16
-8.72733e-21
-9.85529e-17
-8.3973e-21
-9.68166e-17
-8.03636e-21
-9.51109e-17
-7.64983e-21
-9.34353e-17
-7.24352e-21
-9.17893e-17
-6.84848e-21
-9.01722e-17
-8.30514e-12
-8.90945e-17
-2.55815e-07
-8.02849e-08
-3.88322e-05
3.793e-07
-5.60231e-22
-1.70991e-16
-1.10949e-21
-1.67979e-16
-1.64694e-21
-1.6502e-16
-2.17174e-21
-1.62113e-16
-2.68308e-21
-1.59257e-16
-3.1801e-21
-1.56451e-16
-3.66192e-21
-1.53695e-16
-4.12757e-21
-1.50987e-16
-4.57603e-21
-1.48327e-16
-5.0062e-21
-1.45714e-16
-5.4169e-21
-1.43147e-16
-5.80689e-21
-1.40625e-16
-6.17482e-21
-1.38148e-16
-6.51932e-21
-1.35714e-16
-6.83895e-21
-1.33323e-16
-7.13227e-21
-1.30974e-16
-7.39782e-21
-1.28667e-16
-7.63418e-21
-1.264e-16
-7.84003e-21
-1.24173e-16
-8.01412e-21
-1.21985e-16
-8.15542e-21
-1.19836e-16
-8.26307e-21
-1.17725e-16
-8.33653e-21
-1.1565e-16
-8.37558e-21
-1.13613e-16
-8.38038e-21
-1.11611e-16
-8.35152e-21
-1.09645e-16
-8.2901e-21
-1.07713e-16
-8.19768e-21
-1.05815e-16
-8.07633e-21
-1.03951e-16
-7.9286e-21
-1.0212e-16
-7.75748e-21
-1.00321e-16
-7.56629e-21
-9.85531e-17
-7.35859e-21
-9.68168e-17
-7.13801e-21
-9.51111e-17
-6.90811e-21
-9.34355e-17
-6.67217e-21
-9.17895e-17
-6.47014e-21
-9.01725e-17
-1.22614e-11
-8.9394e-17
-2.43736e-07
-1.1349e-07
-3.9509e-05
3.59044e-07
-4.98492e-22
-1.70991e-16
-9.86802e-22
-1.67978e-16
-1.46379e-21
-1.65019e-16
-1.92839e-21
-1.62112e-16
-2.37956e-21
-1.59256e-16
-2.8163e-21
-1.56451e-16
-3.23756e-21
-1.53695e-16
-3.64232e-21
-1.50987e-16
-4.02953e-21
-1.48327e-16
-4.3981e-21
-1.45714e-16
-4.74693e-21
-1.43147e-16
-5.07493e-21
-1.40625e-16
-5.38098e-21
-1.38147e-16
-5.66401e-21
-1.35714e-16
-5.92296e-21
-1.33323e-16
-6.15687e-21
-1.30974e-16
-6.36485e-21
-1.28666e-16
-6.54617e-21
-1.264e-16
-6.70025e-21
-1.24173e-16
-6.82677e-21
-1.21985e-16
-6.92562e-21
-1.19836e-16
-6.99704e-21
-1.17725e-16
-7.04159e-21
-1.1565e-16
-7.06026e-21
-1.13613e-16
-7.05441e-21
-1.11611e-16
-7.02588e-21
-1.09645e-16
-6.97693e-21
-1.07713e-16
-6.91028e-21
-1.05815e-16
-6.82902e-21
-1.03951e-16
-6.73663e-21
-1.0212e-16
-6.63681e-21
-1.00321e-16
-6.53344e-21
-9.85532e-17
-6.43033e-21
-9.68169e-17
-6.3311e-21
-9.51112e-17
-6.2388e-21
-9.34356e-17
-6.15554e-21
-9.17896e-17
-6.13759e-21
-9.01725e-17
-1.81895e-11
-8.99044e-17
-2.27153e-07
-1.62546e-07
-4.0131e-05
3.32567e-07
-4.39754e-22
-1.7099e-16
-8.70142e-22
-1.67978e-16
-1.28982e-21
-1.65019e-16
-1.69753e-21
-1.62112e-16
-2.09209e-21
-1.59256e-16
-2.47237e-21
-1.5645e-16
-2.83728e-21
-1.53694e-16
-3.18573e-21
-1.50987e-16
-3.51666e-21
-1.48327e-16
-3.82904e-21
-1.45714e-16
-4.12187e-21
-1.43147e-16
-4.39417e-21
-1.40625e-16
-4.64502e-21
-1.38147e-16
-4.8736e-21
-1.35713e-16
-5.07915e-21
-1.33322e-16
-5.26107e-21
-1.30974e-16
-5.41889e-21
-1.28666e-16
-5.55236e-21
-1.26399e-16
-5.66145e-21
-1.24172e-16
-5.74643e-21
-1.21985e-16
-5.80786e-21
-1.19836e-16
-5.84667e-21
-1.17724e-16
-5.86422e-21
-1.1565e-16
-5.86225e-21
-1.13613e-16
-5.84301e-21
-1.11611e-16
-5.80919e-21
-1.09645e-16
-5.76399e-21
-1.07713e-16
-5.71108e-21
-1.05815e-16
-5.65457e-21
-1.03951e-16
-5.59899e-21
-1.0212e-16
-5.54925e-21
-1.00321e-16
-5.51055e-21
-9.85532e-17
-5.48835e-21
-9.68169e-17
-5.48832e-21
-9.51112e-17
-5.51627e-21
-9.34356e-17
-5.57819e-21
-9.17895e-17
-5.76492e-21
-9.01724e-17
-2.75975e-11
-9.0777e-17
-2.06069e-07
-2.32591e-07
-4.06881e-05
2.9973e-07
-3.84486e-22
-1.7099e-16
-7.60433e-22
-1.67978e-16
-1.12635e-21
-1.65018e-16
-1.48087e-21
-1.62111e-16
-1.82271e-21
-1.59256e-16
-2.15066e-21
-1.5645e-16
-2.46359e-21
-1.53694e-16
-2.76038e-21
-1.50986e-16
-3.03999e-21
-1.48326e-16
-3.30144e-21
-1.45713e-16
-3.54376e-21
-1.43146e-16
-3.76611e-21
-1.40624e-16
-3.96768e-21
-1.38147e-16
-4.14778e-21
-1.35713e-16
-4.30587e-21
-1.33322e-16
-4.44152e-21
-1.30974e-16
-4.55452e-21
-1.28666e-16
-4.64487e-21
-1.26399e-16
-4.7128e-21
-1.24172e-16