/*--------------------------------*- C++ -*----------------------------------*\
  =========                 |
  \\      /  F ield         | OpenFOAM: The Open Source CFD Toolbox
   \\    /   O peration     | Website:  https://openfoam.org
    \\  /    A nd           | Version:  7
     \\/     M anipulation  |
\*---------------------------------------------------------------------------*/
FoamFile
{
    version     2.0;
    format      ascii;
    class       volVectorField;
    location    "5000";
    object      Ua;
}
// * * * * * * * * * * * * * * * * * * * * * * * * * * * * * * * * * * * * * //

dimensions      [0 1 -1 0 0 0 0];

internalField   nonuniform List<vector> 
3200
(
(-9.21333e-08 1.33056e-07 0)
(-2.74339e-07 1.32412e-07 0)
(-4.52051e-07 1.31145e-07 0)
(-6.24548e-07 1.29261e-07 0)
(-7.91153e-07 1.26754e-07 0)
(-9.51215e-07 1.23611e-07 0)
(-1.1041e-06 1.19808e-07 0)
(-1.24918e-06 1.15317e-07 0)
(-1.38582e-06 1.10101e-07 0)
(-1.51339e-06 1.04121e-07 0)
(-1.63126e-06 9.73343e-08 0)
(-1.73876e-06 8.9695e-08 0)
(-1.83524e-06 8.11577e-08 0)
(-1.92004e-06 7.16775e-08 0)
(-1.99248e-06 6.12123e-08 0)
(-2.05191e-06 4.97251e-08 0)
(-2.09766e-06 3.71857e-08 0)
(-2.1291e-06 2.3574e-08 0)
(-2.14563e-06 8.88277e-09 0)
(-2.1467e-06 -6.87917e-09 0)
(-2.13181e-06 -2.36833e-08 0)
(-2.10054e-06 -4.14779e-08 0)
(-2.05258e-06 -6.01841e-08 0)
(-1.98773e-06 -7.9693e-08 0)
(-1.90592e-06 -9.98623e-08 0)
(-1.80727e-06 -1.20515e-07 0)
(-1.69206e-06 -1.41437e-07 0)
(-1.56078e-06 -1.62381e-07 0)
(-1.41413e-06 -1.83066e-07 0)
(-1.25304e-06 -2.03184e-07 0)
(-1.07865e-06 -2.22411e-07 0)
(-8.92334e-07 -2.40409e-07 0)
(-6.95675e-07 -2.56848e-07 0)
(-4.90425e-07 -2.7141e-07 0)
(-2.78489e-07 -2.83814e-07 0)
(-6.18726e-08 -2.9382e-07 0)
(1.5736e-07 -3.01249e-07 0)
(3.77143e-07 -3.05987e-07 0)
(5.95461e-07 -3.07994e-07 0)
(8.10402e-07 -3.07304e-07 0)
(-9.30708e-08 4.00521e-07 0)
(-2.77156e-07 3.98622e-07 0)
(-4.56775e-07 3.9488e-07 0)
(-6.31246e-07 3.89316e-07 0)
(-7.99922e-07 3.81913e-07 0)
(-9.62187e-07 3.72629e-07 0)
(-1.11743e-06 3.61393e-07 0)
(-1.26506e-06 3.48118e-07 0)
(-1.40447e-06 3.32696e-07 0)
(-1.53504e-06 3.15007e-07 0)
(-1.65616e-06 2.94921e-07 0)
(-1.76718e-06 2.72298e-07 0)
(-1.86747e-06 2.46997e-07 0)
(-1.95635e-06 2.1888e-07 0)
(-2.03316e-06 1.87813e-07 0)
(-2.09722e-06 1.53674e-07 0)
(-2.14786e-06 1.16362e-07 0)
(-2.18441e-06 7.58021e-08 0)
(-2.20621e-06 3.19528e-08 0)
(-2.21264e-06 -1.5181e-08 0)
(-2.20312e-06 -6.55392e-08 0)
(-2.17712e-06 -1.18996e-07 0)
(-2.13419e-06 -1.75345e-07 0)
(-2.07398e-06 -2.34294e-07 0)
(-1.99625e-06 -2.95447e-07 0)
(-1.90091e-06 -3.58302e-07 0)
(-1.78804e-06 -4.22242e-07 0)
(-1.65792e-06 -4.86537e-07 0)
(-1.51105e-06 -5.50345e-07 0)
(-1.34815e-06 -6.12727e-07 0)
(-1.17024e-06 -6.72668e-07 0)
(-9.78581e-07 -7.29101e-07 0)
(-7.74699e-07 -7.8095e-07 0)
(-5.60385e-07 -8.27169e-07 0)
(-3.37656e-07 -8.66795e-07 0)
(-1.08712e-07 -8.98994e-07 0)
(1.2411e-07 -9.23112e-07 0)
(3.5841e-07 -9.38712e-07 0)
(5.91792e-07 -9.456e-07 0)
(8.21944e-07 -9.43839e-07 0)
(-9.49009e-08 6.71983e-07 0)
(-2.82655e-07 6.68919e-07 0)
(-4.66e-07 6.62883e-07 0)
(-6.44325e-07 6.53904e-07 0)
(-8.17054e-07 6.41955e-07 0)
(-9.83631e-07 6.2696e-07 0)
(-1.14351e-06 6.08806e-07 0)
(-1.29614e-06 5.87343e-07 0)
(-1.44098e-06 5.6239e-07 0)
(-1.57745e-06 5.33745e-07 0)
(-1.70497e-06 5.01184e-07 0)
(-1.82296e-06 4.64469e-07 0)
(-1.93077e-06 4.23354e-07 0)
(-2.02778e-06 3.77591e-07 0)
(-2.11331e-06 3.26936e-07 0)
(-2.18667e-06 2.71159e-07 0)
(-2.24716e-06 2.10054e-07 0)
(-2.29406e-06 1.43445e-07 0)
(-2.32662e-06 7.12089e-08 0)
(-2.34411e-06 -6.71934e-09 0)
(-2.34579e-06 -9.03239e-08 0)
(-2.33092e-06 -1.79491e-07 0)
(-2.29881e-06 -2.73987e-07 0)
(-2.2488e-06 -3.73438e-07 0)
(-2.18031e-06 -4.77307e-07 0)
(-2.09285e-06 -5.84869e-07 0)
(-1.98605e-06 -6.95197e-07 0)
(-1.85971e-06 -8.07144e-07 0)
(-1.71386e-06 -9.19339e-07 0)
(-1.54876e-06 -1.03019e-06 0)
(-1.36501e-06 -1.13791e-06 0)
(-1.16353e-06 -1.24053e-06 0)
(-9.45664e-07 -1.336e-06 0)
(-7.13141e-07 -1.42223e-06 0)
(-4.68127e-07 -1.49719e-06 0)
(-2.13178e-07 -1.55903e-06 0)
(4.88059e-08 -1.6062e-06 0)
(3.14673e-07 -1.63757e-06 0)
(5.81131e-07 -1.65248e-06 0)
(8.44887e-07 -1.65085e-06 0)
(-9.7535e-08 9.49892e-07 0)
(-2.90572e-07 9.45813e-07 0)
(-4.79283e-07 9.37777e-07 0)
(-6.63166e-07 9.25817e-07 0)
(-8.41743e-07 9.09892e-07 0)
(-1.01455e-06 8.89897e-07 0)
(-1.18113e-06 8.65671e-07 0)
(-1.34103e-06 8.37002e-07 0)
(-1.49375e-06 8.03639e-07 0)
(-1.63883e-06 7.65291e-07 0)
(-1.77573e-06 7.21639e-07 0)
(-1.90392e-06 6.72339e-07 0)
(-2.02283e-06 6.17029e-07 0)
(-2.13186e-06 5.55333e-07 0)
(-2.23037e-06 4.86875e-07 0)
(-2.31768e-06 4.1128e-07 0)
(-2.39306e-06 3.28191e-07 0)
(-2.45575e-06 2.37278e-07 0)
(-2.50493e-06 1.38251e-07 0)
(-2.53973e-06 3.08841e-08 0)
(-2.55923e-06 -8.49717e-08 0)
(-2.56246e-06 -2.09358e-07 0)
(-2.54839e-06 -3.42182e-07 0)
(-2.51596e-06 -4.83183e-07 0)
(-2.46409e-06 -6.31891e-07 0)
(-2.39167e-06 -7.87588e-07 0)
(-2.29763e-06 -9.49261e-07 0)
(-2.18098e-06 -1.11555e-06 0)
(-2.04085e-06 -1.28473e-06 0)
(-1.87659e-06 -1.45463e-06 0)
(-1.68786e-06 -1.62267e-06 0)
(-1.47476e-06 -1.78582e-06 0)
(-1.2379e-06 -1.9407e-06 0)
(-9.78581e-07 -2.0836e-06 0)
(-6.98865e-07 -2.21068e-06 0)
(-4.01629e-07 -2.31818e-06 0)
(-9.05838e-08 -2.4026e-06 0)
(2.29812e-07 -2.46108e-06 0)
(5.54525e-07 -2.49162e-06 0)
(8.7821e-07 -2.49338e-06 0)
(-1.00844e-07 1.23638e-06 0)
(-3.00518e-07 1.23149e-06 0)
(-4.95976e-07 1.22185e-06 0)
(-6.86855e-07 1.2075e-06 0)
(-8.72806e-07 1.18838e-06 0)
(-1.05349e-06 1.16436e-06 0)
(-1.22856e-06 1.13522e-06 0)
(-1.39766e-06 1.1007e-06 0)
(-1.56044e-06 1.06047e-06 0)
(-1.71649e-06 1.01416e-06 0)
(-1.86541e-06 9.61361e-07 0)
(-2.00674e-06 9.01611e-07 0)
(-2.14002e-06 8.34426e-07 0)
(-2.26471e-06 7.59296e-07 0)
(-2.38023e-06 6.75686e-07 0)
(-2.48597e-06 5.83053e-07 0)
(-2.58124e-06 4.80844e-07 0)
(-2.66527e-06 3.68514e-07 0)
(-2.73721e-06 2.45533e-07 0)
(-2.79613e-06 1.114e-07 0)
(-2.84098e-06 -3.43339e-08 0)
(-2.87058e-06 -1.92046e-07 0)
(-2.88362e-06 -3.62009e-07 0)
(-2.87861e-06 -5.44356e-07 0)
(-2.85392e-06 -7.39024e-07 0)
(-2.80771e-06 -9.45697e-07 0)
(-2.73799e-06 -1.16373e-06 0)
(-2.64261e-06 -1.39204e-06 0)
(-2.51932e-06 -1.62902e-06 0)
(-2.36586e-06 -1.87242e-06 0)
(-2.18009e-06 -2.11917e-06 0)
(-1.96017e-06 -2.36536e-06 0)
(-1.70485e-06 -2.60606e-06 0)
(-1.41371e-06 -2.83537e-06 0)
(-1.0876e-06 -3.04648e-06 0)
(-7.28902e-07 -3.23193e-06 0)
(-3.41877e-07 -3.38402e-06 0)
(6.72106e-08 -3.49546e-06 0)
(4.90192e-07 -3.56023e-06 0)
(9.17419e-07 -3.57449e-06 0)
(-1.04661e-07 1.53317e-06 0)
(-3.11994e-07 1.52771e-06 0)
(-5.15246e-07 1.51696e-06 0)
(-7.14217e-07 1.50094e-06 0)
(-9.08713e-07 1.47959e-06 0)
(-1.09854e-06 1.45273e-06 0)
(-1.28349e-06 1.42012e-06 0)
(-1.46336e-06 1.38143e-06 0)
(-1.63791e-06 1.33628e-06 0)
(-1.80688e-06 1.28422e-06 0)
(-1.96999e-06 1.22474e-06 0)
(-2.12693e-06 1.15728e-06 0)
(-2.27734e-06 1.08125e-06 0)
(-2.42083e-06 9.95998e-07 0)
(-2.55695e-06 9.00828e-07 0)
(-2.68519e-06 7.95015e-07 0)
(-2.80498e-06 6.77799e-07 0)
(-2.91564e-06 5.48384e-07 0)
(-3.01644e-06 4.05948e-07 0)
(-3.10647e-06 2.49645e-07 0)
(-3.18473e-06 7.86127e-08 0)
(-3.25e-06 -1.08019e-07 0)
(-3.30086e-06 -3.11113e-07 0)
(-3.33562e-06 -5.31498e-07 0)
(-3.35226e-06 -7.69936e-07 0)
(-3.34836e-06 -1.02706e-06 0)
(-3.32107e-06 -1.30331e-06 0)
(-3.26696e-06 -1.59878e-06 0)
(-3.18208e-06 -1.91307e-06 0)
(-3.06185e-06 -2.24506e-06 0)
(-2.90116e-06 -2.59261e-06 0)
(-2.69452e-06 -2.95217e-06 0)
(-2.43637e-06 -3.31833e-06 0)
(-2.12159e-06 -3.68339e-06 0)
(-1.74629e-06 -4.0369e-06 0)
(-1.30886e-06 -4.36543e-06 0)
(-8.11237e-07 -4.65268e-06 0)
(-2.60211e-07 -4.88034e-06 0)
(3.31557e-07 -5.02983e-06 0)
(9.45389e-07 -5.08547e-06 0)
(-1.0879e-07 1.84143e-06 0)
(-3.2441e-07 1.83569e-06 0)
(-5.36104e-07 1.82439e-06 0)
(-7.43856e-07 1.80754e-06 0)
(-9.47643e-07 1.78506e-06 0)
(-1.14744e-06 1.75675e-06 0)
(-1.3432e-06 1.72233e-06 0)
(-1.53487e-06 1.68144e-06 0)
(-1.72238e-06 1.63364e-06 0)
(-1.90563e-06 1.57842e-06 0)
(-2.0845e-06 1.5152e-06 0)
(-2.25883e-06 1.44334e-06 0)
(-2.42846e-06 1.36214e-06 0)
(-2.59316e-06 1.27083e-06 0)
(-2.75266e-06 1.1686e-06 0)
(-2.90666e-06 1.05456e-06 0)
(-3.05478e-06 9.27756e-07 0)
(-3.19658e-06 7.87168e-07 0)
(-3.33154e-06 6.31699e-07 0)
(-3.45902e-06 4.60168e-07 0)
(-3.57827e-06 2.71291e-07 0)
(-3.68835e-06 6.36695e-08 0)
(-3.78814e-06 -1.64231e-07 0)
(-3.87619e-06 -4.14102e-07 0)
(-3.95068e-06 -6.87812e-07 0)
(-4.0093e-06 -9.87424e-07 0)
(-4.04902e-06 -1.31518e-06 0)
(-4.06592e-06 -1.6735e-06 0)
(-4.0549e-06 -2.06482e-06 0)
(-4.00935e-06 -2.49146e-06 0)
(-3.9208e-06 -2.95527e-06 0)
(-3.77861e-06 -3.45701e-06 0)
(-3.56976e-06 -3.99549e-06 0)
(-3.27899e-06 -4.56621e-06 0)
(-2.88946e-06 -5.15949e-06 0)
(-2.38444e-06 -5.758e-06 0)
(-1.75043e-06 -6.33397e-06 0)
(-9.82135e-07 -6.84646e-06 0)
(-8.94914e-08 -7.2404e-06 0)
(8.94541e-07 -7.45042e-06 0)
(-1.13011e-07 2.16174e-06 0)
(-3.37107e-07 2.15604e-06 0)
(-5.57446e-07 2.1448e-06 0)
(-7.74207e-07 2.12803e-06 0)
(-9.87553e-07 2.10562e-06 0)
(-1.19763e-06 2.07737e-06 0)
(-1.40458e-06 2.04298e-06 0)
(-1.60851e-06 2.00205e-06 0)
(-1.80953e-06 1.95411e-06 0)
(-2.00772e-06 1.89861e-06 0)
(-2.20314e-06 1.83493e-06 0)
(-2.39585e-06 1.76238e-06 0)
(-2.58585e-06 1.6802e-06 0)
(-2.77315e-06 1.58754e-06 0)
(-2.95772e-06 1.48349e-06 0)
(-3.13949e-06 1.36708e-06 0)
(-3.31839e-06 1.23723e-06 0)
(-3.49428e-06 1.09278e-06 0)
(-3.667e-06 9.32466e-07 0)
(-3.83636e-06 7.54893e-07 0)
(-4.00209e-06 5.58519e-07 0)
(-4.1639e-06 3.41606e-07 0)
(-4.32139e-06 1.02167e-07 0)
(-4.47405e-06 -1.62111e-07 0)
(-4.62119e-06 -4.53974e-07 0)
(-4.76182e-06 -7.76736e-07 0)
(-4.89449e-06 -1.13446e-06 0)
(-5.01697e-06 -1.53219e-06 0)
(-5.12584e-06 -1.97621e-06 0)
(-5.21579e-06 -2.47432e-06 0)
(-5.27858e-06 -3.03613e-06 0)
(-5.30164e-06 -3.67319e-06 0)
(-5.26605e-06 -4.39884e-06 0)
(-5.14404e-06 -5.2273e-06 0)
(-4.89599e-06 -6.1715e-06 0)
(-4.46782e-06 -7.23822e-06 0)
(-3.79027e-06 -8.41873e-06 0)
(-2.78391e-06 -9.67111e-06 0)
(-1.37752e-06 -1.08885e-05 0)
(4.44945e-07 -1.1843e-05 0)
(-1.17092e-07 2.49405e-06 0)
(-3.49387e-07 2.4887e-06 0)
(-5.78102e-07 2.47815e-06 0)
(-8.03611e-07 2.46239e-06 0)
(-1.02627e-06 2.44131e-06 0)
(-1.2464e-06 2.4147e-06 0)
(-1.46432e-06 2.38223e-06 0)
(-1.68032e-06 2.34352e-06 0)
(-1.8947e-06 2.29807e-06 0)
(-2.10771e-06 2.24534e-06 0)
(-2.31963e-06 2.18468e-06 0)
(-2.5307e-06 2.11539e-06 0)
(-2.74116e-06 2.03669e-06 0)
(-2.95125e-06 1.94771e-06 0)
(-3.16118e-06 1.84754e-06 0)
(-3.37118e-06 1.73515e-06 0)
(-3.58146e-06 1.60946e-06 0)
(-3.79224e-06 1.46928e-06 0)
(-4.00378e-06 1.31335e-06 0)
(-4.21633e-06 1.14028e-06 0)
(-4.43026e-06 9.48549e-07 0)
(-4.64599e-06 7.3649e-07 0)
(-4.86412e-06 5.02211e-07 0)
(-5.08546e-06 2.43529e-07 0)
(-5.31109e-06 -4.21539e-08 0)
(-5.54252e-06 -3.5804e-07 0)
(-5.7817e-06 -7.08222e-07 0)
(-6.03116e-06 -1.09812e-06 0)
(-6.29398e-06 -1.53514e-06 0)
(-6.57361e-06 -2.02966e-06 0)
(-6.87332e-06 -2.59651e-06 0)
(-7.19487e-06 -3.25726e-06 0)
(-7.53577e-06 -4.04354e-06 0)
(-7.88381e-06 -5.00217e-06 0)
(-8.20667e-06 -6.20297e-06 0)
(-8.43248e-06 -7.75053e-06 0)
(-8.41428e-06 -9.80243e-06 0)
(-7.86563e-06 -1.25972e-05 0)
(-6.24553e-06 -1.64975e-05 0)
(-2.55481e-06 -2.20574e-05 0)
(-1.20798e-07 2.8376e-06 0)
(-3.60546e-07 2.83292e-06 0)
(-5.96888e-07 2.82368e-06 0)
(-8.3039e-07 2.80986e-06 0)
(-1.06158e-06 2.79134e-06 0)
(-1.29097e-06 2.7679e-06 0)
(-1.51904e-06 2.73925e-06 0)
(-1.74626e-06 2.70499e-06 0)
(-1.97309e-06 2.66465e-06 0)
(-2.2e-06 2.61771e-06 0)
(-2.42744e-06 2.56354e-06 0)
(-2.65587e-06 2.50148e-06 0)
(-2.88573e-06 2.43075e-06 0)
(-3.11749e-06 2.35054e-06 0)
(-3.35162e-06 2.25996e-06 0)
(-3.58858e-06 2.15803e-06 0)
(-3.82888e-06 2.04373e-06 0)
(-4.07303e-06 1.91597e-06 0)
(-4.32158e-06 1.77359e-06 0)
(-4.57516e-06 1.61539e-06 0)
(-4.83451e-06 1.44014e-06 0)
(-5.10053e-06 1.24659e-06 0)
(-5.3744e-06 1.03347e-06 0)
(-5.65772e-06 7.99568e-07 0)
(-5.9527e-06 5.43669e-07 0)
(-6.26255e-06 2.64623e-07 0)
(-6.59191e-06 -3.86944e-08 0)
(-6.94762e-06 -3.67436e-07 0)
(-7.33984e-06 -7.22918e-07 0)
(-7.78376e-06 -1.10688e-06 0)
(-8.30223e-06 -1.52199e-06 0)
(-8.92997e-06 -1.9726e-06 0)
(-9.72026e-06 -2.4662e-06 0)
(-1.07559e-05 -3.01551e-06 0)
(-1.21673e-05 -3.64207e-06 0)
(-1.41628e-05 -4.38165e-06 0)
(-1.70802e-05 -5.2929e-06 0)
(-2.14735e-05 -6.47076e-06 0)
(-2.82624e-05 -8.06739e-06 0)
(-3.8959e-05 -1.03848e-05 0)
(-1.23907e-07 3.191e-06 0)
(-3.69911e-07 3.18728e-06 0)
(-6.12677e-07 3.17992e-06 0)
(-8.52937e-07 3.16889e-06 0)
(-1.09139e-06 3.15408e-06 0)
(-1.32869e-06 3.13527e-06 0)
(-1.56549e-06 3.11219e-06 0)
(-1.80241e-06 3.08447e-06 0)
(-2.0401e-06 3.05171e-06 0)
(-2.27917e-06 3.0134e-06 0)
(-2.52026e-06 2.969e-06 0)
(-2.76402e-06 2.9179e-06 0)
(-3.0111e-06 2.85939e-06 0)
(-3.26218e-06 2.79275e-06 0)
(-3.51793e-06 2.71715e-06 0)
(-3.77905e-06 2.63172e-06 0)
(-4.04625e-06 2.53553e-06 0)
(-4.32026e-06 2.4276e-06 0)
(-4.6018e-06 2.30693e-06 0)
(-4.89163e-06 2.17251e-06 0)
(-5.19054e-06 2.02337e-06 0)
(-5.49935e-06 1.85863e-06 0)
(-5.81897e-06 1.67764e-06 0)
(-6.15044e-06 1.48006e-06 0)
(-6.49507e-06 1.26606e-06 0)
(-6.85454e-06 1.03664e-06 0)
(-7.23119e-06 7.93967e-07 0)
(-7.6284e-06 5.41974e-07 0)
(-8.05108e-06 2.87105e-07 0)
(-8.50644e-06 3.9446e-08 0)
(-9.00496e-06 -1.85692e-07 0)
(-9.56156e-06 -3.65466e-07 0)
(-1.01969e-05 -4.66104e-07 0)
(-1.09384e-05 -4.3782e-07 0)
(-1.18197e-05 -2.07032e-07 0)
(-1.28775e-05 3.35736e-07 0)
(-1.41415e-05 1.35501e-06 0)
(-1.56098e-05 3.10105e-06 0)
(-1.71982e-05 5.95958e-06 0)
(-1.69982e-05 1.03379e-05 0)
(-1.26216e-07 3.55221e-06 0)
(-3.76877e-07 3.54971e-06 0)
(-6.24447e-07 3.54474e-06 0)
(-8.69802e-07 3.53725e-06 0)
(-1.11377e-06 3.52714e-06 0)
(-1.35715e-06 3.51422e-06 0)
(-1.60072e-06 3.49824e-06 0)
(-1.84524e-06 3.4789e-06 0)
(-2.09149e-06 3.45586e-06 0)
(-2.34025e-06 3.4287e-06 0)
(-2.5923e-06 3.39696e-06 0)
(-2.84845e-06 3.36012e-06 0)
(-3.10955e-06 3.31761e-06 0)
(-3.37645e-06 3.26879e-06 0)
(-3.65003e-06 3.21297e-06 0)
(-3.93118e-06 3.1494e-06 0)
(-4.22082e-06 3.07724e-06 0)
(-4.51984e-06 2.99563e-06 0)
(-4.82911e-06 2.90363e-06 0)
(-5.14945e-06 2.80028e-06 0)
(-5.48156e-06 2.68462e-06 0)
(-5.826e-06 2.55572e-06 0)
(-6.18303e-06 2.41281e-06 0)
(-6.55259e-06 2.25535e-06 0)
(-6.93404e-06 2.08324e-06 0)
(-7.32601e-06 1.89711e-06 0)
(-7.7261e-06 1.69873e-06 0)
(-8.13048e-06 1.49157e-06 0)
(-8.53341e-06 1.28164e-06 0)
(-8.92651e-06 1.07867e-06 0)
(-9.29788e-06 8.97565e-07 0)
(-9.63078e-06 7.60532e-07 0)
(-9.90188e-06 6.99557e-07 0)
(-1.00786e-05 7.59457e-07 0)
(-1.01157e-05 1.00112e-06 0)
(-9.94939e-06 1.50434e-06 0)
(-9.49005e-06 2.36884e-06 0)
(-8.6108e-06 3.71093e-06 0)
(-7.13239e-06 5.65099e-06 0)
(-4.1146e-06 8.03787e-06 0)
(-1.27559e-07 3.91871e-06 0)
(-3.80939e-07 3.91761e-06 0)
(-6.31351e-07 3.91542e-06 0)
(-8.79776e-07 3.91207e-06 0)
(-1.12714e-06 3.90745e-06 0)
(-1.37435e-06 3.90141e-06 0)
(-1.62227e-06 3.89376e-06 0)
(-1.87177e-06 3.88427e-06 0)
(-2.12374e-06 3.87267e-06 0)
(-2.37906e-06 3.85866e-06 0)
(-2.63864e-06 3.8419e-06 0)
(-2.90345e-06 3.82201e-06 0)
(-3.17445e-06 3.79856e-06 0)
(-3.45268e-06 3.77109e-06 0)
(-3.73919e-06 3.73905e-06 0)
(-4.0351e-06 3.70186e-06 0)
(-4.34152e-06 3.65882e-06 0)
(-4.6596e-06 3.60919e-06 0)
(-4.99047e-06 3.55207e-06 0)
(-5.3352e-06 3.48649e-06 0)
(-5.69471e-06 3.41128e-06 0)
(-6.06973e-06 3.32512e-06 0)
(-6.46059e-06 3.22649e-06 0)
(-6.86704e-06 3.11366e-06 0)
(-7.28791e-06 2.9846e-06 0)
(-7.72073e-06 2.83708e-06 0)
(-8.16107e-06 2.66858e-06 0)
(-8.60176e-06 2.47638e-06 0)
(-9.03175e-06 2.25771e-06 0)
(-9.43468e-06 2.00992e-06 0)
(-9.78704e-06 1.73097e-06 0)
(-1.0056e-05 1.42011e-06 0)
(-1.01969e-05 1.07902e-06 0)
(-1.01513e-05 7.13545e-07 0)
(-9.84498e-06 3.36345e-07 0)
(-9.18955e-06 -2.94963e-08 0)
(-8.08746e-06 -3.45559e-07 0)
(-6.44609e-06 -5.5212e-07 0)
(-4.20552e-06 -5.61934e-07 0)
(-1.47567e-06 -1.99441e-07 0)
(-1.2781e-07 4.2875e-06 0)
(-3.81722e-07 4.28796e-06 0)
(-6.32757e-07 4.28882e-06 0)
(-8.81961e-07 4.29e-06 0)
(-1.13032e-06 4.29141e-06 0)
(-1.37879e-06 4.29293e-06 0)
(-1.62829e-06 4.29443e-06 0)
(-1.87977e-06 4.29577e-06 0)
(-2.13417e-06 4.29678e-06 0)
(-2.39243e-06 4.29729e-06 0)
(-2.65557e-06 4.29712e-06 0)
(-2.9246e-06 4.29604e-06 0)
(-3.20063e-06 4.29384e-06 0)
(-3.48481e-06 4.29024e-06 0)
(-3.77835e-06 4.28494e-06 0)
(-4.08255e-06 4.27759e-06 0)
(-4.39878e-06 4.26775e-06 0)
(-4.72851e-06 4.2549e-06 0)
(-5.07326e-06 4.23835e-06 0)
(-5.43464e-06 4.21726e-06 0)
(-5.81428e-06 4.1905e-06 0)
(-6.21381e-06 4.15659e-06 0)
(-6.63481e-06 4.11355e-06 0)
(-7.07864e-06 4.0587e-06 0)
(-7.5463e-06 3.98841e-06 0)
(-8.03815e-06 3.8977e-06 0)
(-8.55347e-06 3.77977e-06 0)
(-9.08983e-06 3.62528e-06 0)
(-9.64206e-06 3.42142e-06 0)
(-1.02008e-05 3.15073e-06 0)
(-1.07503e-05 2.78949e-06 0)
(-1.12649e-05 2.30588e-06 0)
(-1.17045e-05 1.65786e-06 0)
(-1.2007e-05 7.91174e-07 0)
(-1.20791e-05 -3.61649e-07 0)
(-1.17826e-05 -1.87972e-06 0)
(-1.09185e-05 -3.84625e-06 0)
(-9.20907e-06 -6.32895e-06 0)
(-6.28447e-06 -9.33741e-06 0)
(-1.96547e-06 -1.16005e-05 0)
(-1.26895e-07 4.65534e-06 0)
(-3.79003e-07 4.65741e-06 0)
(-6.28293e-07 4.66144e-06 0)
(-8.75825e-07 4.66734e-06 0)
(-1.1226e-06 4.67503e-06 0)
(-1.36958e-06 4.68443e-06 0)
(-1.61771e-06 4.69546e-06 0)
(-1.86794e-06 4.70808e-06 0)
(-2.12121e-06 4.72224e-06 0)
(-2.37849e-06 4.7379e-06 0)
(-2.64081e-06 4.75504e-06 0)
(-2.90922e-06 4.77366e-06 0)
(-3.18485e-06 4.79374e-06 0)
(-3.46889e-06 4.81528e-06 0)
(-3.76266e-06 4.83827e-06 0)
(-4.06755e-06 4.86271e-06 0)
(-4.38513e-06 4.88855e-06 0)
(-4.71711e-06 4.91568e-06 0)
(-5.0654e-06 4.94393e-06 0)
(-5.43217e-06 4.97299e-06 0)
(-5.81986e-06 5.00236e-06 0)
(-6.23131e-06 5.03124e-06 0)
(-6.66982e-06 5.0584e-06 0)
(-7.13932e-06 5.08196e-06 0)
(-7.64451e-06 5.09914e-06 0)
(-8.19114e-06 5.1058e-06 0)
(-8.78634e-06 5.09585e-06 0)
(-9.43902e-06 5.06032e-06 0)
(-1.01604e-05 4.98607e-06 0)
(-1.09647e-05 4.85376e-06 0)
(-1.18692e-05 4.63484e-06 0)
(-1.2895e-05 4.2869e-06 0)
(-1.4065e-05 3.74659e-06 0)
(-1.54009e-05 2.91838e-06 0)
(-1.6912e-05 1.65703e-06 0)
(-1.85743e-05 -2.60508e-07 0)
(-2.02836e-05 -3.17986e-06 0)
(-2.17655e-05 -7.64148e-06 0)
(-2.24002e-05 -1.4499e-05 0)
(-1.09787e-05 -2.07076e-05 0)
(-1.24795e-07 5.01882e-06 0)
(-3.72724e-07 5.02249e-06 0)
(-6.17861e-07 5.02968e-06 0)
(-8.61233e-07 5.04027e-06 0)
(-1.10381e-06 5.05419e-06 0)
(-1.34652e-06 5.07139e-06 0)
(-1.59027e-06 5.09186e-06 0)
(-1.83596e-06 5.11564e-06 0)
(-2.0845e-06 5.14279e-06 0)
(-2.33681e-06 5.17341e-06 0)
(-2.59386e-06 5.20765e-06 0)
(-2.85664e-06 5.2457e-06 0)
(-3.12622e-06 5.28778e-06 0)
(-3.40374e-06 5.33418e-06 0)
(-3.69046e-06 5.38522e-06 0)
(-3.98774e-06 5.44129e-06 0)
(-4.29711e-06 5.50282e-06 0)
(-4.62029e-06 5.5703e-06 0)
(-4.95927e-06 5.64428e-06 0)
(-5.31634e-06 5.72534e-06 0)
(-5.69425e-06 5.81412e-06 0)
(-6.09631e-06 5.91129e-06 0)
(-6.52658e-06 6.01756e-06 0)
(-6.9902e-06 6.13367e-06 0)
(-7.49376e-06 6.26034e-06 0)
(-8.0459e-06 6.39833e-06 0)
(-8.65826e-06 6.54843e-06 0)
(-9.3468e-06 6.71153e-06 0)
(-1.01339e-05 6.88871e-06 0)
(-1.1052e-05 7.08149e-06 0)
(-1.21484e-05 7.29229e-06 0)
(-1.34948e-05 7.52515e-06 0)
(-1.52013e-05 7.78707e-06 0)
(-1.74419e-05 8.09025e-06 0)
(-2.04954e-05 8.45576e-06 0)
(-2.48184e-05 8.91969e-06 0)
(-3.11678e-05 9.54312e-06 0)
(-4.08147e-05 1.04285e-05 0)
(-5.51864e-05 1.13072e-05 0)
(-2.60825e-05 -1.12209e-05 0)
(-1.21544e-07 5.37457e-06 0)
(-3.6299e-07 5.37977e-06 0)
(-6.01641e-07 5.38995e-06 0)
(-8.3845e-07 5.40498e-06 0)
(-1.07431e-06 5.42479e-06 0)
(-1.31007e-06 5.44935e-06 0)
(-1.54656e-06 5.47871e-06 0)
(-1.7846e-06 5.51297e-06 0)
(-2.02497e-06 5.55229e-06 0)
(-2.26852e-06 5.59688e-06 0)
(-2.51605e-06 5.64703e-06 0)
(-2.76845e-06 5.70309e-06 0)
(-3.02662e-06 5.76552e-06 0)
(-3.29152e-06 5.83483e-06 0)
(-3.56418e-06 5.91165e-06 0)
(-3.84574e-06 5.99674e-06 0)
(-4.13743e-06 6.09096e-06 0)
(-4.44065e-06 6.19536e-06 0)
(-4.75697e-06 6.31117e-06 0)
(-5.08823e-06 6.43986e-06 0)
(-5.43653e-06 6.58321e-06 0)
(-5.8044e-06 6.74334e-06 0)
(-6.19483e-06 6.92292e-06 0)
(-6.61147e-06 7.12526e-06 0)
(-7.05874e-06 7.35459e-06 0)
(-7.54208e-06 7.61643e-06 0)
(-8.06807e-06 7.91812e-06 0)
(-8.64468e-06 8.26961e-06 0)
(-9.28129e-06 8.68472e-06 0)
(-9.9884e-06 9.18293e-06 0)
(-1.07767e-05 9.7922e-06 0)
(-1.16546e-05 1.05533e-05 0)
(-1.26228e-05 1.15265e-05 0)
(-1.36634e-05 1.28019e-05 0)
(-1.47177e-05 1.45157e-05 0)
(-1.56453e-05 1.68756e-05 0)
(-1.61454e-05 2.0201e-05 0)
(-1.56133e-05 2.49864e-05 0)
(-9.5756e-06 2.97962e-05 0)
(-9.97181e-07 4.75235e-07 0)
(-1.17227e-07 5.7194e-06 0)
(-3.50055e-07 5.72597e-06 0)
(-5.80067e-07 5.73886e-06 0)
(-8.08103e-07 5.75789e-06 0)
(-1.03495e-06 5.783e-06 0)
(-1.26134e-06 5.81417e-06 0)
(-1.48798e-06 5.85147e-06 0)
(-1.71556e-06 5.89504e-06 0)
(-1.94474e-06 5.9451e-06 0)
(-2.17618e-06 6.00196e-06 0)
(-2.41053e-06 6.06598e-06 0)
(-2.64846e-06 6.13764e-06 0)
(-2.89063e-06 6.21752e-06 0)
(-3.13773e-06 6.30631e-06 0)
(-3.39045e-06 6.40482e-06 0)
(-3.64954e-06 6.51403e-06 0)
(-3.91575e-06 6.6351e-06 0)
(-4.18989e-06 6.76939e-06 0)
(-4.47281e-06 6.91852e-06 0)
(-4.7654e-06 7.08446e-06 0)
(-5.0686e-06 7.26953e-06 0)
(-5.38338e-06 7.47658e-06 0)
(-5.7107e-06 7.70906e-06 0)
(-6.05148e-06 7.97123e-06 0)
(-6.40645e-06 8.26836e-06 0)
(-6.776e-06 8.60704e-06 0)
(-7.15985e-06 8.99552e-06 0)
(-7.55655e-06 9.44418e-06 0)
(-7.96268e-06 9.96605e-06 0)
(-8.37169e-06 1.05774e-05 0)
(-8.77202e-06 1.12984e-05 0)
(-9.14464e-06 1.21533e-05 0)
(-9.45951e-06 1.31703e-05 0)
(-9.67127e-06 1.43799e-05 0)
(-9.71464e-06 1.58105e-05 0)
(-9.5012e-06 1.74788e-05 0)
(-8.92193e-06 1.93702e-05 0)
(-7.86461e-06 2.14015e-05 0)
(-4.30636e-06 1.90897e-05 0)
(-1.83361e-07 5.3283e-07 0)
(-1.1197e-07 6.0504e-06 0)
(-3.34303e-07 6.05815e-06 0)
(-5.53788e-07 6.07336e-06 0)
(-7.71129e-07 6.09582e-06 0)
(-9.86972e-07 6.12543e-06 0)
(-1.20192e-06 6.16219e-06 0)
(-1.41654e-06 6.20617e-06 0)
(-1.63136e-06 6.25751e-06 0)
(-1.84688e-06 6.31647e-06 0)
(-2.06356e-06 6.38336e-06 0)
(-2.28187e-06 6.4586e-06 0)
(-2.50222e-06 6.5427e-06 0)
(-2.72499e-06 6.63628e-06 0)
(-2.95057e-06 6.74008e-06 0)
(-3.17927e-06 6.85495e-06 0)
(-3.41138e-06 6.98192e-06 0)
(-3.64713e-06 7.12218e-06 0)
(-3.88669e-06 7.27713e-06 0)
(-4.13011e-06 7.44838e-06 0)
(-4.37734e-06 7.63785e-06 0)
(-4.62813e-06 7.84777e-06 0)
(-4.882e-06 8.08073e-06 0)
(-5.13812e-06 8.3398e-06 0)
(-5.39518e-06 8.62854e-06 0)
(-5.65125e-06 8.95111e-06 0)
(-5.90345e-06 9.31229e-06 0)
(-6.14772e-06 9.71757e-06 0)
(-6.37835e-06 1.01731e-05 0)
(-6.58745e-06 1.06855e-05 0)
(-6.76437e-06 1.12618e-05 0)
(-6.89496e-06 1.19086e-05 0)
(-6.96101e-06 1.26313e-05 0)
(-6.93972e-06 1.34325e-05 0)
(-6.80379e-06 1.43099e-05 0)
(-6.52244e-06 1.52529e-05 0)
(-6.06396e-06 1.62389e-05 0)
(-5.40041e-06 1.72291e-05 0)
(-4.51471e-06 1.81649e-05 0)
(-2.32868e-06 1.38679e-05 0)
(9.86108e-09 1.84991e-07 0)
(-1.0593e-07 6.36508e-06 0)
(-3.16207e-07 6.37379e-06 0)
(-5.23608e-07 6.39086e-06 0)
(-7.28682e-07 6.41607e-06 0)
(-9.31931e-07 6.44927e-06 0)
(-1.13381e-06 6.49045e-06 0)
(-1.33472e-06 6.53965e-06 0)
(-1.53505e-06 6.59701e-06 0)
(-1.73511e-06 6.66274e-06 0)
(-1.93519e-06 6.73716e-06 0)
(-2.13552e-06 6.82064e-06 0)
(-2.33631e-06 6.91367e-06 0)
(-2.53767e-06 7.01681e-06 0)
(-2.73968e-06 7.13073e-06 0)
(-2.94232e-06 7.2562e-06 0)
(-3.14548e-06 7.39412e-06 0)
(-3.34894e-06 7.54552e-06 0)
(-3.55234e-06 7.71155e-06 0)
(-3.75513e-06 7.89353e-06 0)
(-3.95656e-06 8.09294e-06 0)
(-4.15558e-06 8.31142e-06 0)
(-4.35083e-06 8.5508e-06 0)
(-4.54048e-06 8.81309e-06 0)
(-4.72219e-06 9.10043e-06 0)
(-4.89296e-06 9.41508e-06 0)
(-5.04897e-06 9.75934e-06 0)
(-5.18547e-06 1.01354e-05 0)
(-5.29658e-06 1.05452e-05 0)
(-5.37516e-06 1.09901e-05 0)
(-5.41277e-06 1.14705e-05 0)
(-5.39961e-06 1.19853e-05 0)
(-5.32478e-06 1.25312e-05 0)
(-5.17665e-06 1.31022e-05 0)
(-4.94368e-06 1.36883e-05 0)
(-4.61558e-06 1.4275e-05 0)
(-4.18494e-06 1.48425e-05 0)
(-3.64918e-06 1.53664e-05 0)
(-3.01257e-06 1.58177e-05 0)
(-1.52853e-06 1.09562e-05 0)
(5.27648e-08 7.79241e-08 0)
(-9.92817e-08 6.66144e-06 0)
(-2.96296e-07 6.67086e-06 0)
(-4.90418e-07 6.68931e-06 0)
(-6.82044e-07 6.71654e-06 0)
(-8.71522e-07 6.75236e-06 0)
(-1.05916e-06 6.79672e-06 0)
(-1.24522e-06 6.84963e-06 0)
(-1.42992e-06 6.91117e-06 0)
(-1.61342e-06 6.98151e-06 0)
(-1.79584e-06 7.06089e-06 0)
(-1.97723e-06 7.14962e-06 0)
(-2.1576e-06 7.24809e-06 0)
(-2.33684e-06 7.35673e-06 0)
(-2.5148e-06 7.47607e-06 0)
(-2.69121e-06 7.60671e-06 0)
(-2.86568e-06 7.7493e-06 0)
(-3.03768e-06 7.90456e-06 0)
(-3.20654e-06 8.0733e-06 0)
(-3.37137e-06 8.25636e-06 0)
(-3.53107e-06 8.45463e-06 0)
(-3.68428e-06 8.66904e-06 0)
(-3.8293e-06 8.9005e-06 0)
(-3.96411e-06 9.1499e-06 0)
(-4.08627e-06 9.41802e-06 0)
(-4.19288e-06 9.70547e-06 0)
(-4.28057e-06 1.00126e-05 0)
(-4.34545e-06 1.03393e-05 0)
(-4.38314e-06 1.06849e-05 0)
(-4.38881e-06 1.10481e-05 0)
(-4.35732e-06 1.14263e-05 0)
(-4.28339e-06 1.18159e-05 0)
(-4.1619e-06 1.22117e-05 0)
(-3.98829e-06 1.26069e-05 0)
(-3.75911e-06 1.29927e-05 0)
(-3.47254e-06 1.33587e-05 0)
(-3.12905e-06 1.36928e-05 0)
(-2.73193e-06 1.39821e-05 0)
(-2.2876e-06 1.42136e-05 0)
(-1.16705e-06 9.19498e-06 0)
(5.7333e-08 4.24874e-08 0)
(-9.22069e-08 6.93798e-06 0)
(-2.75114e-07 6.94787e-06 0)
(-4.55137e-07 6.96722e-06 0)
(-6.32522e-07 6.99574e-06 0)
(-8.07476e-07 7.03323e-06 0)
(-9.80168e-07 7.07956e-06 0)
(-1.15073e-06 7.13469e-06 0)
(-1.31923e-06 7.19865e-06 0)
(-1.48571e-06 7.27153e-06 0)
(-1.65015e-06 7.35348e-06 0)
(-1.81245e-06 7.44469e-06 0)
(-1.97247e-06 7.54543e-06 0)
(-2.12998e-06 7.65599e-06 0)
(-2.28465e-06 7.77668e-06 0)
(-2.43607e-06 7.90789e-06 0)
(-2.5837e-06 8.04999e-06 0)
(-2.72689e-06 8.20339e-06 0)
(-2.86482e-06 8.36847e-06 0)
(-2.99654e-06 8.54562e-06 0)
(-3.12089e-06 8.73518e-06 0)
(-3.23652e-06 8.93741e-06 0)
(-3.34187e-06 9.15248e-06 0)
(-3.43515e-06 9.3804e-06 0)
(-3.51432e-06 9.62097e-06 0)
(-3.57716e-06 9.87375e-06 0)
(-3.62118e-06 1.01379e-05 0)
(-3.64378e-06 1.04122e-05 0)
(-3.64223e-06 1.0695e-05 0)
(-3.61379e-06 1.09838e-05 0)
(-3.55588e-06 1.12756e-05 0)
(-3.4662e-06 1.15666e-05 0)
(-3.34294e-06 1.18523e-05 0)
(-3.18503e-06 1.21273e-05 0)
(-2.9924e-06 1.23858e-05 0)
(-2.76614e-06 1.26212e-05 0)
(-2.50877e-06 1.28271e-05 0)
(-2.22432e-06 1.2997e-05 0)
(-1.91841e-06 1.31252e-05 0)
(-9.92079e-07 8.01836e-06 0)
(5.25876e-08 2.82988e-08 0)
(-8.48805e-08 7.19372e-06 0)
(-2.53188e-07 7.20384e-06 0)
(-4.1865e-07 7.22364e-06 0)
(-5.81373e-07 7.25279e-06 0)
(-7.41438e-07 7.29104e-06 0)
(-8.98894e-07 7.33822e-06 0)
(-1.05375e-06 7.39423e-06 0)
(-1.20599e-06 7.45902e-06 0)
(-1.35553e-06 7.5326e-06 0)
(-1.50224e-06 7.61502e-06 0)
(-1.64595e-06 7.70636e-06 0)
(-1.78642e-06 7.80673e-06 0)
(-1.92332e-06 7.91626e-06 0)
(-2.05628e-06 8.03509e-06 0)
(-2.18482e-06 8.16337e-06 0)
(-2.30837e-06 8.30121e-06 0)
(-2.42626e-06 8.44873e-06 0)
(-2.53774e-06 8.60598e-06 0)
(-2.6419e-06 8.77294e-06 0)
(-2.73775e-06 8.94953e-06 0)
(-2.82416e-06 9.13554e-06 0)
(-2.89988e-06 9.33061e-06 0)
(-2.96357e-06 9.53421e-06 0)
(-3.01377e-06 9.7456e-06 0)
(-3.04897e-06 9.96378e-06 0)
(-3.06764e-06 1.01874e-05 0)
(-3.06823e-06 1.0415e-05 0)
(-3.04932e-06 1.06444e-05 0)
(-3.00961e-06 1.08734e-05 0)
(-2.94807e-06 1.10991e-05 0)
(-2.86402e-06 1.13186e-05 0)
(-2.75724e-06 1.15283e-05 0)
(-2.62803e-06 1.17248e-05 0)
(-2.47737e-06 1.19042e-05 0)
(-2.3069e-06 1.20629e-05 0)
(-2.11898e-06 1.21975e-05 0)
(-1.91666e-06 1.2305e-05 0)
(-1.70356e-06 1.23829e-05 0)
(-8.91266e-07 7.15309e-06 0)
(4.60394e-08 2.16319e-08 0)
(-7.7464e-08 7.42818e-06 0)
(-2.31004e-07 7.43832e-06 0)
(-3.81764e-07 7.45816e-06 0)
(-5.29735e-07 7.48734e-06 0)
(-6.74888e-07 7.52556e-06 0)
(-8.17174e-07 7.57261e-06 0)
(-9.56513e-07 7.62833e-06 0)
(-1.0928e-06 7.6926e-06 0)
(-1.22587e-06 7.76534e-06 0)
(-1.35556e-06 7.84651e-06 0)
(-1.48161e-06 7.93608e-06 0)
(-1.60375e-06 8.03402e-06 0)
(-1.72163e-06 8.14033e-06 0)
(-1.83487e-06 8.25497e-06 0)
(-1.94301e-06 8.3779e-06 0)
(-2.04552e-06 8.50905e-06 0)
(-2.14183e-06 8.64827e-06 0)
(-2.23128e-06 8.79539e-06 0)
(-2.31317e-06 8.95012e-06 0)
(-2.38672e-06 9.11208e-06 0)
(-2.45111e-06 9.28079e-06 0)
(-2.50547e-06 9.45561e-06 0)
(-2.54892e-06 9.63572e-06 0)
(-2.58055e-06 9.82015e-06 0)
(-2.59951e-06 1.00077e-05 0)
(-2.60496e-06 1.0197e-05 0)
(-2.59618e-06 1.03865e-05 0)
(-2.57258e-06 1.05742e-05 0)
(-2.53374e-06 1.07582e-05 0)
(-2.4795e-06 1.09363e-05 0)
(-2.40993e-06 1.11062e-05 0)
(-2.32544e-06 1.12653e-05 0)
(-2.22677e-06 1.14114e-05 0)
(-2.11502e-06 1.1542e-05 0)
(-1.99162e-06 1.1655e-05 0)
(-1.85834e-06 1.17486e-05 0)
(-1.71718e-06 1.18213e-05 0)
(-1.57031e-06 1.1872e-05 0)
(-8.28606e-07 6.4825e-06 0)
(3.95999e-08 1.81145e-08 0)
(-7.00984e-08 7.64128e-06 0)
(-2.08981e-07 7.65128e-06 0)
(-3.45182e-07 7.67081e-06 0)
(-4.78592e-07 7.69949e-06 0)
(-6.09095e-07 7.73702e-06 0)
(-7.36562e-07 7.78312e-06 0)
(-8.60847e-07 7.83759e-06 0)
(-9.81779e-07 7.90025e-06 0)
(-1.09916e-06 7.97094e-06 0)
(-1.21278e-06 8.04953e-06 0)
(-1.32236e-06 8.1359e-06 0)
(-1.42763e-06 8.22993e-06 0)
(-1.52825e-06 8.33148e-06 0)
(-1.62387e-06 8.44041e-06 0)
(-1.71409e-06 8.55652e-06 0)
(-1.79848e-06 8.67961e-06 0)
(-1.87659e-06 8.80939e-06 0)
(-1.94792e-06 8.9455e-06 0)
(-2.01198e-06 9.08754e-06 0)
(-2.06825e-06 9.23497e-06 0)
(-2.11619e-06 9.38718e-06 0)
(-2.15531e-06 9.5434e-06 0)
(-2.18512e-06 9.70277e-06 0)
(-2.20519e-06 9.86426e-06 0)
(-2.21513e-06 1.00267e-05 0)
(-2.21465e-06 1.01889e-05 0)
(-2.20357e-06 1.03493e-05 0)
(-2.18184e-06 1.05063e-05 0)
(-2.14956e-06 1.06584e-05 0)
(-2.10697e-06 1.08038e-05 0)
(-2.05453e-06 1.09407e-05 0)
(-1.99285e-06 1.10675e-05 0)
(-1.92273e-06 1.11823e-05 0)
(-1.84515e-06 1.12836e-05 0)
(-1.76123e-06 1.13701e-05 0)
(-1.67221e-06 1.14406e-05 0)
(-1.57945e-06 1.14943e-05 0)
(-1.48436e-06 1.15305e-05 0)
(-7.88001e-07 5.93187e-06 0)
(3.36907e-08 1.6167e-08 0)
(-6.29021e-08 7.83336e-06 0)
(-1.87475e-07 7.84305e-06 0)
(-3.09489e-07 7.86199e-06 0)
(-4.28757e-07 7.88977e-06 0)
(-5.45094e-07 7.92607e-06 0)
(-6.58311e-07 7.97058e-06 0)
(-7.68214e-07 8.02304e-06 0)
(-8.74594e-07 8.08324e-06 0)
(-9.7723e-07 8.15096e-06 0)
(-1.07588e-06 8.226e-06 0)
(-1.17029e-06 8.30817e-06 0)