/*--------------------------------*- C++ -*----------------------------------*\
  =========                 |
  \\      /  F ield         | OpenFOAM: The Open Source CFD Toolbox
   \\    /   O peration     | Website:  https://openfoam.org
    \\  /    A nd           | Version:  7
     \\/     M anipulation  |
\*---------------------------------------------------------------------------*/
FoamFile
{
    version     2.0;
    format      ascii;
    class       volVectorField;
    location    "5000";
    object      Ub;
}
// * * * * * * * * * * * * * * * * * * * * * * * * * * * * * * * * * * * * * //

dimensions      [0 1 -1 0 0 0 0];

internalField   nonuniform List<vector> 
3200
(
(-1.64115e-21 -9.87896e-16 0)
(-4.88675e-21 -9.87896e-16 0)
(-8.05229e-21 -9.87896e-16 0)
(-1.1125e-20 -9.87896e-16 0)
(-1.40926e-20 -9.87896e-16 0)
(-1.69438e-20 -9.87896e-16 0)
(-1.96671e-20 -9.87896e-16 0)
(-2.22513e-20 -9.87897e-16 0)
(-2.46853e-20 -9.87897e-16 0)
(-2.69578e-20 -9.87897e-16 0)
(-2.90573e-20 -9.87897e-16 0)
(-3.09722e-20 -9.87897e-16 0)
(-3.26908e-20 -9.87897e-16 0)
(-3.42013e-20 -9.87897e-16 0)
(-3.54917e-20 -9.87897e-16 0)
(-3.65502e-20 -9.87898e-16 0)
(-3.73651e-20 -9.87898e-16 0)
(-3.79252e-20 -9.87898e-16 0)
(-3.82197e-20 -9.87898e-16 0)
(-3.82388e-20 -9.87899e-16 0)
(-3.79735e-20 -9.87899e-16 0)
(-3.74165e-20 -9.87899e-16 0)
(-3.65622e-20 -9.879e-16 0)
(-3.5407e-20 -9.879e-16 0)
(-3.39498e-20 -9.879e-16 0)
(-3.21926e-20 -9.87901e-16 0)
(-3.01404e-20 -9.87901e-16 0)
(-2.78019e-20 -9.87901e-16 0)
(-2.51896e-20 -9.87902e-16 0)
(-2.23201e-20 -9.87902e-16 0)
(-1.92137e-20 -9.87903e-16 0)
(-1.5895e-20 -9.87903e-16 0)
(-1.23919e-20 -9.87903e-16 0)
(-8.73584e-21 -9.87903e-16 0)
(-4.96066e-21 -9.87904e-16 0)
(-1.10212e-21 -9.87904e-16 0)
(2.80302e-21 -9.87904e-16 0)
(6.71797e-21 -9.87904e-16 0)
(1.06068e-20 -9.87904e-16 0)
(1.44355e-20 -9.87904e-16 0)
(-1.65785e-21 -9.87891e-16 0)
(-4.93693e-21 -9.87891e-16 0)
(-8.13645e-21 -9.87891e-16 0)
(-1.12442e-20 -9.87892e-16 0)
(-1.42489e-20 -9.87892e-16 0)
(-1.71392e-20 -9.87892e-16 0)
(-1.99046e-20 -9.87892e-16 0)
(-2.25343e-20 -9.87892e-16 0)
(-2.50175e-20 -9.87893e-16 0)
(-2.73434e-20 -9.87893e-16 0)
(-2.95008e-20 -9.87893e-16 0)
(-3.14784e-20 -9.87894e-16 0)
(-3.32648e-20 -9.87894e-16 0)
(-3.4848e-20 -9.87895e-16 0)
(-3.62163e-20 -9.87895e-16 0)
(-3.73574e-20 -9.87896e-16 0)
(-3.82594e-20 -9.87896e-16 0)
(-3.89105e-20 -9.87897e-16 0)
(-3.92988e-20 -9.87898e-16 0)
(-3.94134e-20 -9.87899e-16 0)
(-3.92437e-20 -9.879e-16 0)
(-3.87806e-20 -9.87901e-16 0)
(-3.80159e-20 -9.87902e-16 0)
(-3.69433e-20 -9.87903e-16 0)
(-3.55587e-20 -9.87904e-16 0)
(-3.38605e-20 -9.87905e-16 0)
(-3.185e-20 -9.87906e-16 0)
(-2.95322e-20 -9.87907e-16 0)
(-2.69159e-20 -9.87908e-16 0)
(-2.40144e-20 -9.87909e-16 0)
(-2.08453e-20 -9.8791e-16 0)
(-1.74313e-20 -9.87911e-16 0)
(-1.37995e-20 -9.87912e-16 0)
(-9.98202e-21 -9.87913e-16 0)
(-6.01459e-21 -9.87914e-16 0)
(-1.93647e-21 -9.87915e-16 0)
(2.21074e-21 -9.87915e-16 0)
(6.38427e-21 -9.87915e-16 0)
(1.05415e-20 -9.87915e-16 0)
(1.46411e-20 -9.87915e-16 0)
(-1.69045e-21 -9.87887e-16 0)
(-5.03488e-21 -9.87887e-16 0)
(-8.30077e-21 -9.87887e-16 0)
(-1.14772e-20 -9.87887e-16 0)
(-1.4554e-20 -9.87887e-16 0)
(-1.75212e-20 -9.87887e-16 0)
(-2.03691e-20 -9.87888e-16 0)
(-2.30879e-20 -9.87888e-16 0)
(-2.56678e-20 -9.87888e-16 0)
(-2.80987e-20 -9.87889e-16 0)
(-3.03704e-20 -9.8789e-16 0)
(-3.24719e-20 -9.8789e-16 0)
(-3.43924e-20 -9.87891e-16 0)
(-3.61204e-20 -9.87892e-16 0)
(-3.76439e-20 -9.87893e-16 0)
(-3.89507e-20 -9.87894e-16 0)
(-4.00282e-20 -9.87895e-16 0)
(-4.08636e-20 -9.87896e-16 0)
(-4.14436e-20 -9.87897e-16 0)
(-4.17552e-20 -9.87899e-16 0)
(-4.1785e-20 -9.879e-16 0)
(-4.15202e-20 -9.87902e-16 0)
(-4.09482e-20 -9.87903e-16 0)
(-4.00574e-20 -9.87905e-16 0)
(-3.88374e-20 -9.87907e-16 0)
(-3.72795e-20 -9.87909e-16 0)
(-3.5377e-20 -9.87911e-16 0)
(-3.31266e-20 -9.87913e-16 0)
(-3.05286e-20 -9.87915e-16 0)
(-2.75878e-20 -9.87917e-16 0)
(-2.43146e-20 -9.87919e-16 0)
(-2.07258e-20 -9.87921e-16 0)
(-1.68449e-20 -9.87922e-16 0)
(-1.2703e-20 -9.87924e-16 0)
(-8.33865e-21 -9.87925e-16 0)
(-3.7973e-21 -9.87926e-16 0)
(8.69369e-22 -9.87927e-16 0)
(5.6052e-21 -9.87928e-16 0)
(1.03516e-20 -9.87928e-16 0)
(1.50498e-20 -9.87928e-16 0)
(-1.73737e-21 -9.87882e-16 0)
(-5.1759e-21 -9.87882e-16 0)
(-8.53737e-21 -9.87882e-16 0)
(-1.18128e-20 -9.87882e-16 0)
(-1.49938e-20 -9.87882e-16 0)
(-1.8072e-20 -9.87883e-16 0)
(-2.10393e-20 -9.87883e-16 0)
(-2.38874e-20 -9.87884e-16 0)
(-2.66079e-20 -9.87884e-16 0)
(-2.91921e-20 -9.87885e-16 0)
(-3.16306e-20 -9.87886e-16 0)
(-3.39141e-20 -9.87887e-16 0)
(-3.60323e-20 -9.87888e-16 0)
(-3.79744e-20 -9.87889e-16 0)
(-3.97292e-20 -9.8789e-16 0)
(-4.12844e-20 -9.87891e-16 0)
(-4.26272e-20 -9.87893e-16 0)
(-4.37439e-20 -9.87894e-16 0)
(-4.46199e-20 -9.87896e-16 0)
(-4.52398e-20 -9.87898e-16 0)
(-4.55871e-20 -9.879e-16 0)
(-4.56446e-20 -9.87902e-16 0)
(-4.5394e-20 -9.87905e-16 0)
(-4.48164e-20 -9.87907e-16 0)
(-4.38923e-20 -9.8791e-16 0)
(-4.26023e-20 -9.87913e-16 0)
(-4.09272e-20 -9.87915e-16 0)
(-3.88493e-20 -9.87918e-16 0)
(-3.63532e-20 -9.87921e-16 0)
(-3.34273e-20 -9.87924e-16 0)
(-3.00655e-20 -9.87927e-16 0)
(-2.62695e-20 -9.8793e-16 0)
(-2.20504e-20 -9.87933e-16 0)
(-1.74313e-20 -9.87936e-16 0)
(-1.24487e-20 -9.87938e-16 0)
(-7.15413e-21 -9.8794e-16 0)
(-1.61355e-21 -9.87941e-16 0)
(4.0936e-21 -9.87942e-16 0)
(9.87764e-21 -9.87943e-16 0)
(1.56434e-20 -9.87943e-16 0)
(-1.79631e-21 -9.87876e-16 0)
(-5.35306e-21 -9.87877e-16 0)
(-8.83472e-21 -9.87877e-16 0)
(-1.22348e-20 -9.87877e-16 0)
(-1.55471e-20 -9.87877e-16 0)
(-1.87656e-20 -9.87878e-16 0)
(-2.1884e-20 -9.87878e-16 0)
(-2.48963e-20 -9.87879e-16 0)
(-2.77957e-20 -9.8788e-16 0)
(-3.05755e-20 -9.8788e-16 0)
(-3.32281e-20 -9.87881e-16 0)
(-3.57457e-20 -9.87882e-16 0)
(-3.81197e-20 -9.87884e-16 0)
(-4.03407e-20 -9.87885e-16 0)
(-4.23986e-20 -9.87886e-16 0)
(-4.42821e-20 -9.87888e-16 0)
(-4.59791e-20 -9.8789e-16 0)
(-4.74758e-20 -9.87892e-16 0)
(-4.87574e-20 -9.87894e-16 0)
(-4.98069e-20 -9.87897e-16 0)
(-5.06058e-20 -9.87899e-16 0)
(-5.11331e-20 -9.87902e-16 0)
(-5.13653e-20 -9.87905e-16 0)
(-5.12762e-20 -9.87908e-16 0)
(-5.08363e-20 -9.87912e-16 0)
(-5.00132e-20 -9.87915e-16 0)
(-4.87713e-20 -9.87919e-16 0)
(-4.70723e-20 -9.87923e-16 0)
(-4.48762e-20 -9.87928e-16 0)
(-4.21426e-20 -9.87932e-16 0)
(-3.88335e-20 -9.87936e-16 0)
(-3.49162e-20 -9.87941e-16 0)
(-3.03681e-20 -9.87945e-16 0)
(-2.51822e-20 -9.87949e-16 0)
(-1.93732e-20 -9.87953e-16 0)
(-1.29838e-20 -9.87956e-16 0)
(-6.08979e-21 -9.87959e-16 0)
(1.19721e-21 -9.87961e-16 0)
(8.73169e-21 -9.87962e-16 0)
(1.63418e-20 -9.87962e-16 0)
(-1.86431e-21 -9.87871e-16 0)
(-5.55748e-21 -9.87871e-16 0)
(-9.17797e-21 -9.87871e-16 0)
(-1.27222e-20 -9.87872e-16 0)
(-1.61867e-20 -9.87872e-16 0)
(-1.95681e-20 -9.87873e-16 0)
(-2.28626e-20 -9.87873e-16 0)
(-2.60665e-20 -9.87874e-16 0)
(-2.91757e-20 -9.87875e-16 0)
(-3.21855e-20 -9.87876e-16 0)
(-3.5091e-20 -9.87877e-16 0)
(-3.78866e-20 -9.87878e-16 0)
(-4.05658e-20 -9.87879e-16 0)
(-4.31218e-20 -9.87881e-16 0)
(-4.55464e-20 -9.87882e-16 0)
(-4.78308e-20 -9.87884e-16 0)
(-4.99644e-20 -9.87886e-16 0)
(-5.19358e-20 -9.87889e-16 0)
(-5.37312e-20 -9.87891e-16 0)
(-5.5335e-20 -9.87894e-16 0)
(-5.67289e-20 -9.87897e-16 0)
(-5.78916e-20 -9.879e-16 0)
(-5.87976e-20 -9.87904e-16 0)
(-5.94167e-20 -9.87908e-16 0)
(-5.97131e-20 -9.87912e-16 0)
(-5.96437e-20 -9.87917e-16 0)
(-5.91575e-20 -9.87922e-16 0)
(-5.81938e-20 -9.87927e-16 0)
(-5.66818e-20 -9.87933e-16 0)
(-5.45402e-20 -9.87939e-16 0)
(-5.16778e-20 -9.87945e-16 0)
(-4.7997e-20 -9.87951e-16 0)
(-4.33985e-20 -9.87958e-16 0)
(-3.77914e-20 -9.87964e-16 0)
(-3.11062e-20 -9.8797e-16 0)
(-2.33144e-20 -9.87976e-16 0)
(-1.44504e-20 -9.87981e-16 0)
(-4.63509e-21 -9.87985e-16 0)
(5.90596e-21 -9.87988e-16 0)
(1.684e-20 -9.87989e-16 0)
(-1.93785e-21 -9.87866e-16 0)
(-5.77865e-21 -9.87866e-16 0)
(-9.54951e-21 -9.87866e-16 0)
(-1.32501e-20 -9.87866e-16 0)
(-1.68802e-20 -9.87867e-16 0)
(-2.04391e-20 -9.87867e-16 0)
(-2.39261e-20 -9.87868e-16 0)
(-2.73404e-20 -9.87869e-16 0)
(-3.06804e-20 -9.87869e-16 0)
(-3.39445e-20 -9.8787e-16 0)
(-3.71307e-20 -9.87872e-16 0)
(-4.02361e-20 -9.87873e-16 0)
(-4.32577e-20 -9.87874e-16 0)
(-4.61914e-20 -9.87876e-16 0)
(-4.90326e-20 -9.87878e-16 0)
(-5.17757e-20 -9.8788e-16 0)
(-5.44141e-20 -9.87882e-16 0)
(-5.694e-20 -9.87884e-16 0)
(-5.93439e-20 -9.87887e-16 0)
(-6.16148e-20 -9.8789e-16 0)
(-6.37389e-20 -9.87894e-16 0)
(-6.56999e-20 -9.87897e-16 0)
(-6.74773e-20 -9.87901e-16 0)
(-6.90457e-20 -9.87906e-16 0)
(-7.03727e-20 -9.87911e-16 0)
(-7.14168e-20 -9.87916e-16 0)
(-7.21243e-20 -9.87922e-16 0)
(-7.24254e-20 -9.87928e-16 0)
(-7.22291e-20 -9.87935e-16 0)
(-7.14177e-20 -9.87943e-16 0)
(-6.98404e-20 -9.87951e-16 0)
(-6.73076e-20 -9.8796e-16 0)
(-6.35874e-20 -9.8797e-16 0)
(-5.8408e-20 -9.8798e-16 0)
(-5.14694e-20 -9.8799e-16 0)
(-4.24736e-20 -9.88001e-16 0)
(-3.118e-20 -9.88011e-16 0)
(-1.74946e-20 -9.8802e-16 0)
(-1.59409e-21 -9.88027e-16 0)
(1.59343e-20 -9.88031e-16 0)
(-2.01304e-21 -9.8786e-16 0)
(-6.00482e-21 -9.8786e-16 0)
(-9.92968e-21 -9.8786e-16 0)
(-1.37908e-20 -9.87861e-16 0)
(-1.75911e-20 -9.87861e-16 0)
(-2.13332e-20 -9.87862e-16 0)
(-2.50195e-20 -9.87862e-16 0)
(-2.86521e-20 -9.87863e-16 0)
(-3.22328e-20 -9.87864e-16 0)
(-3.57631e-20 -9.87865e-16 0)
(-3.92442e-20 -9.87866e-16 0)
(-4.26767e-20 -9.87867e-16 0)
(-4.60612e-20 -9.87869e-16 0)
(-4.93975e-20 -9.8787e-16 0)
(-5.26852e-20 -9.87872e-16 0)
(-5.59231e-20 -9.87874e-16 0)
(-5.91097e-20 -9.87876e-16 0)
(-6.22428e-20 -9.87879e-16 0)
(-6.53195e-20 -9.87882e-16 0)
(-6.83362e-20 -9.87885e-16 0)
(-7.12885e-20 -9.87889e-16 0)
(-7.41707e-20 -9.87892e-16 0)
(-7.69761e-20 -9.87897e-16 0)
(-7.96954e-20 -9.87901e-16 0)
(-8.23163e-20 -9.87907e-16 0)
(-8.48214e-20 -9.87912e-16 0)
(-8.71845e-20 -9.87919e-16 0)
(-8.93663e-20 -9.87926e-16 0)
(-9.13056e-20 -9.87934e-16 0)
(-9.29077e-20 -9.87943e-16 0)
(-9.40262e-20 -9.87953e-16 0)
(-9.4437e-20 -9.87964e-16 0)
(-9.38031e-20 -9.87977e-16 0)
(-9.16297e-20 -9.87992e-16 0)
(-8.72112e-20 -9.88008e-16 0)
(-7.95843e-20 -9.88027e-16 0)
(-6.75154e-20 -9.88048e-16 0)
(-4.95892e-20 -9.88071e-16 0)
(-2.45375e-20 -9.88092e-16 0)
(7.92572e-21 -9.88109e-16 0)
(-2.08573e-21 -9.87854e-16 0)
(-6.22356e-21 -9.87854e-16 0)
(-1.02976e-20 -9.87854e-16 0)
(-1.43146e-20 -9.87855e-16 0)
(-1.82807e-20 -9.87855e-16 0)
(-2.22018e-20 -9.87855e-16 0)
(-2.60836e-20 -9.87856e-16 0)
(-2.99312e-20 -9.87857e-16 0)
(-3.37498e-20 -9.87858e-16 0)
(-3.75442e-20 -9.87859e-16 0)
(-4.13191e-20 -9.8786e-16 0)
(-4.50788e-20 -9.87861e-16 0)
(-4.88278e-20 -9.87862e-16 0)
(-5.257e-20 -9.87864e-16 0)
(-5.63095e-20 -9.87866e-16 0)
(-6.00501e-20 -9.87868e-16 0)
(-6.37958e-20 -9.8787e-16 0)
(-6.75505e-20 -9.87872e-16 0)
(-7.13184e-20 -9.87875e-16 0)
(-7.51047e-20 -9.87878e-16 0)
(-7.89152e-20 -9.87882e-16 0)
(-8.27581e-20 -9.87885e-16 0)
(-8.66436e-20 -9.8789e-16 0)
(-9.05862e-20 -9.87894e-16 0)
(-9.46054e-20 -9.87899e-16 0)
(-9.87277e-20 -9.87905e-16 0)
(-1.02988e-19 -9.87911e-16 0)
(-1.07432e-19 -9.87918e-16 0)
(-1.12113e-19 -9.87926e-16 0)
(-1.17094e-19 -9.87935e-16 0)
(-1.22433e-19 -9.87945e-16 0)
(-1.28161e-19 -9.87957e-16 0)
(-1.34233e-19 -9.87971e-16 0)
(-1.40433e-19 -9.87988e-16 0)
(-1.46184e-19 -9.88009e-16 0)
(-1.50206e-19 -9.88037e-16 0)
(-1.49882e-19 -9.88073e-16 0)
(-1.40109e-19 -9.88123e-16 0)
(-1.1125e-19 -9.88192e-16 0)
(-4.55082e-20 -9.92063e-16 0)
(-2.15176e-21 -9.87848e-16 0)
(-6.42233e-21 -9.87848e-16 0)
(-1.06323e-20 -9.87848e-16 0)
(-1.47916e-20 -9.87848e-16 0)
(-1.89097e-20 -9.87849e-16 0)
(-2.29958e-20 -9.87849e-16 0)
(-2.70583e-20 -9.8785e-16 0)
(-3.11057e-20 -9.8785e-16 0)
(-3.51463e-20 -9.87851e-16 0)
(-3.91882e-20 -9.87852e-16 0)
(-4.32395e-20 -9.87853e-16 0)
(-4.73084e-20 -9.87854e-16 0)
(-5.14029e-20 -9.87855e-16 0)
(-5.55312e-20 -9.87857e-16 0)
(-5.97017e-20 -9.87858e-16 0)
(-6.39227e-20 -9.8786e-16 0)
(-6.82031e-20 -9.87862e-16 0)
(-7.2552e-20 -9.87864e-16 0)
(-7.69793e-20 -9.87867e-16 0)
(-8.14963e-20 -9.8787e-16 0)
(-8.6116e-20 -9.87873e-16 0)
(-9.08546e-20 -9.87876e-16 0)
(-9.57331e-20 -9.8788e-16 0)
(-1.0078e-19 -9.87884e-16 0)
(-1.06034e-19 -9.87889e-16 0)
(-1.11554e-19 -9.87894e-16 0)
(-1.1742e-19 -9.87899e-16 0)
(-1.23757e-19 -9.87905e-16 0)
(-1.30743e-19 -9.87911e-16 0)
(-1.38651e-19 -9.87918e-16 0)
(-1.47886e-19 -9.87926e-16 0)
(-1.59068e-19 -9.87934e-16 0)
(-1.73145e-19 -9.87942e-16 0)
(-1.91593e-19 -9.87952e-16 0)
(-2.16734e-19 -9.87963e-16 0)
(-2.5228e-19 -9.87977e-16 0)
(-3.04245e-19 -9.87993e-16 0)
(-3.82502e-19 -9.88014e-16 0)
(-5.05636e-19 -9.88042e-16 0)
(-6.38944e-09 -5.20548e-13 0)
(-2.20713e-21 -9.87842e-16 0)
(-6.58916e-21 -9.87842e-16 0)
(-1.09135e-20 -9.87842e-16 0)
(-1.51932e-20 -9.87842e-16 0)
(-1.94406e-20 -9.87842e-16 0)
(-2.36676e-20 -9.87843e-16 0)
(-2.78857e-20 -9.87843e-16 0)
(-3.2106e-20 -9.87844e-16 0)
(-3.63398e-20 -9.87844e-16 0)
(-4.05983e-20 -9.87845e-16 0)
(-4.48929e-20 -9.87846e-16 0)
(-4.92349e-20 -9.87847e-16 0)
(-5.36362e-20 -9.87848e-16 0)
(-5.81085e-20 -9.87849e-16 0)
(-6.26642e-20 -9.8785e-16 0)
(-6.73154e-20 -9.87852e-16 0)
(-7.2075e-20 -9.87853e-16 0)
(-7.69558e-20 -9.87855e-16 0)
(-8.19709e-20 -9.87857e-16 0)
(-8.71336e-20 -9.8786e-16 0)
(-9.2458e-20 -9.87862e-16 0)
(-9.79588e-20 -9.87865e-16 0)
(-1.03652e-19 -9.87869e-16 0)
(-1.09557e-19 -9.87872e-16 0)
(-1.15695e-19 -9.87876e-16 0)
(-1.22098e-19 -9.8788e-16 0)
(-1.28808e-19 -9.87884e-16 0)
(-1.35883e-19 -9.87889e-16 0)
(-1.43412e-19 -9.87893e-16 0)
(-1.51524e-19 -9.87898e-16 0)
(-1.60403e-19 -9.87902e-16 0)
(-1.70318e-19 -9.87905e-16 0)
(-1.81636e-19 -9.87907e-16 0)
(-1.94843e-19 -9.87906e-16 0)
(-2.10541e-19 -9.87902e-16 0)
(-2.29385e-19 -9.87893e-16 0)
(-2.519e-19 -9.87874e-16 0)
(-2.78054e-19 -9.87843e-16 0)
(-1.72222e-16 -9.87792e-16 0)
(-1.61518e-06 -5.77137e-11 0)
(-2.24827e-21 -9.87835e-16 0)
(-6.71324e-21 -9.87835e-16 0)
(-1.11231e-20 -9.87835e-16 0)
(-1.54936e-20 -9.87836e-16 0)
(-1.98394e-20 -9.87836e-16 0)
(-2.41747e-20 -9.87836e-16 0)
(-2.85133e-20 -9.87836e-16 0)
(-3.2869e-20 -9.87837e-16 0)
(-3.72554e-20 -9.87837e-16 0)
(-4.16863e-20 -9.87837e-16 0)
(-4.61761e-20 -9.87838e-16 0)
(-5.07389e-20 -9.87839e-16 0)
(-5.53898e-20 -9.87839e-16 0)
(-6.01441e-20 -9.8784e-16 0)
(-6.50172e-20 -9.87841e-16 0)
(-7.00254e-20 -9.87842e-16 0)
(-7.51846e-20 -9.87844e-16 0)
(-8.05109e-20 -9.87845e-16 0)
(-8.60199e-20 -9.87847e-16 0)
(-9.1726e-20 -9.87849e-16 0)
(-9.76419e-20 -9.87851e-16 0)
(-1.03777e-19 -9.87853e-16 0)
(-1.10137e-19 -9.87856e-16 0)
(-1.1672e-19 -9.87858e-16 0)
(-1.23515e-19 -9.87861e-16 0)
(-1.30497e-19 -9.87865e-16 0)
(-1.37623e-19 -9.87868e-16 0)
(-1.44827e-19 -9.87872e-16 0)
(-1.52004e-19 -9.87876e-16 0)
(-1.59006e-19 -9.87879e-16 0)
(-1.65621e-19 -9.87883e-16 0)
(-1.71551e-19 -9.87885e-16 0)
(-1.7638e-19 -9.87886e-16 0)
(-1.79529e-19 -9.87885e-16 0)
(-1.80189e-19 -9.87881e-16 0)
(-1.77226e-19 -9.87872e-16 0)
(-1.69044e-19 -9.87856e-16 0)
(-1.53382e-19 -9.87832e-16 0)
(-6.88226e-15 -9.87798e-16 0)
(-6.97557e-07 -1.67908e-10 0)
(-2.27218e-21 -9.87829e-16 0)
(-6.78559e-21 -9.87829e-16 0)
(-1.12461e-20 -9.87829e-16 0)
(-1.56713e-20 -9.87829e-16 0)
(-2.00776e-20 -9.87829e-16 0)
(-2.4481e-20 -9.87829e-16 0)
(-2.88971e-20 -9.87829e-16 0)
(-3.33415e-20 -9.87829e-16 0)
(-3.78297e-20 -9.8783e-16 0)
(-4.23776e-20 -9.8783e-16 0)
(-4.70016e-20 -9.8783e-16 0)
(-5.17185e-20 -9.8783e-16 0)
(-5.65458e-20 -9.87831e-16 0)
(-6.15019e-20 -9.87831e-16 0)
(-6.66055e-20 -9.87832e-16 0)
(-7.18764e-20 -9.87833e-16 0)
(-7.73346e-20 -9.87833e-16 0)
(-8.30006e-20 -9.87834e-16 0)
(-8.88943e-20 -9.87835e-16 0)
(-9.50348e-20 -9.87836e-16 0)
(-1.01439e-19 -9.87838e-16 0)
(-1.08119e-19 -9.87839e-16 0)
(-1.15081e-19 -9.87841e-16 0)
(-1.22321e-19 -9.87843e-16 0)
(-1.29818e-19 -9.87845e-16 0)
(-1.37528e-19 -9.87848e-16 0)
(-1.45371e-19 -9.87851e-16 0)
(-1.53221e-19 -9.87854e-16 0)
(-1.60881e-19 -9.87858e-16 0)
(-1.68058e-19 -9.87863e-16 0)
(-1.74335e-19 -9.87868e-16 0)
(-1.79125e-19 -9.87873e-16 0)
(-1.81636e-19 -9.87879e-16 0)
(-1.80822e-19 -9.87886e-16 0)
(-1.75367e-19 -9.87893e-16 0)
(-1.63692e-19 -9.87899e-16 0)
(-1.4406e-19 -9.87905e-16 0)
(-1.14823e-19 -9.87908e-16 0)
(-6.36573e-15 -9.87909e-16 0)
(-8.52348e-09 -2.18415e-10 0)
(-2.27665e-21 -9.87822e-16 0)
(-6.79953e-21 -9.87822e-16 0)
(-1.12712e-20 -9.87822e-16 0)
(-1.57102e-20 -9.87822e-16 0)
(-2.01341e-20 -9.87822e-16 0)
(-2.456e-20 -9.87822e-16 0)
(-2.90045e-20 -9.87822e-16 0)
(-3.3484e-20 -9.87822e-16 0)
(-3.80155e-20 -9.87822e-16 0)
(-4.26159e-20 -9.87822e-16 0)
(-4.7303e-20 -9.87822e-16 0)
(-5.20954e-20 -9.87822e-16 0)
(-5.70122e-20 -9.87822e-16 0)
(-6.20742e-20 -9.87822e-16 0)
(-6.73029e-20 -9.87822e-16 0)
(-7.27215e-20 -9.87822e-16 0)
(-7.83546e-20 -9.87822e-16 0)
(-8.42279e-20 -9.87823e-16 0)
(-9.03689e-20 -9.87823e-16 0)
(-9.6806e-20 -9.87823e-16 0)
(-1.03568e-19 -9.87824e-16 0)
(-1.10685e-19 -9.87824e-16 0)
(-1.18184e-19 -9.87825e-16 0)
(-1.2609e-19 -9.87826e-16 0)
(-1.34421e-19 -9.87827e-16 0)
(-1.43182e-19 -9.87829e-16 0)
(-1.52361e-19 -9.87831e-16 0)
(-1.61915e-19 -9.87834e-16 0)
(-1.71752e-19 -9.87838e-16 0)
(-1.81705e-19 -9.87842e-16 0)
(-1.91493e-19 -9.87849e-16 0)
(-2.0066e-19 -9.87857e-16 0)
(-2.0849e-19 -9.87869e-16 0)
(-2.13878e-19 -9.87884e-16 0)
(-2.15162e-19 -9.87905e-16 0)
(-2.09881e-19 -9.87932e-16 0)
(-1.94489e-19 -9.87967e-16 0)
(-1.64039e-19 -9.88011e-16 0)
(-9.42797e-15 -9.88066e-16 0)
(-8.2981e-15 -1.15264e-09 0)
(-2.26035e-21 -9.87816e-16 0)
(-6.7511e-21 -9.87816e-16 0)
(-1.11917e-20 -9.87815e-16 0)
(-1.56009e-20 -9.87815e-16 0)
(-1.99966e-20 -9.87815e-16 0)
(-2.4396e-20 -9.87815e-16 0)
(-2.8816e-20 -9.87815e-16 0)
(-3.32732e-20 -9.87815e-16 0)
(-3.77846e-20 -9.87814e-16 0)
(-4.23676e-20 -9.87814e-16 0)
(-4.70402e-20 -9.87814e-16 0)
(-5.18213e-20 -9.87813e-16 0)
(-5.6731e-20 -9.87813e-16 0)
(-6.17906e-20 -9.87813e-16 0)
(-6.70234e-20 -9.87812e-16 0)
(-7.24545e-20 -9.87812e-16 0)
(-7.81115e-20 -9.87811e-16 0)
(-8.40249e-20 -9.87811e-16 0)
(-9.0229e-20 -9.8781e-16 0)
(-9.67621e-20 -9.8781e-16 0)
(-1.03668e-19 -9.87809e-16 0)
(-1.10997e-19 -9.87809e-16 0)
(-1.18808e-19 -9.87808e-16 0)
(-1.27171e-19 -9.87808e-16 0)
(-1.3617e-19 -9.87808e-16 0)
(-1.45907e-19 -9.87808e-16 0)
(-1.56509e-19 -9.87808e-16 0)
(-1.68135e-19 -9.87808e-16 0)
(-1.80986e-19 -9.8781e-16 0)
(-1.95311e-19 -9.87812e-16 0)
(-2.11424e-19 -9.87816e-16 0)
(-2.29695e-19 -9.87822e-16 0)
(-2.50538e-19 -9.87832e-16 0)
(-2.74332e-19 -9.87847e-16 0)
(-3.0125e-19 -9.87869e-16 0)
(-3.30859e-19 -9.87903e-16 0)
(-3.61308e-19 -9.87955e-16 0)
(-3.87705e-19 -9.88035e-16 0)
(-4.91035e-13 -2.80835e-15 0)
(-4.81346e-13 -3.11034e-05 0)
(-2.22295e-21 -9.87809e-16 0)
(-6.63926e-21 -9.87809e-16 0)
(-1.10058e-20 -9.87809e-16 0)
(-1.5341e-20 -9.87809e-16 0)
(-1.96619e-20 -9.87808e-16 0)
(-2.39853e-20 -9.87808e-16 0)
(-2.83271e-20 -9.87808e-16 0)
(-3.27036e-20 -9.87807e-16 0)
(-3.71308e-20 -9.87807e-16 0)
(-4.16252e-20 -9.87806e-16 0)
(-4.62038e-20 -9.87806e-16 0)
(-5.08847e-20 -9.87805e-16 0)
(-5.56867e-20 -9.87804e-16 0)
(-6.06302e-20 -9.87803e-16 0)
(-6.57375e-20 -9.87803e-16 0)
(-7.10329e-20 -9.87802e-16 0)
(-7.65436e-20 -9.878e-16 0)
(-8.23003e-20 -9.87799e-16 0)
(-8.83384e-20 -9.87798e-16 0)
(-9.46989e-20 -9.87797e-16 0)
(-1.01431e-19 -9.87795e-16 0)
(-1.08592e-19 -9.87793e-16 0)
(-1.16257e-19 -9.87791e-16 0)
(-1.24515e-19 -9.87789e-16 0)
(-1.33485e-19 -9.87787e-16 0)
(-1.4332e-19 -9.87785e-16 0)
(-1.54228e-19 -9.87782e-16 0)
(-1.66493e-19 -9.87779e-16 0)
(-1.80514e-19 -9.87776e-16 0)
(-1.96867e-19 -9.87772e-16 0)
(-2.16397e-19 -9.87769e-16 0)
(-2.40379e-19 -9.87764e-16 0)
(-2.70778e-19 -9.8776e-16 0)
(-3.10689e-19 -9.87754e-16 0)
(-3.65081e-19 -9.87748e-16 0)
(-4.42085e-19 -9.8774e-16 0)
(-5.55185e-19 -9.87729e-16 0)
(-2.26174e-18 -9.87714e-16 0)
(-5.70757e-07 -8.9063e-10 0)
(-4.67321e-07 -0.000184208 0)
(-2.16504e-21 -9.87803e-16 0)
(-6.46586e-21 -9.87803e-16 0)
(-1.07169e-20 -9.87803e-16 0)
(-1.49351e-20 -9.87802e-16 0)
(-1.91364e-20 -9.87802e-16 0)
(-2.3336e-20 -9.87801e-16 0)
(-2.75486e-20 -9.87801e-16 0)
(-3.17886e-20 -9.878e-16 0)
(-3.60705e-20 -9.878e-16 0)
(-4.04086e-20 -9.87799e-16 0)
(-4.4818e-20 -9.87798e-16 0)
(-4.93139e-20 -9.87797e-16 0)
(-5.39126e-20 -9.87796e-16 0)
(-5.86312e-20 -9.87795e-16 0)
(-6.3488e-20 -9.87793e-16 0)
(-6.85033e-20 -9.87792e-16 0)
(-7.36991e-20 -9.8779e-16 0)
(-7.91003e-20 -9.87788e-16 0)
(-8.4735e-20 -9.87786e-16 0)
(-9.06356e-20 -9.87784e-16 0)
(-9.68398e-20 -9.87781e-16 0)
(-1.03393e-19 -9.87778e-16 0)
(-1.10347e-19 -9.87775e-16 0)
(-1.17769e-19 -9.87772e-16 0)
(-1.25736e-19 -9.87768e-16 0)
(-1.34345e-19 -9.87763e-16 0)
(-1.43715e-19 -9.87757e-16 0)
(-1.53986e-19 -9.87751e-16 0)
(-1.65326e-19 -9.87744e-16 0)
(-1.77921e-19 -9.87735e-16 0)
(-1.91963e-19 -9.87724e-16 0)
(-2.07601e-19 -9.87711e-16 0)
(-2.24848e-19 -9.87693e-16 0)
(-2.43383e-19 -9.8767e-16 0)
(-2.62164e-19 -9.8764e-16 0)
(-2.78687e-19 -9.87598e-16 0)
(-2.87596e-19 -9.87539e-16 0)
(-2.78629e-13 -9.87482e-16 0)
(-2.82971e-06 -1.26357e-08 0)
(-1.35579e-06 -0.000328107 0)
(-2.08814e-21 -9.87797e-16 0)
(-6.23547e-21 -9.87797e-16 0)
(-1.03326e-20 -9.87796e-16 0)
(-1.43946e-20 -9.87796e-16 0)
(-1.84353e-20 -9.87795e-16 0)
(-2.24679e-20 -9.87795e-16 0)
(-2.65051e-20 -9.87794e-16 0)
(-3.05589e-20 -9.87794e-16 0)
(-3.46412e-20 -9.87793e-16 0)
(-3.87638e-20 -9.87792e-16 0)
(-4.29384e-20 -9.8779e-16 0)
(-4.71765e-20 -9.87789e-16 0)
(-5.14903e-20 -9.87788e-16 0)
(-5.58917e-20 -9.87786e-16 0)
(-6.03934e-20 -9.87784e-16 0)
(-6.50084e-20 -9.87782e-16 0)
(-6.97504e-20 -9.8778e-16 0)
(-7.46336e-20 -9.87778e-16 0)
(-7.96732e-20 -9.87775e-16 0)
(-8.4885e-20 -9.87772e-16 0)
(-9.02859e-20 -9.87769e-16 0)
(-9.5893e-20 -9.87765e-16 0)
(-1.01724e-19 -9.87761e-16 0)
(-1.07794e-19 -9.87757e-16 0)
(-1.14117e-19 -9.87751e-16 0)
(-1.20699e-19 -9.87745e-16 0)
(-1.27537e-19 -9.87738e-16 0)
(-1.34603e-19 -9.8773e-16 0)
(-1.41838e-19 -9.87721e-16 0)
(-1.49123e-19 -9.8771e-16 0)
(-1.56254e-19 -9.87697e-16 0)
(-1.62892e-19 -9.87682e-16 0)
(-1.685e-19 -9.87664e-16 0)
(-1.72272e-19 -9.87642e-16 0)
(-1.73045e-19 -9.87617e-16 0)
(-1.69243e-19 -9.87587e-16 0)
(-1.58929e-19 -9.87553e-16 0)
(-2.03181e-12 -9.87641e-16 0)
(-1.69648e-06 -4.20911e-08 0)
(-4.41342e-07 -0.000361805 0)
(-1.9945e-21 -9.87791e-16 0)
(-5.95487e-21 -9.87791e-16 0)
(-9.86452e-21 -9.8779e-16 0)
(-1.3736e-20 -9.8779e-16 0)
(-1.75807e-20 -9.87789e-16 0)
(-2.14096e-20 -9.87789e-16 0)
(-2.52325e-20 -9.87788e-16 0)
(-2.9059e-20 -9.87787e-16 0)
(-3.2898e-20 -9.87786e-16 0)
(-3.67578e-20 -9.87785e-16 0)
(-4.06465e-20 -9.87783e-16 0)
(-4.45714e-20 -9.87782e-16 0)
(-4.85397e-20 -9.8778e-16 0)
(-5.25578e-20 -9.87778e-16 0)
(-5.66316e-20 -9.87776e-16 0)
(-6.07662e-20 -9.87774e-16 0)
(-6.49656e-20 -9.87772e-16 0)
(-6.92328e-20 -9.87769e-16 0)
(-7.35688e-20 -9.87766e-16 0)
(-7.79727e-20 -9.87762e-16 0)
(-8.244e-20 -9.87759e-16 0)
(-8.69621e-20 -9.87755e-16 0)
(-9.15243e-20 -9.8775e-16 0)
(-9.61033e-20 -9.87745e-16 0)
(-1.00664e-19 -9.87739e-16 0)
(-1.05157e-19 -9.87733e-16 0)
(-1.09508e-19 -9.87725e-16 0)
(-1.13616e-19 -9.87717e-16 0)
(-1.17341e-19 -9.87708e-16 0)
(-1.20492e-19 -9.87698e-16 0)
(-1.22819e-19 -9.87686e-16 0)
(-1.23995e-19 -9.87674e-16 0)
(-1.23616e-19 -9.87659e-16 0)
(-1.21194e-19 -9.87644e-16 0)
(-1.16183e-19 -9.87627e-16 0)
(-1.08016e-19 -9.87609e-16 0)
(-9.62052e-20 -9.87592e-16 0)
(-3.17418e-12 -9.8787e-16 0)
(-1.03166e-06 -8.3756e-08 0)
(3.16805e-08 -0.000381459 0)
(-1.8869e-21 -9.87785e-16 0)
(-5.63253e-21 -9.87785e-16 0)
(-9.32691e-21 -9.87785e-16 0)
(-1.29799e-20 -9.87784e-16 0)
(-1.66003e-20 -9.87784e-16 0)
(-2.01963e-20 -9.87783e-16 0)
(-2.37751e-20 -9.87782e-16 0)
(-2.73435e-20 -9.87781e-16 0)
(-3.09071e-20 -9.8778e-16 0)
(-3.44711e-20 -9.87779e-16 0)
(-3.80396e-20 -9.87777e-16 0)
(-4.16162e-20 -9.87775e-16 0)
(-4.52031e-20 -9.87774e-16 0)
(-4.88014e-20 -9.87771e-16 0)
(-5.24109e-20 -9.87769e-16 0)
(-5.60298e-20 -9.87767e-16 0)
(-5.9654e-20 -9.87764e-16 0)
(-6.32771e-20 -9.87761e-16 0)
(-6.68894e-20 -9.87758e-16 0)
(-7.04773e-20 -9.87754e-16 0)
(-7.40226e-20 -9.8775e-16 0)
(-7.75004e-20 -9.87746e-16 0)
(-8.08787e-20 -9.87742e-16 0)
(-8.41155e-20 -9.87736e-16 0)
(-8.71573e-20 -9.87731e-16 0)
(-8.99363e-20 -9.87725e-16 0)
(-9.23677e-20 -9.87718e-16 0)
(-9.43468e-20 -9.87711e-16 0)
(-9.57466e-20 -9.87703e-16 0)
(-9.64165e-20 -9.87694e-16 0)
(-9.61821e-20 -9.87685e-16 0)
(-9.48491e-20 -9.87675e-16 0)
(-9.22105e-20 -9.87665e-16 0)
(-8.80607e-20 -9.87655e-16 0)
(-8.22164e-20 -9.87644e-16 0)
(-7.45455e-20 -9.87634e-16 0)
(-6.50141e-20 -9.87625e-16 0)
(-3.9429e-12 -9.88136e-16 0)
(-7.5298e-07 -1.32619e-07 0)
(2.05344e-07 -0.000395499 0)
(-1.76848e-21 -9.8778e-16 0)
(-5.27785e-21 -9.8778e-16 0)
(-8.73572e-21 -9.87779e-16 0)
(-1.21491e-20 -9.87779e-16 0)
(-1.55242e-20 -9.87778e-16 0)
(-1.88666e-20 -9.87777e-16 0)
(-2.21808e-20 -9.87776e-16 0)
(-2.54708e-20 -9.87775e-16 0)
(-2.87395e-20 -9.87774e-16 0)
(-3.19889e-20 -9.87773e-16 0)
(-3.52201e-20 -9.87771e-16 0)
(-3.84328e-20 -9.87769e-16 0)
(-4.16257e-20 -9.87767e-16 0)
(-4.47956e-20 -9.87765e-16 0)
(-4.79379e-20 -9.87763e-16 0)
(-5.10457e-20 -9.8776e-16 0)
(-5.41096e-20 -9.87758e-16 0)
(-5.71174e-20 -9.87755e-16 0)
(-6.00535e-20 -9.87751e-16 0)
(-6.28983e-20 -9.87748e-16 0)
(-6.56272e-20 -9.87744e-16 0)
(-6.82105e-20 -9.8774e-16 0)
(-7.06119e-20 -9.87736e-16 0)
(-7.27878e-20 -9.87731e-16 0)
(-7.46869e-20 -9.87726e-16 0)
(-7.62488e-20 -9.8772e-16 0)
(-7.74045e-20 -9.87714e-16 0)
(-7.80759e-20 -9.87708e-16 0)
(-7.8177e-20 -9.87702e-16 0)
(-7.76161e-20 -9.87695e-16 0)
(-7.62992e-20 -9.87688e-16 0)
(-7.4135e-20 -9.87681e-16 0)
(-7.10426e-20 -9.87674e-16 0)
(-6.69602e-20 -9.87667e-16 0)
(-6.18556e-20 -9.87661e-16 0)
(-5.57372e-20 -9.87655e-16 0)
(-4.86779e-20 -9.87649e-16 0)
(-4.71791e-12 -9.88478e-16 0)
(-6.33363e-07 -1.95327e-07 0)
(2.5987e-07 -0.000407059 0)
(-1.64246e-21 -9.87775e-16 0)
(-4.90054e-21 -9.87775e-16 0)
(-8.10727e-21 -9.87774e-16 0)
(-1.1267e-20 -9.87774e-16 0)
(-1.43834e-20 -9.87773e-16 0)
(-1.74595e-20 -9.87772e-16 0)
(-2.04976e-20 -9.87771e-16 0)
(-2.34992e-20 -9.8777e-16 0)
(-2.64647e-20 -9.87769e-16 0)
(-2.93937e-20 -9.87768e-16 0)
(-3.22849e-20 -9.87766e-16 0)
(-3.51353e-20 -9.87764e-16 0)
(-3.79409e-20 -9.87762e-16 0)
(-4.0696e-20 -9.8776e-16 0)
(-4.33932e-20 -9.87758e-16 0)
(-4.60229e-20 -9.87755e-16 0)
(-4.85735e-20 -9.87752e-16 0)
(-5.10305e-20 -9.87749e-16 0)
(-5.33768e-20 -9.87746e-16 0)
(-5.55917e-20 -9.87743e-16 0)
(-5.76515e-20 -9.87739e-16 0)
(-5.9528e-20 -9.87735e-16 0)
(-6.11895e-20 -9.87731e-16 0)
(-6.25999e-20 -9.87727e-16 0)
(-6.37192e-20 -9.87723e-16 0)
(-6.45034e-20 -9.87718e-16 0)
(-6.49059e-20 -9.87713e-16 0)
(-6.48782e-20 -9.87708e-16 0)
(-6.43718e-20 -9.87703e-16 0)
(-6.33402e-20 -9.87698e-16 0)
(-6.17427e-20 -9.87692e-16 0)
(-5.9547e-20 -9.87687e-16 0)
(-5.67344e-20 -9.87682e-16 0)
(-5.3303e-20 -9.87678e-16 0)
(-4.92726e-20 -9.87674e-16 0)
(-4.46881e-20 -9.8767e-16 0)
(-3.96406e-20 -9.87667e-16 0)
(-6.23959e-12 -9.88963e-16 0)
(-5.78089e-07 -2.8124e-07 0)
(2.72305e-07 -0.000417349 0)
(-1.51196e-21 -9.8777e-16 0)
(-4.50999e-21 -9.8777e-16 0)
(-7.45733e-21 -9.8777e-16 0)
(-1.03559e-20 -9.87769e-16 0)
(-1.32071e-20 -9.87769e-16 0)
(-1.60118e-20 -9.87768e-16 0)
(-1.87703e-20 -9.87767e-16 0)
(-2.1482e-20 -9.87766e-16 0)
(-2.41457e-20 -9.87764e-16 0)
(-2.67591e-20 -9.87763e-16 0)
(-2.9319e-20 -9.87761e-16 0)
(-3.18211e-20 -9.87759e-16 0)
(-3.42598e-20 -9.87757e-16 0)
(-3.66281e-20 -9.87755e-16 0)
(-3.89177e-20 -9.87753e-16 0)
(-4.11184e-20 -9.87751e-16 0)
(-4.32185e-20 -9.87748e-16 0)
(-4.52042e-20 -9.87745e-16 0)
(-4.70597e-20 -9.87742e-16 0)
(-4.8767e-20 -9.87739e-16 0)
(-5.03061e-20 -9.87736e-16 0)
(-5.1655e-20 -9.87732e-16 0)
(-5.27894e-20 -9.87729e-16 0)
(-5.36836e-20 -9.87725e-16 0)
(-5.43107e-20 -9.87721e-16 0)
(-5.46432e-20 -9.87717e-16 0)
(-5.46538e-20 -9.87713e-16 0)
(-5.43169e-20 -9.87709e-16 0)
(-5.36095e-20 -9.87705e-16 0)
(-5.25134e-20 -9.87701e-16 0)
(-5.10162e-20 -9.87697e-16 0)
(-4.91141e-20 -9.87693e-16 0)
(-4.68126e-20 -9.8769e-16 0)
(-4.41289e-20 -9.87686e-16 0)
(-4.10923e-20 -9.87684e-16 0)
(-3.77449e-20 -9.87681e-16 0)
(-3.41667e-20 -9.87679e-16 0)
(-8.46877e-12 -9.89642e-16 0)
(-5.4931e-07 -3.9478e-07 0)
(2.6942e-07 -0.000426892 0)
(-1.37985e-21 -9.87766e-16 0)
(-4.11482e-21 -9.87766e-16 0)
(-6.80029e-21 -9.87766e-16 0)
(-9.43606e-21 -9.87765e-16 0)
(-1.20216e-20 -9.87764e-16 0)
(-1.45562e-20 -9.87764e-16 0)
(-1.70382e-20 -9.87763e-16 0)
(-1.94657e-20 -9.87761e-16 0)
(-2.18362e-20 -9.8776e-16 0)
(-2.41462e-20 -9.87759e-16 0)
(-2.63916e-20 -9.87757e-16 0)
(-2.85672e-20 -9.87755e-16 0)
(-3.06671e-20 -9.87754e-16 0)
(-3.26842e-20 -9.87751e-16 0)
(-3.46104e-20 -9.87749e-16 0)
(-3.64364e-20 -9.87747e-16 0)
(-3.8152e-20 -9.87744e-16 0)
(-3.97454e-20 -9.87742e-16 0)
(-4.1204e-20 -9.87739e-16 0)
(-4.25141e-20 -9.87736e-16 0)
(-4.36611e-20 -9.87733e-16 0)
(-4.46294e-20 -9.8773e-16 0)
(-4.54033e-20 -9.87727e-16 0)
(-4.59669e-20 -9.87724e-16 0)
(-4.63045e-20 -9.8772e-16 0)
(-4.64015e-20 -9.87717e-16 0)
(-4.62452e-20 -9.87713e-16 0)
(-4.58248e-20 -9.8771e-16 0)
(-4.51331e-20 -9.87707e-16 0)
(-4.41668e-20 -9.87704e-16 0)
(-4.29276e-20 -9.87701e-16 0)
(-4.14226e-20 -9.87698e-16 0)
(-3.9665e-20 -9.87695e-16 0)
(-3.76743e-20 -9.87693e-16 0)
(-3.54763e-20 -9.87691e-16 0)
(-3.31022e-20 -9.87689e-16 0)
(-3.06227e-20 -9.87688e-16 0)
(-1.16629e-11 -9.9066e-16 0)
(-5.30262e-07 -5.50259e-07 0)
(2.60071e-07 -0.00043591 0)
(-1.24865e-21 -9.87762e-16 0)
(-3.72254e-21 -9.87762e-16 0)
(-6.14866e-21 -9.87762e-16 0)
(-8.52507e-21 -9.87761e-16 0)
(-1.08497e-20 -9.87761e-16 0)
(-1.31202e-20 -9.8776e-16 0)
(-1.53341e-20 -9.87759e-16 0)
(-1.74882e-20 -9.87758e-16 0)
(-1.95792e-20 -9.87757e-16 0)
(-2.16029e-20 -9.87755e-16 0)
(-2.35549e-20 -9.87754e-16 0)
(-2.543e-20 -9.87752e-16 0)
(-2.72224e-20 -9.8775e-16 0)
(-2.89256e-20 -9.87748e-16 0)
(-3.05327e-20 -9.87746e-16 0)
(-3.2036e-20 -9.87744e-16 0)
(-3.34273e-20 -9.87742e-16 0)
(-3.4698e-20 -9.87739e-16 0)
(-3.5839e-20 -9.87737e-16 0)
(-3.68412e-20 -9.87734e-16 0)
(-3.76953e-20 -9.87731e-16 0)
(-3.83921e-20 -9.87729e-16 0)
(-3.89232e-20 -9.87726e-16 0)
(-3.92805e-20 -9.87723e-16 0)