/*--------------------------------*- C++ -*----------------------------------*\
  =========                 |
  \\      /  F ield         | OpenFOAM: The Open Source CFD Toolbox
   \\    /   O peration     | Website:  https://openfoam.org
    \\  /    A nd           | Version:  7
     \\/     M anipulation  |
\*---------------------------------------------------------------------------*/
FoamFile
{
    version     2.0;
    format      ascii;
    class       volScalarField;
    location    "239.999473411311953";
    object      p;
}
// * * * * * * * * * * * * * * * * * * * * * * * * * * * * * * * * * * * * * //

dimensions      [0 2 -2 0 0 0 0];

internalField   nonuniform List<scalar> 
4096
(
0.0006813
0.0005103
0.0004261
0.000384
0.0003606
0.0003467
0.0003378
0.0003318
0.0003274
0.0003242
0.0003216
0.0003196
0.000318
0.0003166
0.0003155
0.0003145
0.0003136
0.0003128
0.0003121
0.0003114
0.0003108
0.0003102
0.0003097
0.0003092
0.0003087
0.0003081
0.0003076
0.0003071
0.0003066
0.0003061
0.0003055
0.0003049
0.0003043
0.0003036
0.0003029
0.0003021
0.0003012
0.0003002
0.0002991
0.0002979
0.0002964
0.0002948
0.000293
0.000291
0.0002886
0.000286
0.000283
0.0002797
0.0002759
0.0002717
0.0002671
0.0002619
0.0002563
0.0002502
0.0002435
0.0002363
0.0002287
0.0002205
0.0002119
0.000203
0.0001937
0.0001841
0.0001743
0.0001644
0.0001545
0.0001446
0.0001349
0.0001254
0.0001162
0.0001074
9.891e-05
9.091e-05
8.338e-05
7.635e-05
6.981e-05
6.377e-05
5.823e-05
5.317e-05
4.857e-05
4.442e-05
4.069e-05
3.735e-05
3.437e-05
3.172e-05
2.937e-05
2.729e-05
2.546e-05
2.383e-05
2.239e-05
2.112e-05
1.998e-05
1.897e-05
1.806e-05
1.723e-05
1.648e-05
1.579e-05
1.515e-05
1.456e-05
1.399e-05
1.345e-05
1.293e-05
1.243e-05
1.194e-05
1.146e-05
1.099e-05
1.052e-05
1.005e-05
9.588e-06
9.122e-06
8.655e-06
8.187e-06
7.716e-06
7.242e-06
6.765e-06
6.285e-06
5.8e-06
5.312e-06
4.82e-06
4.324e-06
3.824e-06
3.32e-06
2.814e-06
2.306e-06
1.799e-06
1.297e-06
8.095e-07
3.535e-07
3.25e-08
0.0005368
0.000473
0.0004232
0.0003912
0.0003703
0.000356
0.000346
0.0003387
0.0003332
0.000329
0.0003257
0.000323
0.0003208
0.000319
0.0003175
0.0003162
0.000315
0.000314
0.000313
0.0003122
0.0003114
0.0003106
0.0003099
0.0003093
0.0003086
0.000308
0.0003073
0.0003067
0.000306
0.0003053
0.0003046
0.0003039
0.0003031
0.0003023
0.0003014
0.0003004
0.0002994
0.0002982
0.0002969
0.0002955
0.0002939
0.0002921
0.0002901
0.0002879
0.0002854
0.0002826
0.0002795
0.000276
0.0002722
0.0002679
0.0002633
0.0002582
0.0002526
0.0002465
0.00024
0.000233
0.0002256
0.0002178
0.0002095
0.0002009
0.000192
0.0001829
0.0001736
0.0001642
0.0001547
0.0001453
0.0001361
0.000127
0.0001183
0.0001098
0.0001017
9.395e-05
8.665e-05
7.98e-05
7.34e-05
6.746e-05
6.196e-05
5.692e-05
5.23e-05
4.81e-05
4.429e-05
4.085e-05
3.775e-05
3.496e-05
3.247e-05
3.023e-05
2.824e-05
2.645e-05
2.485e-05
2.341e-05
2.212e-05
2.095e-05
1.989e-05
1.892e-05
1.804e-05
1.722e-05
1.646e-05
1.574e-05
1.507e-05
1.444e-05
1.383e-05
1.324e-05
1.268e-05
1.212e-05
1.159e-05
1.106e-05
1.054e-05
1.002e-05
9.509e-06
9.002e-06
8.496e-06
7.992e-06
7.489e-06
6.985e-06
6.481e-06
5.976e-06
5.47e-06
4.962e-06
4.453e-06
3.942e-06
3.43e-06
2.917e-06
2.405e-06
1.895e-06
1.392e-06
8.994e-07
4.28e-07
6.336e-08
0.0004533
0.0004316
0.0004062
0.0003854
0.0003699
0.0003582
0.0003492
0.0003422
0.0003367
0.0003322
0.0003286
0.0003256
0.0003231
0.000321
0.0003192
0.0003176
0.0003162
0.000315
0.0003139
0.0003128
0.0003119
0.000311
0.0003101
0.0003093
0.0003085
0.0003078
0.000307
0.0003062
0.0003054
0.0003046
0.0003038
0.0003029
0.000302
0.000301
0.0003
0.0002988
0.0002976
0.0002963
0.0002949
0.0002933
0.0002915
0.0002896
0.0002874
0.0002851
0.0002824
0.0002795
0.0002763
0.0002728
0.0002689
0.0002646
0.0002599
0.0002548
0.0002493
0.0002433
0.0002369
0.0002301
0.0002229
0.0002154
0.0002074
0.0001991
0.0001906
0.0001819
0.0001729
0.000164
0.0001549
0.000146
0.0001371
0.0001284
0.00012
0.0001119
0.000104
9.658e-05
8.95e-05
8.283e-05
7.656e-05
7.072e-05
6.529e-05
6.027e-05
5.565e-05
5.141e-05
4.755e-05
4.403e-05
4.083e-05
3.794e-05
3.532e-05
3.296e-05
3.083e-05
2.89e-05
2.715e-05
2.557e-05
2.414e-05
2.283e-05
2.164e-05
2.054e-05
1.953e-05
1.86e-05
1.772e-05
1.691e-05
1.614e-05
1.541e-05
1.471e-05
1.404e-05
1.34e-05
1.278e-05
1.218e-05
1.159e-05
1.102e-05
1.046e-05
9.901e-06
9.353e-06
8.811e-06
8.274e-06
7.741e-06
7.211e-06
6.684e-06
6.158e-06
5.633e-06
5.109e-06
4.586e-06
4.063e-06
3.541e-06
3.019e-06
2.499e-06
1.982e-06
1.469e-06
9.628e-07
4.673e-07
6.827e-08
0.0004085
0.0004015
0.0003881
0.000375
0.0003641
0.0003553
0.0003482
0.0003424
0.0003375
0.0003333
0.0003299
0.0003269
0.0003244
0.0003222
0.0003203
0.0003186
0.0003171
0.0003157
0.0003144
0.0003133
0.0003122
0.0003112
0.0003103
0.0003093
0.0003084
0.0003075
0.0003067
0.0003058
0.0003049
0.000304
0.000303
0.000302
0.000301
0.0002999
0.0002987
0.0002975
0.0002961
0.0002947
0.0002931
0.0002914
0.0002895
0.0002875
0.0002852
0.0002827
0.00028
0.000277
0.0002737
0.0002701
0.0002662
0.0002619
0.0002572
0.0002521
0.0002467
0.0002408
0.0002345
0.0002279
0.0002209
0.0002135
0.0002058
0.0001978
0.0001895
0.000181
0.0001724
0.0001638
0.0001551
0.0001464
0.0001379
0.0001295
0.0001213
0.0001135
0.0001059
9.862e-05
9.172e-05
8.519e-05
7.905e-05
7.329e-05
6.792e-05
6.294e-05
5.833e-05
5.409e-05
5.019e-05
4.663e-05
4.337e-05
4.04e-05
3.77e-05
3.524e-05
3.301e-05
3.097e-05
2.912e-05
2.743e-05
2.589e-05
2.447e-05
2.317e-05
2.197e-05
2.085e-05
1.982e-05
1.885e-05
1.795e-05
1.709e-05
1.628e-05
1.551e-05
1.477e-05
1.407e-05
1.339e-05
1.273e-05
1.209e-05
1.147e-05
1.086e-05
1.026e-05
9.68e-06
9.105e-06
8.539e-06
7.979e-06
7.424e-06
6.875e-06
6.329e-06
5.787e-06
5.248e-06
4.711e-06
4.176e-06
3.642e-06
3.11e-06
2.58e-06
2.052e-06
1.526e-06
1.004e-06
4.852e-07
6.426e-08
0.0003816
0.0003806
0.0003737
0.0003651
0.0003573
0.0003508
0.0003452
0.0003406
0.0003365
0.000333
0.0003299
0.0003272
0.0003248
0.0003227
0.0003208
0.0003191
0.0003175
0.0003161
0.0003148
0.0003136
0.0003124
0.0003114
0.0003103
0.0003093
0.0003083
0.0003073
0.0003064
0.0003054
0.0003044
0.0003034
0.0003023
0.0003012
0.0003001
0.0002989
0.0002977
0.0002963
0.0002949
0.0002933
0.0002917
0.0002899
0.0002879
0.0002857
0.0002834
0.0002809
0.0002781
0.000275
0.0002717
0.000268
0.0002641
0.0002598
0.0002551
0.0002501
0.0002447
0.0002389
0.0002327
0.0002262
0.0002193
0.000212
0.0002045
0.0001967
0.0001887
0.0001804
0.000172
0.0001636
0.0001551
0.0001467
0.0001384
0.0001303
0.0001223
0.0001146
0.0001072
0.0001001
9.338e-05
8.698e-05
8.093e-05
7.525e-05
6.994e-05
6.5e-05
6.041e-05
5.617e-05
5.227e-05
4.868e-05
4.539e-05
4.237e-05
3.962e-05
3.71e-05
3.479e-05
3.268e-05
3.075e-05
2.898e-05
2.735e-05
2.585e-05
2.446e-05
2.318e-05
2.198e-05
2.087e-05
1.983e-05
1.884e-05
1.792e-05
1.704e-05
1.621e-05
1.541e-05
1.465e-05
1.392e-05
1.321e-05
1.253e-05
1.187e-05
1.122e-05
1.059e-05
9.974e-06
9.37e-06
8.777e-06
8.193e-06
7.617e-06
7.048e-06
6.485e-06
5.927e-06
5.373e-06
4.824e-06
4.277e-06
3.732e-06
3.19e-06
2.649e-06
2.11e-06
1.571e-06
1.034e-06
4.962e-07
5.968e-08
0.0003642
0.0003657
0.0003624
0.0003568
0.0003511
0.000346
0.0003417
0.0003379
0.0003346
0.0003317
0.0003291
0.0003267
0.0003245
0.0003226
0.0003208
0.0003191
0.0003176
0.0003162
0.0003149
0.0003137
0.0003125
0.0003114
0.0003103
0.0003092
0.0003082
0.0003071
0.0003061
0.000305
0.000304
0.0003029
0.0003018
0.0003006
0.0002994
0.0002981
0.0002968
0.0002954
0.0002939
0.0002922
0.0002905
0.0002886
0.0002866
0.0002844
0.000282
0.0002794
0.0002766
0.0002735
0.0002701
0.0002665
0.0002625
0.0002582
0.0002536
0.0002486
0.0002432
0.0002375
0.0002314
0.0002249
0.0002181
0.000211
0.0002036
0.0001959
0.000188
0.0001799
0.0001717
0.0001634
0.0001551
0.0001469
0.0001387
0.0001307
0.000123
0.0001154
0.0001082
0.0001012
9.455e-05
8.824e-05
8.228e-05
7.666e-05
7.141e-05
6.65e-05
6.194e-05
5.772e-05
5.382e-05
5.022e-05
4.692e-05
4.388e-05
4.109e-05
3.853e-05
3.618e-05
3.403e-05
3.204e-05
3.021e-05
2.853e-05
2.696e-05
2.552e-05
2.417e-05
2.291e-05
2.174e-05
2.063e-05
1.959e-05
1.861e-05
1.768e-05
1.68e-05
1.595e-05
1.515e-05
1.437e-05
1.363e-05
1.29e-05
1.221e-05
1.153e-05
1.087e-05
1.023e-05
9.599e-06
8.983e-06
8.379e-06
7.784e-06
7.198e-06
6.62e-06
6.048e-06
5.482e-06
4.921e-06
4.364e-06
3.81e-06
3.258e-06
2.707e-06
2.158e-06
1.608e-06
1.058e-06
5.05e-07
5.638e-08
0.0003523
0.0003548
0.0003535
0.0003499
0.0003457
0.0003417
0.0003382
0.0003352
0.0003324
0.00033
0.0003278
0.0003257
0.0003238
0.0003221
0.0003204
0.0003189
0.0003175
0.0003161
0.0003148
0.0003136
0.0003124
0.0003113
0.0003102
0.0003091
0.000308
0.0003069
0.0003058
0.0003047
0.0003036
0.0003025
0.0003013
0.0003001
0.0002988
0.0002975
0.0002961
0.0002947
0.0002931
0.0002914
0.0002896
0.0002877
0.0002857
0.0002834
0.000281
0.0002784
0.0002755
0.0002724
0.0002691
0.0002654
0.0002615
0.0002572
0.0002526
0.0002476
0.0002422
0.0002365
0.0002305
0.0002241
0.0002174
0.0002103
0.000203
0.0001954
0.0001876
0.0001796
0.0001715
0.0001633
0.0001551
0.0001469
0.0001389
0.000131
0.0001233
0.0001159
0.0001087
0.0001018
9.527e-05
8.903e-05
8.312e-05
7.756e-05
7.234e-05
6.747e-05
6.294e-05
5.874e-05
5.486e-05
5.128e-05
4.798e-05
4.494e-05
4.214e-05
3.957e-05
3.72e-05
3.502e-05
3.3e-05
3.114e-05
2.942e-05
2.782e-05
2.633e-05
2.494e-05
2.364e-05
2.242e-05
2.127e-05
2.019e-05
1.917e-05
1.819e-05
1.727e-05
1.639e-05
1.555e-05
1.474e-05
1.396e-05
1.321e-05
1.248e-05
1.178e-05
1.11e-05
1.043e-05
9.786e-06
9.152e-06
8.531e-06
7.921e-06
7.322e-06
6.731e-06
6.148e-06
5.572e-06
5.002e-06
4.435e-06
3.873e-06
3.313e-06
2.755e-06
2.197e-06
1.639e-06
1.078e-06
5.134e-07
5.506e-08
0.0003437
0.0003464
0.0003463
0.0003441
0.0003411
0.000338
0.0003351
0.0003325
0.0003302
0.0003282
0.0003263
0.0003245
0.0003228
0.0003213
0.0003198
0.0003184
0.0003171
0.0003158
0.0003146
0.0003134
0.0003122
0.0003111
0.00031
0.0003089
0.0003078
0.0003067
0.0003056
0.0003045
0.0003033
0.0003022
0.000301
0.0002997
0.0002984
0.0002971
0.0002957
0.0002942
0.0002926
0.0002909
0.0002891
0.0002871
0.0002851
0.0002828
0.0002804
0.0002778
0.0002749
0.0002718
0.0002685
0.0002649
0.0002609
0.0002566
0.000252
0.0002471
0.0002418
0.0002361
0.00023
0.0002237
0.000217
0.0002099
0.0002026
0.0001951
0.0001873
0.0001794
0.0001713
0.0001631
0.000155
0.0001468
0.0001389
0.000131
0.0001234
0.000116
0.0001089
0.0001021
9.556e-05
8.936e-05
8.349e-05
7.796e-05
7.278e-05
6.794e-05
6.345e-05
5.928e-05
5.542e-05
5.186e-05
4.858e-05
4.556e-05
4.278e-05
4.022e-05
3.785e-05
3.567e-05
3.364e-05
3.177e-05
3.003e-05
2.841e-05
2.69e-05
2.548e-05
2.416e-05
2.291e-05
2.173e-05
2.062e-05
1.957e-05
1.857e-05
1.762e-05
1.671e-05
1.585e-05
1.501e-05
1.421e-05
1.344e-05
1.269e-05
1.197e-05
1.127e-05
1.059e-05
9.928e-06
9.28e-06
8.646e-06
8.025e-06
7.416e-06
6.816e-06
6.224e-06
5.641e-06
5.063e-06
4.49e-06
3.922e-06
3.356e-06
2.792e-06
2.228e-06
1.664e-06
1.096e-06
5.223e-07
5.603e-08
0.0003372
0.0003399
0.0003405
0.0003393
0.0003371
0.0003347
0.0003323
0.0003301
0.0003282
0.0003264
0.0003247
0.0003232
0.0003218
0.0003204
0.0003191
0.0003178
0.0003166
0.0003154
0.0003142
0.0003131
0.000312
0.0003109
0.0003098
0.0003087
0.0003076
0.0003065
0.0003054
0.0003043
0.0003031
0.000302
0.0003008
0.0002995
0.0002982
0.0002968
0.0002954
0.0002939
0.0002923
0.0002906
0.0002888
0.0002868
0.0002848
0.0002825
0.0002801
0.0002775
0.0002747
0.0002717
0.0002683
0.0002647
0.0002608
0.0002566
0.000252
0.000247
0.0002417
0.0002361
0.00023
0.0002236
0.0002169
0.0002099
0.0002026
0.000195
0.0001872
0.0001793
0.0001712
0.000163
0.0001548
0.0001467
0.0001387
0.0001308
0.0001232
0.0001159
0.0001088
0.0001019
9.543e-05
8.924e-05
8.339e-05
7.788e-05
7.272e-05
6.792e-05
6.345e-05
5.932e-05
5.551e-05
5.199e-05
4.875e-05
4.577e-05
4.302e-05
4.048e-05
3.814e-05
3.598e-05
3.397e-05
3.21e-05
3.036e-05
2.874e-05
2.723e-05
2.581e-05
2.447e-05
2.321e-05
2.202e-05
2.09e-05
1.983e-05
1.882e-05
1.785e-05
1.692e-05
1.604e-05
1.519e-05
1.438e-05
1.359e-05
1.283e-05
1.21e-05
1.139e-05
1.069e-05
1.002e-05
9.364e-06
8.722e-06
8.094e-06
7.478e-06
6.872e-06
6.275e-06
5.686e-06
5.104e-06
4.528e-06
3.956e-06
3.386e-06
2.819e-06
2.252e-06
1.684e-06
1.111e-06
5.323e-07
5.953e-08
0.0003321
0.0003347
0.0003357
0.0003351
0.0003336
0.0003318
0.0003298
0.000328
0.0003263
0.0003247
0.0003233
0.0003219
0.0003207
0.0003194
0.0003183
0.0003171
0.000316
0.0003149
0.0003138
0.0003127
0.0003117
0.0003106
0.0003096
0.0003085
0.0003074
0.0003064
0.0003053
0.0003042
0.000303
0.0003019
0.0003006
0.0002994
0.0002981
0.0002967
0.0002953
0.0002938
0.0002922
0.0002905
0.0002888
0.0002868
0.0002848
0.0002826
0.0002802
0.0002777
0.0002749
0.0002719
0.0002686
0.0002651
0.0002612
0.000257
0.0002524
0.0002475
0.0002422
0.0002365
0.0002304
0.000224
0.0002172
0.0002102
0.0002028
0.0001952
0.0001873
0.0001793
0.0001711
0.0001628
0.0001546
0.0001464
0.0001383
0.0001304
0.0001228
0.0001154
0.0001082
0.0001014
9.486e-05
8.866e-05
8.281e-05
7.731e-05
7.217e-05
6.739e-05
6.297e-05
5.889e-05
5.513e-05
5.167e-05
4.849e-05
4.556e-05
4.287e-05
4.038e-05
3.809e-05
3.596e-05
3.398e-05
3.215e-05
3.043e-05
2.883e-05
2.732e-05
2.591e-05
2.458e-05
2.333e-05
2.214e-05
2.101e-05
1.994e-05
1.892e-05
1.795e-05
1.702e-05
1.613e-05
1.528e-05
1.445e-05
1.366e-05
1.29e-05
1.216e-05
1.144e-05
1.074e-05
1.006e-05
9.403e-06
8.758e-06
8.126e-06
7.506e-06
6.898e-06
6.299e-06
5.708e-06
5.125e-06
4.547e-06
3.974e-06
3.404e-06
2.836e-06
2.268e-06
1.699e-06
1.125e-06
5.435e-07
6.572e-08
0.0003281
0.0003305
0.0003317
0.0003316
0.0003306
0.0003292
0.0003277
0.0003261
0.0003246
0.0003232
0.0003219
0.0003207
0.0003196
0.0003185
0.0003174
0.0003164
0.0003154
0.0003144
0.0003134
0.0003124
0.0003114
0.0003104
0.0003093
0.0003083
0.0003073
0.0003063
0.0003052
0.0003041
0.000303
0.0003018
0.0003006
0.0002994
0.0002981
0.0002968
0.0002954
0.0002939
0.0002924
0.0002907
0.000289
0.0002871
0.0002851
0.000283
0.0002807
0.0002782
0.0002755
0.0002726
0.0002694
0.0002659
0.0002621
0.0002579
0.0002534
0.0002485
0.0002432
0.0002374
0.0002313
0.0002248
0.000218
0.0002108
0.0002034
0.0001956
0.0001876
0.0001795
0.0001711
0.0001627
0.0001543
0.0001459
0.0001377
0.0001297
0.000122
0.0001145
0.0001073
0.0001004
9.382e-05
8.758e-05
8.171e-05
7.621e-05
7.109e-05
6.635e-05
6.198e-05
5.796e-05
5.427e-05
5.09e-05
4.78e-05
4.495e-05
4.233e-05
3.992e-05
3.769e-05
3.562e-05
3.37e-05
3.191e-05
3.024e-05
2.867e-05
2.72e-05
2.581e-05
2.45e-05
2.326e-05
2.209e-05
2.097e-05
1.991e-05
1.89e-05
1.793e-05
1.7e-05
1.612e-05
1.526e-05
1.444e-05
1.365e-05
1.289e-05
1.215e-05
1.143e-05
1.073e-05
1.006e-05
9.396e-06
8.751e-06
8.12e-06
7.502e-06
6.894e-06
6.296e-06
5.707e-06
5.125e-06
4.549e-06
3.977e-06
3.409e-06
2.843e-06
2.277e-06
1.709e-06
1.136e-06
5.562e-07
7.469e-08
0.0003248
0.000327
0.0003283
0.0003285
0.000328
0.000327
0.0003257
0.0003244
0.0003231
0.0003219
0.0003208
0.0003197
0.0003186
0.0003176
0.0003167
0.0003157
0.0003148
0.0003139
0.0003129
0.000312
0.0003111
0.0003101
0.0003092
0.0003082
0.0003072
0.0003062
0.0003052
0.0003041
0.000303
0.0003019
0.0003008
0.0002996
0.0002983
0.000297
0.0002957
0.0002942
0.0002927
0.0002912
0.0002895
0.0002877
0.0002858
0.0002837
0.0002815
0.0002791
0.0002765
0.0002736
0.0002705
0.0002671
0.0002634
0.0002593
0.0002549
0.00025
0.0002447
0.0002389
0.0002328
0.0002262
0.0002192
0.0002119
0.0002043
0.0001964
0.0001882
0.0001798
0.0001713
0.0001626
0.0001539
0.0001453
0.0001369
0.0001288
0.0001209
0.0001132
0.0001059
9.891e-05
9.225e-05
8.596e-05
8.005e-05
7.455e-05
6.945e-05
6.476e-05
6.046e-05
5.653e-05
5.295e-05
4.967e-05
4.668e-05
4.394e-05
4.143e-05
3.911e-05
3.697e-05
3.499e-05
3.314e-05
3.141e-05
2.98e-05
2.828e-05
2.685e-05
2.551e-05
2.423e-05
2.302e-05
2.187e-05
2.078e-05
1.974e-05
1.874e-05
1.779e-05
1.688e-05
1.6e-05
1.516e-05
1.435e-05
1.356e-05
1.281e-05
1.207e-05
1.136e-05
1.067e-05
1e-05
9.345e-06
8.704e-06
8.078e-06
7.464e-06
6.86e-06
6.267e-06
5.682e-06
5.104e-06
4.532e-06
3.965e-06
3.402e-06
2.84e-06
2.278e-06
1.714e-06
1.146e-06
5.705e-07
8.649e-08
0.0003221
0.0003241
0.0003254
0.0003259
0.0003256
0.0003249
0.000324
0.0003229
0.0003218
0.0003207
0.0003197
0.0003187
0.0003178
0.0003169
0.000316
0.0003151
0.0003143
0.0003134
0.0003125
0.0003117
0.0003108
0.0003099
0.000309
0.0003081
0.0003072
0.0003062
0.0003052
0.0003042
0.0003032
0.0003021
0.000301
0.0002999
0.0002987
0.0002974
0.0002961
0.0002947
0.0002933
0.0002918
0.0002902
0.0002885
0.0002867
0.0002847
0.0002826
0.0002803
0.0002778
0.0002751
0.0002722
0.0002689
0.0002653
0.0002613
0.0002569
0.0002521
0.0002468
0.000241
0.0002348
0.0002282
0.0002211
0.0002136
0.0002057
0.0001976
0.0001892
0.0001805
0.0001716
0.0001625
0.0001535
0.0001446
0.0001358
0.0001274
0.0001193
0.0001115
0.000104
9.681e-05
9.006e-05
8.371e-05
7.778e-05
7.228e-05
6.722e-05
6.261e-05
5.841e-05
5.46e-05
5.114e-05
4.8e-05
4.515e-05
4.255e-05
4.016e-05
3.797e-05
3.594e-05
3.406e-05
3.23e-05
3.066e-05
2.913e-05
2.768e-05
2.631e-05
2.502e-05
2.379e-05
2.262e-05
2.151e-05
2.045e-05
1.944e-05
1.847e-05
1.754e-05
1.665e-05
1.579e-05
1.497e-05
1.417e-05
1.34e-05
1.266e-05
1.194e-05
1.124e-05
1.056e-05
9.896e-06
9.25e-06
8.618e-06
8e-06
7.394e-06
6.798e-06
6.212e-06
5.634e-06
5.063e-06
4.499e-06
3.939e-06
3.382e-06
2.827e-06
2.272e-06
1.716e-06
1.155e-06
5.864e-07
1.011e-07
0.0003198
0.0003217
0.000323
0.0003236
0.0003236
0.0003232
0.0003224
0.0003216
0.0003206
0.0003197
0.0003188
0.0003179
0.000317
0.0003162
0.0003154
0.0003146
0.0003138
0.000313
0.0003122
0.0003114
0.0003106
0.0003098
0.0003089
0.000308
0.0003072
0.0003063
0.0003053
0.0003044
0.0003034
0.0003024
0.0003013
0.0003002
0.0002991
0.0002979
0.0002967
0.0002954
0.0002941
0.0002926
0.0002911
0.0002895
0.0002878
0.000286
0.000284
0.0002819
0.0002796
0.000277
0.0002742
0.0002711
0.0002677
0.0002638
0.0002596
0.0002549
0.0002496
0.0002439
0.0002376
0.0002309
0.0002237
0.000216
0.0002078
0.0001994
0.0001907
0.0001816
0.0001721
0.0001625
0.000153
0.0001435
0.0001343
0.0001255
0.0001171
0.000109
0.0001013
9.399e-05
8.714e-05
8.074e-05
7.48e-05
6.933e-05
6.435e-05
5.984e-05
5.578e-05
5.214e-05
4.885e-05
4.589e-05
4.321e-05
4.078e-05
3.855e-05
3.651e-05
3.461e-05
3.286e-05
3.122e-05
2.968e-05
2.824e-05
2.687e-05
2.558e-05
2.435e-05
2.318e-05
2.207e-05
2.101e-05
1.999e-05
1.902e-05
1.808e-05
1.719e-05
1.633e-05
1.549e-05
1.469e-05
1.392e-05
1.317e-05
1.245e-05
1.174e-05
1.106e-05
1.04e-05
9.747e-06
9.114e-06
8.495e-06
7.888e-06
7.293e-06
6.708e-06
6.133e-06
5.565e-06
5.004e-06
4.449e-06
3.898e-06
3.351e-06
2.805e-06
2.26e-06
1.713e-06
1.162e-06
6.038e-07
1.183e-07
0.0003179
0.0003197
0.000321
0.0003216
0.0003218
0.0003216
0.000321
0.0003204
0.0003196
0.0003188
0.000318
0.0003172
0.0003164
0.0003156
0.0003149
0.0003141
0.0003134
0.0003127
0.0003119
0.0003112
0.0003104
0.0003097
0.0003089
0.0003081
0.0003072
0.0003064
0.0003055
0.0003046
0.0003037
0.0003028
0.0003018
0.0003008
0.0002997
0.0002986
0.0002974
0.0002962
0.000295
0.0002937
0.0002923
0.0002908
0.0002892
0.0002875
0.0002857
0.0002838
0.0002816
0.0002793
0.0002767
0.0002738
0.0002706
0.000267
0.0002629
0.0002583
0.0002532
0.0002475
0.0002413
0.0002345
0.0002272
0.0002194
0.0002109
0.0002021
0.000193
0.0001833
0.000173
0.0001626
0.0001523
0.0001421
0.0001321
0.0001228
0.0001141
0.0001057
9.768e-05
9.023e-05
8.334e-05
7.694e-05
7.103e-05
6.564e-05
6.078e-05
5.644e-05
5.258e-05
4.915e-05
4.609e-05
4.335e-05
4.088e-05
3.865e-05
3.662e-05
3.475e-05
3.302e-05
3.141e-05
2.99e-05
2.849e-05
2.715e-05
2.588e-05
2.467e-05
2.353e-05
2.243e-05
2.138e-05
2.037e-05
1.941e-05
1.849e-05
1.759e-05
1.674e-05
1.591e-05
1.512e-05
1.434e-05
1.36e-05
1.288e-05
1.218e-05
1.15e-05
1.083e-05
1.019e-05
9.556e-06
8.94e-06
8.337e-06
7.746e-06
7.165e-06
6.594e-06
6.031e-06
5.476e-06
4.927e-06
4.383e-06
3.844e-06
3.309e-06
2.775e-06
2.241e-06
1.706e-06
1.167e-06
6.227e-07
1.381e-07
0.0003163
0.0003179
0.0003192
0.0003199
0.0003202
0.0003202
0.0003198
0.0003193
0.0003187
0.000318
0.0003172
0.0003165
0.0003158
0.0003151
0.0003144
0.0003137
0.0003131
0.0003124
0.0003117
0.000311
0.0003103
0.0003096
0.0003089
0.0003081
0.0003074
0.0003066
0.0003058
0.000305
0.0003041
0.0003032
0.0003023
0.0003014
0.0003004
0.0002994
0.0002983
0.0002972
0.0002961
0.0002949
0.0002936
0.0002923
0.0002908
0.0002893
0.0002877
0.0002859
0.000284
0.0002819
0.0002796
0.000277
0.000274
0.0002707
0.0002669
0.0002625
0.0002576
0.0002521
0.0002459
0.0002393
0.000232
0.0002241
0.0002153
0.0002061
0.0001967
0.0001862
0.0001746
0.0001629
0.0001514
0.00014
0.0001288
0.0001188
0.0001098
0.0001011
9.281e-05
8.532e-05
7.849e-05
7.217e-05
6.637e-05
6.113e-05
5.649e-05
5.239e-05
4.88e-05
4.565e-05
4.287e-05
4.04e-05
3.819e-05
3.62e-05
3.439e-05
3.273e-05
3.119e-05
2.974e-05
2.839e-05
2.711e-05
2.589e-05
2.473e-05
2.362e-05
2.256e-05
2.155e-05
2.057e-05
1.963e-05
1.873e-05
1.786e-05
1.702e-05
1.621e-05
1.542e-05
1.466e-05
1.393e-05
1.322e-05
1.253e-05
1.185e-05
1.12e-05
1.056e-05
9.937e-06
9.329e-06
8.733e-06
8.148e-06
7.575e-06
7.011e-06
6.456e-06
5.909e-06
5.368e-06
4.834e-06
4.305e-06
3.779e-06
3.257e-06
2.737e-06
2.217e-06
1.696e-06
1.172e-06
6.43e-07
1.601e-07
0.0003149
0.0003165
0.0003177
0.0003185
0.0003189
0.0003189
0.0003187
0.0003183
0.0003178
0.0003172
0.0003166
0.000316
0.0003153
0.0003147
0.0003141
0.0003134
0.0003128
0.0003122
0.0003116
0.0003109
0.0003103
0.0003096
0.000309
0.0003083
0.0003076
0.0003068
0.0003061
0.0003053
0.0003046
0.0003038
0.0003029
0.0003021
0.0003012
0.0003002
0.0002993
0.0002983
0.0002973
0.0002962
0.0002951
0.0002939
0.0002926
0.0002913
0.0002899
0.0002884
0.0002867
0.0002849
0.0002828
0.0002806
0.0002779
0.000275
0.0002715
0.0002675
0.0002629
0.0002577
0.0002517
0.0002453
0.0002384
0.0002306
0.0002216
0.0002122
0.0002026
0.0001911
0.0001773
0.0001634
0.0001501
0.0001366
0.0001235
0.0001127
0.0001036
9.472e-05
8.63e-05
7.897e-05
7.243e-05
6.635e-05
6.076e-05
5.579e-05
5.146e-05
4.771e-05
4.447e-05
4.167e-05
3.922e-05
3.708e-05
3.518e-05
3.347e-05
3.191e-05
3.048e-05
2.915e-05
2.789e-05
2.67e-05
2.557e-05
2.449e-05
2.345e-05
2.245e-05
2.148e-05
2.056e-05
1.966e-05
1.879e-05
1.795e-05
1.714e-05
1.636e-05
1.56e-05
1.486e-05
1.415e-05
1.346e-05
1.278e-05
1.212e-05
1.148e-05
1.086e-05
1.025e-05
9.653e-06
9.069e-06
8.496e-06
7.933e-06
7.38e-06
6.836e-06
6.299e-06
5.769e-06
5.246e-06
4.728e-06
4.214e-06
3.704e-06
3.197e-06
2.692e-06
2.188e-06
1.683e-06
1.176e-06
6.644e-07
1.84e-07
0.0003138
0.0003152
0.0003164
0.0003172
0.0003177
0.0003178
0.0003178
0.0003175
0.0003171
0.0003166
0.0003161
0.0003155
0.0003149
0.0003144
0.0003138
0.0003132
0.0003126
0.0003121
0.0003115
0.0003109
0.0003103
0.0003097
0.0003091
0.0003085
0.0003078
0.0003072
0.0003065
0.0003058
0.0003051
0.0003044
0.0003036
0.0003028
0.000302
0.0003012
0.0003004
0.0002995
0.0002986
0.0002976
0.0002967
0.0002956
0.0002946
0.0002935
0.0002923
0.000291
0.0002896
0.0002881
0.0002864
0.0002845
0.0002823
0.0002798
0.0002768
0.0002732
0.0002691
0.0002643
0.0002587
0.0002528
0.0002465
0.0002394
0.0002304
0.0002211
0.000213
0.0002005
0.0001821
0.0001643
0.000148
0.0001309
0.0001139
0.0001026
9.477e-05
8.6e-05
7.767e-05
7.096e-05
6.508e-05
5.944e-05
5.421e-05
4.964e-05
4.574e-05
4.244e-05
3.964e-05
3.726e-05
3.522e-05
3.346e-05
3.19e-05
3.051e-05
2.923e-05
2.805e-05
2.694e-05
2.589e-05
2.488e-05
2.391e-05
2.297e-05
2.206e-05
2.117e-05
2.031e-05
1.948e-05
1.867e-05
1.788e-05
1.711e-05
1.637e-05
1.564e-05
1.494e-05
1.425e-05
1.359e-05
1.294e-05
1.23e-05
1.168e-05
1.108e-05
1.049e-05
9.908e-06
9.34e-06
8.783e-06
8.235e-06
7.696e-06
7.166e-06
6.642e-06
6.126e-06
5.615e-06
5.11e-06
4.61e-06
4.113e-06
3.62e-06
3.13e-06
2.642e-06
2.155e-06
1.667e-06
1.179e-06
6.868e-07
2.096e-07
0.0003128
0.0003142
0.0003153
0.0003161
0.0003167
0.0003169
0.0003169
0.0003167
0.0003164
0.0003161
0.0003156
0.0003151
0.0003146
0.0003141
0.0003136
0.000313
0.0003125
0.000312
0.0003114
0.0003109
0.0003104
0.0003098
0.0003093
0.0003087
0.0003081
0.0003075
0.0003069
0.0003063
0.0003057
0.000305
0.0003043
0.0003037
0.0003029
0.0003022
0.0003015
0.0003007
0.0003
0.0002992
0.0002983
0.0002975
0.0002966
0.0002957
0.0002948
0.0002938
0.0002927
0.0002915
0.0002902
0.0002887
0.000287
0.000285
0.0002825
0.0002796
0.000276
0.0002718
0.0002668
0.0002616
0.0002568
0.0002512
0.0002419
0.0002312
0.0002282
0.0002187
0.0001898
0.0001643
0.0001457
0.0001221
9.684e-05
8.832e-05
8.472e-05
7.481e-05
6.629e-05
6.099e-05
5.644e-05
5.156e-05
4.685e-05
4.28e-05
3.946e-05
3.67e-05
3.442e-05
3.253e-05
3.095e-05
2.961e-05
2.843e-05
2.738e-05
2.641e-05
2.55e-05
2.463e-05
2.379e-05
2.297e-05
2.216e-05
2.137e-05
2.059e-05
1.982e-05
1.907e-05
1.833e-05
1.761e-05
1.69e-05
1.621e-05
1.554e-05
1.488e-05
1.423e-05
1.36e-05
1.298e-05
1.238e-05
1.179e-05
1.121e-05
1.064e-05
1.009e-05
9.542e-06
9.005e-06
8.476e-06
7.956e-06
7.442e-06
6.935e-06
6.435e-06
5.94e-06
5.45e-06
4.964e-06
4.483e-06
4.005e-06
3.53e-06
3.058e-06
2.587e-06
2.118e-06
1.65e-06
1.181e-06
7.097e-07
2.364e-07
0.000312
0.0003133
0.0003144
0.0003152
0.0003158
0.0003161
0.0003162
0.0003161
0.0003159
0.0003156
0.0003152
0.0003148
0.0003143
0.0003139
0.0003134
0.0003129
0.0003124
0.000312
0.0003115
0.000311
0.0003105
0.00031
0.0003095
0.000309
0.0003084
0.0003079
0.0003074
0.0003068
0.0003063
0.0003057
0.0003051
0.0003045
0.0003039
0.0003033
0.0003027
0.000302
0.0003014
0.0003007
0.0003001
0.0002994
0.0002987
0.000298
0.0002974
0.0002966
0.0002959
0.0002951
0.0002942
0.0002932
0.0002919
0.0002904
0.0002886
0.0002862
0.0002834
0.0002798
0.0002754
0.0002713
0.000269
0.0002669
0.0002558
0.0002373
0.0002371
0.0002401
0.0001662
0.0001563
0.0001558
0.0001455
7.568e-05
7.781e-05
7.825e-05
6.19e-05
5.162e-05
4.924e-05
4.703e-05
4.315e-05
3.898e-05
3.552e-05
3.281e-05
3.066e-05
2.895e-05
2.76e-05
2.652e-05
2.563e-05
2.486e-05
2.417e-05
2.352e-05
2.289e-05
2.227e-05
2.164e-05
2.101e-05
2.037e-05
1.972e-05
1.908e-05
1.843e-05
1.779e-05
1.715e-05
1.652e-05
1.59e-05
1.528e-05
1.467e-05
1.408e-05
1.349e-05
1.292e-05
1.235e-05
1.18e-05
1.125e-05
1.072e-05
1.019e-05
9.671e-06
9.159e-06
8.654e-06
8.155e-06
7.663e-06
7.176e-06
6.694e-06
6.217e-06
5.745e-06
5.276e-06
4.811e-06
4.35e-06
3.891e-06
3.435e-06
2.981e-06
2.53e-06
2.08e-06
1.63e-06
1.182e-06
7.33e-07
2.639e-07
0.0003113
0.0003125
0.0003136
0.0003144
0.000315
0.0003154
0.0003155
0.0003155
0.0003154
0.0003152
0.0003149
0.0003145
0.0003141
0.0003137
0.0003133
0.0003129
0.0003124
0.000312
0.0003115
0.0003111
0.0003106
0.0003102
0.0003097
0.0003093
0.0003088
0.0003083
0.0003079
0.0003074
0.0003069
0.0003064
0.0003059
0.0003054
0.0003049
0.0003044
0.0003039
0.0003033
0.0003028
0.0003023
0.0003018
0.0003013
0.0003008
0.0003004
0.0002999
0.0002995
0.0002991
0.0002986
0.0002982
0.0002976
0.0002969
0.000296
0.0002947
0.0002931
0.0002908
0.0002878
0.0002835
0.000279
0.0002785
0.0002844
0.0002776
0.0001865
0.0001927
0.0002053
0.0001396
0.0001515
0.0001622
0.0001715
0.0001086
0.000122
0.0001279
4.241e-05
3.408e-05
3.984e-05
3.946e-05
3.513e-05
3.106e-05
2.808e-05
2.601e-05
2.45e-05
2.339e-05
2.26e-05
2.205e-05
2.163e-05
2.129e-05
2.097e-05
2.065e-05
2.029e-05
1.991e-05
1.949e-05
1.905e-05
1.857e-05
1.807e-05
1.756e-05
1.703e-05
1.649e-05
1.595e-05
1.541e-05
1.487e-05
1.433e-05
1.38e-05
1.327e-05
1.274e-05
1.222e-05
1.171e-05
1.121e-05
1.071e-05
1.021e-05
9.726e-06
9.244e-06
8.767e-06
8.295e-06
7.827e-06
7.363e-06
6.904e-06
6.447e-06
5.995e-06
5.545e-06
5.098e-06
4.654e-06
4.213e-06
3.774e-06
3.337e-06
2.903e-06
2.47e-06
2.039e-06
1.61e-06
1.183e-06
7.564e-07
2.918e-07
0.0003107
0.0003119
0.0003129
0.0003137
0.0003144
0.0003148
0.000315
0.000315
0.000315
0.0003148
0.0003146
0.0003143
0.000314
0.0003136
0.0003132
0.0003128
0.0003124
0.000312
0.0003116
0.0003112
0.0003108
0.0003104
0.00031
0.0003096
0.0003092
0.0003088
0.0003084
0.000308
0.0003075
0.0003071
0.0003067
0.0003063
0.0003059
0.0003055
0.000305
0.0003046
0.0003043
0.0003039
0.0003035
0.0003032
0.0003029
0.0003026
0.0003024
0.0003022
0.0003021
0.0003021
0.000302
0.0003019
0.0003018
0.0003014
0.0003008
0.0002998
0.0002984
0.0002958
0.0002909
0.0002822
0.0002762
0.000273
0.0002454
0.0001355
0.0001647
-0.0001598
7.612e-06
0.0001272
0.0001884
0.0003061
0.0004193
0.0001504
0.000175
8.019e-05
4.72e-05
4.274e-05
3.603e-05
2.807e-05
2.296e-05
2.051e-05
1.919e-05
1.837e-05
1.79e-05
1.771e-05
1.77e-05
1.777e-05
1.784e-05
1.788e-05
1.786e-05
1.777e-05
1.762e-05
1.74e-05
1.713e-05
1.681e-05
1.645e-05
1.606e-05
1.564e-05
1.521e-05
1.477e-05
1.431e-05
1.385e-05
1.339e-05
1.292e-05
1.246e-05
1.199e-05
1.153e-05
1.107e-05
1.061e-05
1.016e-05
9.709e-06
9.261e-06
8.816e-06
8.374e-06
7.935e-06
7.497e-06
7.063e-06
6.63e-06
6.199e-06
5.771e-06
5.344e-06
4.919e-06
4.496e-06
4.075e-06
3.656e-06
3.238e-06
2.823e-06
2.41e-06
1.998e-06
1.59e-06
1.183e-06
7.794e-07
3.195e-07
0.0003103
0.0003114
0.0003124
0.0003132
0.0003138
0.0003142
0.0003145
0.0003146
0.0003146
0.0003145
0.0003143
0.0003141
0.0003138
0.0003135
0.0003132
0.0003128
0.0003125
0.0003121
0.0003117
0.0003114
0.000311
0.0003107
0.0003103
0.0003099
0.0003096
0.0003092
0.0003089
0.0003085
0.0003082
0.0003078
0.0003075
0.0003072
0.0003068
0.0003065
0.0003062
0.0003059
0.0003056
0.0003054
0.0003052
0.000305
0.0003049
0.0003048
0.0003048
0.0003048
0.000305
0.0003053
0.0003056
0.000306
0.0003063
0.0003066
0.0003066
0.0003063
0.0003058
0.0003049
0.0003005
0.000291
0.0002306
0.0002305
-0.000198
-8.697e-05
3.859e-05
-4.035e-06
5.484e-05
0.000126
0.0001873
0.0002553
0.0003041
0.0002777
0.0004161
0.0005616
8.908e-05
9.178e-05
2.993e-05
1.794e-05
1.364e-05
1.294e-05
1.266e-05
1.257e-05
1.273e-05
1.314e-05
1.365e-05
1.416e-05
1.462e-05
1.499e-05
1.525e-05
1.54e-05
1.545e-05
1.541e-05
1.529e-05
1.512e-05
1.488e-05
1.461e-05
1.43e-05
1.397e-05
1.361e-05
1.324e-05
1.285e-05
1.246e-05
1.206e-05
1.166e-05
1.126e-05
1.085e-05
1.044e-05
1.003e-05
9.622e-06
9.213e-06
8.804e-06
8.396e-06
7.988e-06
7.58e-06
7.173e-06
6.767e-06
6.361e-06
5.955e-06
5.551e-06
5.147e-06
4.743e-06
4.341e-06
3.94e-06
3.54e-06
3.141e-06
2.744e-06
2.35e-06
1.958e-06
1.569e-06
1.183e-06
8.018e-07
3.466e-07
0.0003099
0.0003109
0.0003119
0.0003127
0.0003133
0.0003138
0.0003141
0.0003143
0.0003143
0.0003143
0.0003141
0.000314
0.0003137
0.0003135
0.0003132
0.0003128
0.0003125