/*--------------------------------*- C++ -*----------------------------------*\
  =========                 |
  \\      /  F ield         | OpenFOAM: The Open Source CFD Toolbox
   \\    /   O peration     | Website:  https://openfoam.org
    \\  /    A nd           | Version:  7
     \\/     M anipulation  |
\*---------------------------------------------------------------------------*/
FoamFile
{
    version     2.0;
    format      ascii;
    class       surfaceScalarField;
    location    "239.999473411311953";
    object      phi;
}
// * * * * * * * * * * * * * * * * * * * * * * * * * * * * * * * * * * * * * //

dimensions      [0 3 -1 0 0 0 0];

internalField   nonuniform List<scalar> 
8032
(
6.857e-10
2.518e-10
4.804e-10
2.053e-10
3.48e-10
1.324e-10
2.643e-10
8.371e-11
2.101e-10
5.414e-11
1.738e-10
3.634e-11
1.483e-10
2.546e-11
1.297e-10
1.86e-11
1.156e-10
1.408e-11
1.047e-10
1.096e-11
9.596e-11
8.72e-12
8.891e-11
7.048e-12
8.315e-11
5.762e-12
7.841e-11
4.745e-12
7.448e-11
3.923e-12
7.124e-11
3.245e-12
6.857e-11
2.675e-12
6.638e-11
2.187e-12
6.462e-11
1.763e-12
6.323e-11
1.389e-12
6.217e-11
1.053e-12
6.143e-11
7.463e-13
6.096e-11
4.62e-13
6.077e-11
1.941e-13
6.083e-11
-6.231e-14
6.114e-11
-3.114e-13
6.17e-11
-5.569e-13
6.25e-11
-8.019e-13
6.355e-11
-1.049e-12
6.485e-11
-1.301e-12
6.641e-11
-1.56e-12
6.824e-11
-1.828e-12
7.035e-11
-2.107e-12
7.275e-11
-2.397e-12
7.545e-11
-2.699e-12
7.846e-11
-3.015e-12
8.18e-11
-3.344e-12
8.549e-11
-3.685e-12
8.953e-11
-4.038e-12
9.393e-11
-4.401e-12
9.87e-11
-4.771e-12
1.038e-10
-5.145e-12
1.094e-10
-5.518e-12
1.152e-10
-5.886e-12
1.215e-10
-6.243e-12
1.281e-10
-6.58e-12
1.35e-10
-6.89e-12
1.421e-10
-7.163e-12
1.495e-10
-7.391e-12
1.571e-10
-7.562e-12
1.647e-10
-7.666e-12
1.724e-10
-7.694e-12
1.801e-10
-7.636e-12
1.876e-10
-7.483e-12
1.948e-10
-7.227e-12
2.016e-10
-6.864e-12
2.08e-10
-6.391e-12
2.138e-10
-5.807e-12
2.19e-10
-5.116e-12
2.233e-10
-4.325e-12
2.267e-10
-3.444e-12
2.292e-10
-2.488e-12
2.307e-10
-1.478e-12
2.311e-10
-4.363e-13
2.305e-10
6.127e-13
2.289e-10
1.643e-12
2.262e-10
2.632e-12
2.227e-10
3.557e-12
2.183e-10
4.402e-12
2.131e-10
5.155e-12
2.073e-10
5.807e-12
2.01e-10
6.353e-12
1.942e-10
6.794e-12
1.87e-10
7.13e-12
1.797e-10
7.367e-12
1.722e-10
7.508e-12
1.646e-10
7.563e-12
1.571e-10
7.538e-12
1.496e-10
7.443e-12
1.423e-10
7.286e-12
1.353e-10
7.078e-12
1.284e-10
6.826e-12
1.219e-10
6.541e-12
1.157e-10
6.231e-12
1.098e-10
5.902e-12
1.042e-10
5.563e-12
9.898e-11
5.219e-12
9.41e-11
4.875e-12
8.957e-11
4.536e-12
8.536e-11
4.205e-12
8.148e-11
3.885e-12
7.79e-11
3.578e-12
7.461e-11
3.286e-12
7.16e-11
3.01e-12
6.885e-11
2.75e-12
6.635e-11
2.507e-12
6.407e-11
2.28e-12
6.2e-11
2.069e-12
6.012e-11
1.875e-12
5.843e-11
1.695e-12
5.69e-11
1.53e-12
5.552e-11
1.379e-12
5.428e-11
1.24e-12
5.316e-11
1.114e-12
5.217e-11
9.991e-13
5.127e-11
8.947e-13
5.047e-11
8e-13
4.976e-11
7.143e-13
4.912e-11
6.368e-13
4.855e-11
5.67e-13
4.805e-11
5.042e-13
4.76e-11
4.479e-13
4.72e-11
3.975e-13
4.685e-11
3.526e-13
4.654e-11
3.129e-13
4.626e-11
2.781e-13
4.601e-11
2.479e-13
4.579e-11
2.223e-13
4.559e-11
2.012e-13
4.54e-11
1.848e-13
4.523e-11
1.736e-13
4.506e-11
1.682e-13
4.489e-11
1.703e-13
4.471e-11
1.825e-13
4.45e-11
2.102e-13
4.424e-11
2.621e-13
4.389e-11
3.483e-13
4.525e-13
9.523e-10
2.37e-10
8.501e-10
3.075e-10
7.275e-10
2.55e-10
6.183e-10
1.929e-10
5.295e-10
1.43e-10
4.595e-10
1.064e-10
4.045e-10
8.039e-11
3.612e-10
6.196e-11
3.266e-10
4.869e-11
2.986e-10
3.892e-11
2.758e-10
3.154e-11
2.57e-10
2.584e-11
2.414e-10
2.134e-11
2.284e-10
1.771e-11
2.176e-10
1.473e-11
2.086e-10
1.224e-11
2.012e-10
1.013e-11
1.95e-10
8.312e-12
1.901e-10
6.72e-12
1.862e-10
5.306e-12
1.832e-10
4.031e-12
1.811e-10
2.863e-12
1.798e-10
1.778e-12
1.792e-10
7.543e-13
1.794e-10
-2.266e-13
1.802e-10
-1.18e-12
1.818e-10
-2.118e-12
1.84e-10
-3.054e-12
1.87e-10
-3.997e-12
1.907e-10
-4.957e-12
1.95e-10
-5.941e-12
2.002e-10
-6.955e-12
2.061e-10
-8.006e-12
2.128e-10
-9.098e-12
2.203e-10
-1.023e-11
2.287e-10
-1.141e-11
2.38e-10
-1.264e-11
2.482e-10
-1.391e-11
2.594e-10
-1.521e-11
2.715e-10
-1.655e-11
2.847e-10
-1.791e-11
2.988e-10
-1.927e-11
3.139e-10
-2.063e-11
3.3e-10
-2.197e-11
3.47e-10
-2.325e-11
3.649e-10
-2.445e-11
3.835e-10
-2.555e-11
4.029e-10
-2.651e-11
4.228e-10
-2.73e-11
4.431e-10
-2.788e-11
4.636e-10
-2.821e-11
4.842e-10
-2.826e-11
5.046e-10
-2.799e-11
5.245e-10
-2.738e-11
5.436e-10
-2.641e-11
5.618e-10
-2.504e-11
5.787e-10
-2.329e-11
5.941e-10
-2.114e-11
6.075e-10
-1.86e-11
6.189e-10
-1.572e-11
6.28e-10
-1.252e-11
6.346e-10
-9.054e-12
6.385e-10
-5.401e-12
6.397e-10
-1.635e-12
6.381e-10
2.156e-12
6.339e-10
5.886e-12
6.271e-10
9.47e-12
6.178e-10
1.283e-11
6.063e-10
1.592e-11
5.927e-10
1.868e-11
5.775e-10
2.109e-11
5.607e-10
2.312e-11
5.427e-10
2.478e-11
5.238e-10
2.606e-11
5.042e-10
2.698e-11
4.841e-10
2.755e-11
4.639e-10
2.781e-11
4.436e-10
2.778e-11
4.236e-10
2.749e-11
4.039e-10
2.697e-11
3.847e-10
2.626e-11
3.662e-10
2.538e-11
3.483e-10
2.437e-11
3.313e-10
2.327e-11
3.151e-10
2.209e-11
2.998e-10
2.087e-11
2.854e-10
1.962e-11
2.719e-10
1.836e-11
2.593e-10
1.712e-11
2.476e-10
1.591e-11
2.368e-10
1.473e-11
2.268e-10
1.359e-11
2.176e-10
1.251e-11
2.091e-10
1.148e-11
2.013e-10
1.051e-11
1.942e-10
9.6e-12
1.878e-10
8.748e-12
1.819e-10
7.956e-12
1.765e-10
7.221e-12
1.717e-10
6.542e-12
1.673e-10
5.916e-12
1.633e-10
5.341e-12
1.598e-10
4.815e-12
1.565e-10
4.333e-12
1.536e-10
3.894e-12
1.511e-10
3.494e-12
1.487e-10
3.131e-12
1.466e-10
2.801e-12
1.448e-10
2.503e-12
1.431e-10
2.234e-12
1.416e-10
1.991e-12
1.403e-10
1.773e-12
1.391e-10
1.578e-12
1.381e-10
1.404e-12
1.371e-10
1.249e-12
1.363e-10
1.113e-12
1.355e-10
9.954e-13
1.349e-10
8.947e-13
1.343e-10
8.111e-13
1.337e-10
7.451e-13
1.332e-10
6.976e-13
1.327e-10
6.705e-13
1.322e-10
6.667e-13
1.317e-10
6.909e-13
1.311e-10
7.5e-13
1.305e-10
8.518e-13
1.299e-10
9.95e-13
1.13e-12
9.779e-10
1.966e-10
9.637e-10
3.217e-10
9.014e-10
3.174e-10
8.213e-10
2.729e-10
7.412e-10
2.231e-10
6.684e-10
1.792e-10
6.053e-10
1.435e-10
5.516e-10
1.156e-10
5.064e-10
9.387e-11
4.685e-10
7.689e-11
4.365e-10
6.348e-11
4.096e-10
5.275e-11
3.869e-10
4.404e-11
3.678e-10
3.686e-11
3.516e-10
3.087e-11
3.381e-10
2.579e-11
3.268e-10
2.143e-11
3.175e-10
1.764e-11
3.099e-10
1.43e-11
3.039e-10
1.131e-11
2.993e-10
8.606e-12
2.96e-10
6.115e-12
2.94e-10
3.792e-12
2.932e-10
1.594e-12
2.935e-10
-5.156e-13
2.949e-10
-2.568e-12
2.973e-10
-4.591e-12
3.009e-10
-6.607e-12
3.055e-10
-8.638e-12
3.113e-10
-1.07e-11
3.182e-10
-1.282e-11
3.262e-10
-1.499e-11
3.354e-10
-1.724e-11
3.459e-10
-1.958e-11
3.577e-10
-2.2e-11
3.708e-10
-2.451e-11
3.852e-10
-2.711e-11
4.011e-10
-2.98e-11
4.185e-10
-3.256e-11
4.373e-10
-3.538e-11
4.576e-10
-3.824e-11
4.795e-10
-4.11e-11
5.028e-10
-4.395e-11
5.275e-10
-4.672e-11
5.537e-10
-4.939e-11
5.811e-10
-5.188e-11
6.097e-10
-5.414e-11
6.393e-10
-5.611e-11
6.697e-10
-5.77e-11
7.007e-10
-5.885e-11
7.32e-10
-5.948e-11
7.632e-10
-5.952e-11
7.941e-10
-5.89e-11
8.243e-10
-5.756e-11
8.534e-10
-5.546e-11
8.809e-10
-5.256e-11
9.064e-10
-4.884e-11
9.296e-10
-4.43e-11
9.5e-10
-3.898e-11
9.672e-10
-3.293e-11
9.809e-10
-2.623e-11
9.908e-10
-1.9e-11
9.968e-10
-1.137e-11
9.987e-10
-3.508e-12
9.964e-10
4.407e-12
9.901e-10
1.22e-11
9.799e-10
1.969e-11
9.66e-10
2.674e-11
9.487e-10
3.322e-11
9.283e-10
3.903e-11
9.053e-10
4.411e-11
8.8e-10
4.843e-11
8.528e-10
5.196e-11
8.242e-10
5.472e-11
7.944e-10
5.672e-11
7.64e-10
5.801e-11
7.331e-10
5.864e-11
7.023e-10
5.865e-11
6.716e-10
5.811e-11
6.415e-10
5.709e-11
6.121e-10
5.566e-11
5.836e-10
5.388e-11
5.562e-10
5.182e-11
5.299e-10
4.954e-11
5.049e-10
4.71e-11
4.812e-10
4.455e-11
4.589e-10
4.195e-11
4.379e-10
3.932e-11
4.183e-10
3.672e-11
4.001e-10
3.416e-11
3.831e-10
3.167e-11
3.674e-10
2.927e-11
3.53e-10
2.698e-11
3.397e-10
2.479e-11
3.274e-10
2.273e-11
3.163e-10
2.079e-11
3.06e-10
1.897e-11
2.967e-10
1.727e-11
2.882e-10
1.57e-11
2.805e-10
1.424e-11
2.736e-10
1.29e-11
2.672e-10
1.166e-11
2.615e-10
1.053e-11
2.564e-10
9.486e-12
2.517e-10
8.536e-12
2.476e-10
7.671e-12
2.438e-10
6.883e-12
2.404e-10
6.168e-12
2.374e-10
5.521e-12
2.347e-10
4.935e-12
2.323e-10
4.406e-12
2.302e-10
3.93e-12
2.282e-10
3.504e-12
2.265e-10
3.122e-12
2.25e-10
2.784e-12
2.236e-10
2.485e-12
2.224e-10
2.225e-12
2.213e-10
2.002e-12
2.203e-10
1.815e-12
2.193e-10
1.664e-12
2.185e-10
1.551e-12
2.177e-10
1.478e-12
2.169e-10
1.448e-12
2.161e-10
1.465e-12
2.153e-10
1.533e-12
2.145e-10
1.652e-12
2.137e-10
1.806e-12
1.931e-12
9.752e-10
1.589e-10
9.931e-10
3.038e-10
9.729e-10
3.375e-10
9.271e-10
3.187e-10
8.695e-10
2.808e-10
8.091e-10
2.395e-10
7.513e-10
2.013e-10
6.985e-10
1.685e-10
6.514e-10
1.409e-10
6.102e-10
1.182e-10
5.743e-10
9.938e-11
5.432e-10
8.379e-11
5.165e-10
7.076e-11
4.936e-10
5.979e-11
4.74e-10
5.044e-11
4.574e-10
4.24e-11
4.434e-10
3.541e-11
4.318e-10
2.925e-11
4.223e-10
2.378e-11
4.148e-10
1.884e-11
4.091e-10
1.434e-11
4.05e-10
1.017e-11
4.025e-10
6.272e-12
4.015e-10
2.566e-12
4.02e-10
-1.001e-12
4.039e-10
-4.478e-12
4.073e-10
-7.909e-12
4.12e-10
-1.133e-11
4.181e-10
-1.478e-11
4.257e-10
-1.828e-11
4.348e-10
-2.187e-11
4.453e-10
-2.556e-11
4.574e-10
-2.936e-11
4.712e-10
-3.331e-11
4.866e-10
-3.739e-11
5.037e-10
-4.162e-11
5.226e-10
-4.6e-11
5.433e-10
-5.05e-11
5.658e-10
-5.513e-11
5.903e-10
-5.984e-11
6.167e-10
-6.461e-11
6.449e-10
-6.938e-11
6.751e-10
-7.41e-11
7.071e-10
-7.87e-11
7.408e-10
-8.31e-11
7.761e-10
-8.721e-11
8.129e-10
-9.092e-11
8.509e-10
-9.413e-11
8.899e-10
-9.671e-11
9.296e-10
-9.854e-11
9.696e-10
-9.951e-11
1.01e-09
-9.95e-11
1.049e-09
-9.839e-11
1.088e-09
-9.609e-11
1.125e-09
-9.252e-11
1.16e-09
-8.763e-11
1.192e-09
-8.14e-11
1.222e-09
-7.382e-11
1.248e-09
-6.495e-11
1.27e-09
-5.487e-11
1.287e-09
-4.373e-11
1.3e-09
-3.17e-11
1.308e-09
-1.903e-11
1.31e-09
-5.965e-12
1.307e-09
7.189e-12
1.299e-09
2.014e-11
1.286e-09
3.261e-11
1.269e-09
4.435e-11
1.247e-09
5.515e-11
1.221e-09
6.486e-11
1.192e-09
7.337e-11
1.16e-09
8.061e-11
1.125e-09
8.657e-11
1.088e-09
9.125e-11
1.051e-09
9.468e-11
1.012e-09
9.694e-11
9.722e-10
9.808e-11
9.326e-10
9.821e-11
8.933e-10
9.741e-11
8.546e-10
9.581e-11
8.167e-10
9.351e-11
7.8e-10
9.062e-11
7.446e-10
8.725e-11
7.106e-10
8.351e-11
6.782e-10
7.949e-11
6.475e-10
7.528e-11
6.184e-10
7.097e-11
5.912e-10
6.661e-11
5.656e-10
6.227e-11
5.418e-10
5.8e-11
5.196e-10
5.384e-11
4.99e-10
4.982e-11
4.801e-10
4.597e-11
4.626e-10
4.23e-11
4.465e-10
3.882e-11
4.317e-10
3.555e-11
4.182e-10
3.247e-11
4.059e-10
2.961e-11
3.946e-10
2.694e-11
3.844e-10
2.447e-11
3.751e-10
2.219e-11
3.667e-10
2.008e-11
3.591e-10
1.815e-11
3.522e-10
1.638e-11
3.459e-10
1.476e-11
3.403e-10
1.328e-11
3.353e-10
1.193e-11
3.308e-10
1.07e-11
3.267e-10
9.592e-12
3.23e-10
8.585e-12
3.198e-10
7.676e-12
3.168e-10
6.856e-12
3.142e-10
6.12e-12
3.119e-10
5.462e-12
3.098e-10
4.876e-12
3.079e-10
4.358e-12
3.062e-10
3.905e-12
3.047e-10
3.514e-12
3.034e-10
3.183e-12
3.021e-10
2.912e-12
3.01e-10
2.701e-12
2.999e-10
2.552e-12
2.989e-10
2.467e-12
2.979e-10
2.447e-12
2.969e-10
2.493e-12
2.96e-10
2.595e-12
2.951e-10
2.73e-12
2.833e-12
9.668e-10
1.296e-10
9.945e-10
2.761e-10
9.981e-10
3.34e-10
9.785e-10
3.383e-10
9.432e-10
3.16e-10
8.996e-10
2.83e-10
8.532e-10
2.478e-10
8.074e-10
2.143e-10
7.642e-10
1.841e-10
7.246e-10
1.578e-10
6.888e-10
1.351e-10
6.571e-10
1.155e-10
6.291e-10
9.874e-11
6.047e-10
8.422e-11
5.835e-10
7.161e-11
5.653e-10
6.058e-11
5.499e-10
5.084e-11
5.37e-10
4.217e-11
5.264e-10
3.437e-11
5.18e-10
2.728e-11
5.115e-10
2.075e-11
5.07e-10
1.468e-11
5.044e-10
8.96e-12
5.034e-10
3.503e-12
5.042e-10
-1.768e-12
5.066e-10
-6.919e-12
5.107e-10
-1.201e-11
5.165e-10
-1.71e-11
5.239e-10
-2.222e-11
5.331e-10
-2.743e-11
5.44e-10
-3.276e-11
5.567e-10
-3.824e-11
5.712e-10
-4.389e-11
5.876e-10
-4.974e-11
6.06e-10
-5.579e-11
6.265e-10
-6.205e-11
6.49e-10
-6.851e-11
6.736e-10
-7.516e-11
7.005e-10
-8.197e-11
7.295e-10
-8.889e-11
7.608e-10
-9.589e-11
7.943e-10
-1.029e-10
8.3e-10
-1.098e-10
8.678e-10
-1.165e-10
9.076e-10
-1.229e-10
9.493e-10
-1.289e-10
9.926e-10
-1.343e-10
1.037e-09
-1.389e-10
1.083e-09
-1.426e-10
1.13e-09
-1.452e-10
1.177e-09
-1.465e-10
1.224e-09
-1.464e-10
1.27e-09
-1.447e-10
1.315e-09
-1.413e-10
1.359e-09
-1.36e-10
1.4e-09
-1.287e-10
1.438e-09
-1.196e-10
1.473e-09
-1.084e-10
1.503e-09
-9.539e-11
1.529e-09
-8.062e-11
1.549e-09
-6.428e-11
1.564e-09
-4.665e-11
1.573e-09
-2.807e-11
1.576e-09
-8.918e-12
1.573e-09
1.037e-11
1.564e-09
2.936e-11
1.549e-09
4.765e-11
1.528e-09
6.488e-11
1.503e-09
8.074e-11
1.473e-09
9.502e-11
1.438e-09
1.075e-10
1.401e-09
1.182e-10
1.36e-09
1.271e-10
1.318e-09
1.34e-10
1.273e-09
1.392e-10
1.227e-09
1.426e-10
1.181e-09
1.444e-10
1.135e-09
1.447e-10
1.088e-09
1.437e-10
1.043e-09
1.414e-10
9.981e-10
1.382e-10
9.547e-10
1.34e-10
9.128e-10
1.291e-10
8.726e-10
1.237e-10
8.342e-10
1.179e-10
7.977e-10
1.118e-10
7.632e-10
1.055e-10
7.307e-10
9.908e-11
7.003e-10
9.272e-11
6.718e-10
8.646e-11
6.453e-10
8.034e-11
6.207e-10
7.442e-11
5.98e-10
6.873e-11
5.77e-10
6.331e-11
5.576e-10
5.817e-11
5.398e-10
5.332e-11
5.235e-10
4.876e-11
5.087e-10
4.451e-11
4.95e-10
4.054e-11
4.827e-10
3.686e-11
4.714e-10
3.346e-11
4.611e-10
3.032e-11
4.519e-10
2.743e-11
4.435e-10
2.478e-11
4.359e-10
2.235e-11
4.29e-10
2.013e-11
4.228e-10
1.811e-11
4.173e-10
1.627e-11
4.123e-10
1.459e-11
4.078e-10
1.308e-11
4.038e-10
1.171e-11
4.001e-10
1.047e-11
3.969e-10
9.355e-12
3.94e-10
8.358e-12
3.914e-10
7.469e-12
3.891e-10
6.681e-12
3.87e-10
5.989e-12
3.851e-10
5.388e-12
3.834e-10
4.875e-12
3.819e-10
4.449e-12
3.805e-10
4.107e-12
3.792e-10
3.851e-12
3.78e-10
3.68e-12
3.768e-10
3.593e-12
3.758e-10
3.585e-12
3.747e-10
3.644e-12
3.737e-10
3.74e-12
3.817e-12
9.592e-10
1.079e-10
9.877e-10
2.476e-10
1.003e-09
3.186e-10
1.001e-09
3.406e-10
9.834e-10
3.334e-10
9.557e-10
3.107e-10
9.221e-10
2.814e-10
8.86e-10
2.504e-10
8.497e-10
2.204e-10
8.147e-10
1.927e-10
7.821e-10
1.677e-10
7.522e-10
1.455e-10
7.252e-10
1.257e-10
7.011e-10
1.083e-10
6.799e-10
9.279e-11
6.615e-10
7.899e-11
6.457e-10
6.663e-11
6.324e-10
5.548e-11
6.215e-10
4.533e-11
6.127e-10
3.601e-11
6.061e-10
2.737e-11
6.015e-10
1.927e-11
5.989e-10
1.16e-11
5.981e-10
4.239e-12
5.993e-10
-2.898e-12
6.023e-10
-9.895e-12
6.071e-10
-1.683e-11
6.137e-10
-2.376e-11
6.223e-10
-3.076e-11
6.327e-10
-3.788e-11
6.451e-10
-4.516e-11
6.595e-10
-5.264e-11
6.76e-10
-6.035e-11
6.946e-10
-6.833e-11
7.153e-10
-7.657e-11
7.384e-10
-8.509e-11
7.637e-10
-9.388e-11
7.915e-10
-1.029e-10
8.217e-10
-1.121e-10
8.543e-10
-1.215e-10
8.894e-10
-1.31e-10
9.27e-10
-1.404e-10
9.669e-10
-1.498e-10
1.009e-09
-1.588e-10
1.054e-09
-1.674e-10
1.1e-09
-1.755e-10
1.149e-09
-1.827e-10
1.199e-09
-1.889e-10
1.25e-09
-1.938e-10
1.302e-09
-1.972e-10
1.354e-09
-1.989e-10
1.407e-09
-1.987e-10
1.458e-09
-1.963e-10
1.508e-09
-1.916e-10
1.557e-09
-1.843e-10
1.603e-09
-1.745e-10
1.645e-09
-1.621e-10
1.684e-09
-1.47e-10
1.718e-09
-1.293e-10
1.746e-09
-1.093e-10
1.769e-09
-8.724e-11
1.786e-09
-6.337e-11
1.796e-09
-3.821e-11
1.8e-09
-1.227e-11
1.796e-09
1.385e-11
1.786e-09
3.958e-11
1.769e-09
6.436e-11
1.746e-09
8.769e-11
1.718e-09
1.092e-10
1.684e-09
1.285e-10
1.646e-09
1.455e-10
1.605e-09
1.601e-10
1.56e-09
1.721e-10
1.512e-09
1.816e-10
1.463e-09
1.887e-10
1.412e-09
1.934e-10
1.36e-09
1.96e-10
1.308e-09
1.965e-10
1.257e-09
1.953e-10
1.206e-09
1.924e-10
1.156e-09
1.88e-10
1.107e-09
1.825e-10
1.06e-09
1.761e-10
1.015e-09
1.688e-10
9.722e-10
1.61e-10
9.313e-10
1.527e-10
8.925e-10
1.442e-10
8.56e-10
1.356e-10
8.217e-10
1.27e-10
7.896e-10
1.185e-10
7.597e-10
1.103e-10
7.318e-10
1.022e-10
7.061e-10
9.451e-11
6.822e-10
8.713e-11
6.603e-10
8.013e-11
6.401e-10
7.352e-11
6.215e-10
6.73e-11
6.046e-10
6.149e-11
5.89e-10
5.606e-11
5.749e-10
5.102e-11
5.62e-10
4.636e-11
5.503e-10
4.205e-11
5.396e-10
3.808e-11
5.3e-10
3.443e-11
5.212e-10
3.109e-11
5.133e-10
2.803e-11
5.062e-10
2.524e-11
4.998e-10
2.269e-11
4.94e-10
2.038e-11
4.888e-10
1.828e-11
4.841e-10
1.638e-11
4.799e-10
1.466e-11
4.761e-10
1.312e-11
4.728e-10
1.173e-11
4.697e-10
1.049e-11
4.67e-10
9.39e-12
4.646e-10
8.419e-12
4.624e-10
7.572e-12
4.605e-10
6.843e-12
4.587e-10
6.229e-12
4.571e-10
5.726e-12
4.556e-10
5.333e-12
4.542e-10
5.048e-12
4.529e-10
4.865e-12
4.517e-10
4.778e-12
4.506e-10
4.77e-12
4.495e-10
4.814e-12
4.861e-12
9.536e-10
9.175e-11
9.797e-10
2.216e-10
1e-09
2.983e-10
1.008e-09
3.324e-10
1.004e-09
3.377e-10
9.893e-10
3.253e-10
9.675e-10
3.032e-10
9.414e-10
2.765e-10
9.132e-10
2.487e-10
8.845e-10
2.214e-10
8.566e-10
1.956e-10
8.302e-10
1.719e-10
8.058e-10
1.502e-10
7.835e-10
1.305e-10
7.636e-10
1.127e-10
7.461e-10
9.653e-11
7.309e-10
8.183e-11
7.18e-10
6.838e-11
7.073e-10
5.6e-11
6.988e-10
4.452e-11
6.924e-10
3.378e-11
6.88e-10
2.363e-11
6.857e-10
1.395e-11
6.853e-10
4.626e-12
6.868e-10
-4.46e-12
6.903e-10
-1.34e-11
6.958e-10
-2.228e-11
7.032e-10
-3.118e-11
7.126e-10
-4.018e-11
7.241e-10
-4.933e-11
7.376e-10
-5.87e-11
7.533e-10
-6.833e-11
7.712e-10
-7.826e-11
7.914e-10
-8.851e-11
8.139e-10
-9.911e-11
8.389e-10
-1.1e-10
8.663e-10
-1.213e-10
8.963e-10
-1.329e-10
9.289e-10
-1.447e-10
9.641e-10
-1.567e-10
1.002e-09
-1.688e-10
1.042e-09
-1.809e-10
1.086e-09
-1.928e-10
1.131e-09
-2.044e-10
1.179e-09
-2.153e-10
1.229e-09
-2.255e-10
1.281e-09
-2.347e-10
1.335e-09
-2.425e-10
1.39e-09
-2.488e-10
1.446e-09
-2.531e-10
1.502e-09
-2.552e-10
1.558e-09
-2.549e-10
1.614e-09
-2.517e-10
1.668e-09
-2.456e-10
1.72e-09
-2.363e-10
1.769e-09
-2.237e-10
1.814e-09
-2.078e-10
1.856e-09
-1.885e-10
1.892e-09
-1.659e-10
1.923e-09
-1.403e-10
1.948e-09
-1.12e-10
1.966e-09
-8.145e-11
1.977e-09
-4.92e-11
1.981e-09
-1.594e-11
1.977e-09
1.756e-11
1.966e-09
5.056e-11
1.948e-09
8.231e-11
1.924e-09
1.122e-10
1.893e-09
1.397e-10
1.857e-09
1.645e-10
1.817e-09
1.863e-10
1.772e-09
2.049e-10
1.723e-09
2.204e-10
1.672e-09
2.326e-10
1.619e-09
2.418e-10
1.565e-09
2.48e-10
1.509e-09
2.514e-10
1.454e-09
2.522e-10
1.398e-09
2.507e-10
1.343e-09
2.471e-10
1.29e-09
2.417e-10
1.238e-09
2.348e-10
1.187e-09
2.266e-10
1.138e-09
2.174e-10
1.092e-09
2.074e-10
1.048e-09
1.969e-10
1.006e-09
1.861e-10
9.664e-10
1.751e-10
9.292e-10
1.642e-10
8.945e-10
1.533e-10
8.62e-10
1.427e-10
8.318e-10
1.324e-10
8.038e-10
1.225e-10
7.779e-10
1.13e-10
7.54e-10
1.04e-10
7.32e-10
9.554e-11
7.117e-10
8.754e-11
6.932e-10
8.004e-11
6.762e-10
7.304e-11
6.607e-10
6.653e-11
6.466e-10
6.05e-11
6.337e-10
5.492e-11
6.22e-10
4.978e-11
6.113e-10
4.505e-11
6.017e-10
4.072e-11
5.93e-10
3.674e-11
5.851e-10
3.311e-11
5.78e-10
2.98e-11
5.716e-10
2.679e-11
5.658e-10
2.405e-11
5.606e-10
2.157e-11
5.56e-10
1.933e-11
5.518e-10
1.731e-11
5.48e-10
1.549e-11
5.446e-10
1.386e-11
5.416e-10
1.241e-11
5.389e-10
1.113e-11
5.365e-10
1.001e-11
5.343e-10
9.031e-12
5.323e-10
8.202e-12
5.305e-10
7.511e-12
5.289e-10
6.956e-12
5.274e-10
6.53e-12
5.261e-10
6.229e-12
5.248e-10
6.041e-12
5.236e-10
5.951e-12
5.225e-10
5.932e-12
5.945e-12
9.498e-10
7.942e-11
9.727e-10
1.988e-10
9.943e-10
2.766e-10
1.008e-09
3.184e-10
1.013e-09
3.332e-10
1.008e-09
3.298e-10
9.966e-10
3.149e-10
9.797e-10
2.935e-10
9.595e-10
2.688e-10
9.376e-10
2.432e-10
9.153e-10
2.18e-10
8.934e-10
1.938e-10
8.725e-10
1.711e-10
8.53e-10
1.5e-10
8.353e-10
1.304e-10
8.194e-10
1.124e-10
8.055e-10
9.571e-11
7.937e-10
8.025e-11
7.838e-10
6.585e-11
7.76e-10
5.235e-11
7.702e-10
3.961e-11
7.663e-10
2.748e-11
7.645e-10
1.584e-11
7.645e-10
4.548e-12
7.666e-10
-6.498e-12
7.706e-10
-1.741e-11
7.766e-10
-2.828e-11
7.846e-10
-3.92e-11
7.947e-10
-5.025e-11
8.068e-10
-6.151e-11
8.212e-10
-7.304e-11
8.377e-10
-8.489e-11
8.566e-10
-9.711e-11
8.778e-10
-1.097e-10
9.015e-10
-1.228e-10
9.276e-10
-1.362e-10
9.564e-10
-1.501e-10
9.878e-10
-1.643e-10
1.022e-09
-1.788e-10
1.059e-09
-1.936e-10
1.098e-09
-2.084e-10
1.141e-09
-2.232e-10
1.186e-09
-2.378e-10
1.233e-09
-2.519e-10
1.283e-09
-2.654e-10
1.335e-09
-2.778e-10
1.39e-09
-2.89e-10
1.446e-09
-2.986e-10
1.503e-09
-3.062e-10
1.562e-09
-3.114e-10
1.62e-09
-3.14e-10
1.679e-09
-3.134e-10
1.737e-09
-3.096e-10
1.793e-09
-3.02e-10
1.847e-09
-2.906e-10
1.899e-09
-2.751e-10
1.947e-09
-2.556e-10
1.99e-09
-2.319e-10
2.028e-09
-2.042e-10
2.061e-09
-1.728e-10
2.087e-09
-1.38e-10
2.106e-09
-1.005e-10
2.117e-09
-6.077e-11
2.121e-09
-1.982e-11
2.117e-09
2.145e-11
2.106e-09
6.206e-11
2.087e-09
1.011e-10
2.061e-09
1.379e-10
2.029e-09
1.717e-10
1.992e-09
2.021e-10
1.949e-09
2.288e-10
1.903e-09
2.517e-10
1.852e-09
2.707e-10
1.799e-09
2.858e-10
1.744e-09
2.971e-10
1.687e-09
3.049e-10
1.629e-09
3.092e-10
1.571e-09
3.103e-10
1.513e-09
3.086e-10
1.456e-09
3.043e-10
1.4e-09
2.978e-10
1.345e-09
2.894e-10
1.293e-09
2.794e-10
1.242e-09
2.682e-10
1.193e-09
2.56e-10
1.147e-09
2.432e-10
1.103e-09
2.3e-10
1.062e-09
2.165e-10
1.023e-09
2.031e-10
9.862e-10
1.898e-10
9.521e-10
1.768e-10
9.204e-10
1.641e-10
8.909e-10
1.52e-10
8.636e-10
1.403e-10
8.384e-10
1.293e-10
8.152e-10
1.188e-10
7.938e-10
1.089e-10
7.742e-10
9.965e-11
7.563e-10
9.101e-11
7.398e-10
8.297e-11
7.248e-10
7.55e-11
7.111e-10
6.86e-11
6.987e-10
6.223e-11
6.874e-10
5.636e-11
6.771e-10
5.098e-11
6.678e-10
4.604e-11
6.594e-10
4.153e-11
6.518e-10
3.741e-11
6.45e-10
3.365e-11
6.388e-10
3.024e-11
6.332e-10
2.714e-11
6.282e-10
2.434e-11
6.237e-10
2.181e-11
6.196e-10
1.953e-11
6.16e-10
1.749e-11
6.128e-10
1.567e-11
6.099e-10
1.405e-11
6.072e-10
1.262e-11
6.049e-10
1.138e-11
6.028e-10
1.031e-11
6.009e-10
9.415e-12
5.991e-10
8.676e-12
5.976e-10
8.091e-12
5.962e-10
7.652e-12
5.949e-10
7.347e-12
5.936e-10
7.162e-12
5.925e-10
7.073e-12
7.049e-12
9.472e-10
6.97e-11
9.671e-10
1.789e-10
9.884e-10
2.553e-10
1.005e-09
3.013e-10
1.016e-09
3.231e-10
1.018e-09
3.27e-10
1.015e-09
3.187e-10
1.006e-09
3.025e-10
9.928e-10
2.817e-10
9.775e-10
2.585e-10
9.609e-10
2.346e-10
9.438e-10
2.109e-10
9.27e-10
1.879e-10
9.109e-10
1.661e-10
8.959e-10
1.454e-10
8.823e-10
1.26e-10
8.703e-10
1.077e-10
8.6e-10
9.06e-11
8.513e-10
7.445e-11
8.445e-10
5.916e-11
8.396e-10
4.459e-11
8.364e-10
3.061e-11
8.352e-10
1.71e-11
8.358e-10
3.926e-12
8.383e-10
-9.025e-12
8.428e-10
-2.187e-11
8.492e-10
-3.47e-11
8.576e-10
-4.763e-11
8.681e-10
-6.074e-11
8.807e-10
-7.411e-11
8.955e-10
-8.781e-11
9.125e-10
-1.019e-10
9.318e-10
-1.164e-10
9.535e-10
-1.314e-10
9.777e-10
-1.47e-10
1.004e-09
-1.63e-10
1.034e-09
-1.794e-10
1.066e-09
-1.963e-10
1.101e-09
-2.136e-10
1.138e-09
-2.311e-10
1.178e-09
-2.487e-10
1.221e-09
-2.663e-10
1.267e-09
-2.836e-10
1.316e-09
-3.003e-10
1.367e-09
-3.163e-10
1.42e-09
-3.31e-10
1.475e-09
-3.443e-10
1.532e-09
-3.556e-10
1.59e-09
-3.646e-10
1.65e-09
-3.708e-10
1.71e-09
-3.738e-10
1.769e-09
-3.731e-10
1.828e-09
-3.684e-10
1.886e-09
-3.594e-10
1.941e-09
-3.459e-10
1.993e-09
-3.275e-10
2.042e-09
-3.043e-10
2.086e-09
-2.762e-10
2.125e-09
-2.434e-10
2.159e-09
-2.061e-10
2.185e-09
-1.647e-10
2.205e-09
-1.2e-10
2.217e-09
-7.265e-11
2.221e-09
-2.378e-11
2.217e-09
2.545e-11
2.205e-09
7.389e-11
2.186e-09
1.204e-10
2.159e-09
1.641e-10
2.127e-09
2.043e-10
2.088e-09
2.404e-10
2.045e-09
2.721e-10
1.998e-09
2.993e-10
1.946e-09
3.219e-10
1.892e-09
3.399e-10
1.836e-09
3.534e-10
1.778e-09
3.627e-10
1.72e-09
3.679e-10
1.66e-09
3.694e-10
1.602e-09
3.674e-10
1.543e-09
3.625e-10
1.486e-09
3.548e-10
1.431e-09
3.449e-10
1.377e-09
3.332e-10
1.325e-09
3.199e-10
1.276e-09
3.056e-10
1.229e-09
2.904e-10
1.184e-09
2.747e-10
1.142e-09
2.588e-10
1.102e-09
2.428e-10
1.065e-09
2.271e-10
1.03e-09
2.116e-10
9.973e-10
1.966e-10
9.671e-10
1.821e-10
9.392e-10
1.683e-10
9.134e-10
1.551e-10
8.895e-10
1.426e-10
8.676e-10
1.308e-10
8.475e-10
1.198e-10
8.29e-10
1.095e-10
8.121e-10
9.988e-11
7.966e-10
9.096e-11
7.825e-10
8.27e-11
7.696e-10
7.507e-11
7.58e-10
6.805e-11
7.473e-10
6.159e-11
7.377e-10
5.567e-11
7.29e-10
5.025e-11
7.211e-10
4.53e-11
7.14e-10
4.078e-11
7.075e-10
3.668e-11
7.017e-10
3.295e-11
6.965e-10
2.956e-11
6.918e-10
2.651e-11
6.876e-10
2.375e-11
6.838e-10
2.128e-11
6.804e-10
1.906e-11
6.774e-10
1.71e-11
6.746e-10
1.535e-11
6.722e-10
1.383e-11
6.7e-10
1.251e-11
6.68e-10
1.139e-11
6.662e-10
1.045e-11
6.646e-10
9.691e-12
6.632e-10
9.101e-12
6.619e-10
8.669e-12
6.606e-10
8.38e-12
6.595e-10
8.216e-12
8.153e-12
9.454e-10
6.179e-11
9.627e-10
1.616e-10
9.829e-10
2.35e-10
1.001e-09
2.83e-10
1.015e-09
3.094e-10
1.023e-09
3.19e-10
1.025e-09
3.163e-10
1.023e-09
3.05e-10
1.016e-09
2.881e-10
1.007e-09
2.678e-10
9.959e-10
2.458e-10
9.837e-10
2.232e-10
9.71e-10
2.006e-10
9.585e-10
1.785e-10
9.467e-10
1.573e-10
9.357e-10
1.37e-10
9.258e-10
1.176e-10
9.173e-10
9.913e-11
9.102e-10
8.154e-11
9.047e-10
6.471e-11
9.007e-10
4.853e-11
8.984e-10
3.289e-11
8.979e-10
1.766e-11
8.991e-10
2.728e-12
9.021e-10
-1.202e-11
9.069e-10
-2.671e-11
9.136e-10
-4.143e-11
9.223e-10
-5.63e-11
9.33e-10
-7.14e-11
9.457e-10
-8.683e-11
9.605e-10
-1.027e-10
9.776e-10
-1.189e-10
9.969e-10
-1.358e-10
1.019e-09
-1.531e-10
1.043e-09
-1.711e-10
1.069e-09
-1.896e-10
1.099e-09
-2.086e-10
1.13e-09
-2.282e-10
1.165e-09
-2.481e-10
1.202e-09
-2.684e-10
1.242e-09
-2.888e-10
1.285e-09
-3.091e-10
1.331e-09
-3.29e-10
1.379e-09
-3.484e-10
1.429e-09
-3.668e-10
1.482e-09
-3.839e-10
1.537e-09
-3.992e-10
1.594e-09
-4.123e-10
1.652e-09
-4.227e-10
1.711e-09
-4.298e-10
1.77e-09
-4.332e-10
1.83e-09
-4.324e-10
1.888e-09
-4.269e-10
1.945e-09
-4.165e-10
2e-09
-4.008e-10
2.052e-09
-3.796e-10
2.1e-09
-3.527e-10
2.145e-09
-3.203e-10
2.184e-09
-2.823e-10
2.217e-09
-2.392e-10
2.243e-09
-1.914e-10
2.263e-09
-1.395e-10
2.275e-09
-8.452e-11
2.279e-09
-2.771e-11
2.275e-09
2.953e-11
2.263e-09
8.579e-11
2.243e-09
1.398e-10
2.217e-09
1.903e-10
2.185e-09
2.367e-10
2.147e-09
2.784e-10
2.104e-09
3.15e-10
2.057e-09
3.464e-10
2.006e-09
3.725e-10
1.952e-09
3.934e-10
1.897e-09
4.091e-10
1.839e-09
4.2e-10
1.781e-09
4.262e-10
1.722e-09
4.28e-10
1.664e-09
4.259e-10
1.606e-09
4.203e-10
1.549e-09
4.115e-10
1.494e-09
4.002e-10
1.441e-09
3.867e-10
1.389e-09
3.714e-10
1.34e-09
3.548e-10
1.293e-09
3.373e-10
1.248e-09
3.192e-10
1.206e-09
3.008e-10
1.167e-09
2.824e-10
1.13e-09
2.642e-10
1.095e-09
2.463e-10
1.063e-09
2.289e-10
1.032e-09
2.122e-10
1.005e-09
1.962e-10
9.787e-10
1.809e-10
9.549e-10
1.664e-10
9.33e-10
1.528e-10
9.128e-10
1.4e-10
8.943e-10
1.28e-10
8.773e-10
1.168e-10
8.618e-10
1.065e-10
8.476e-10
9.687e-11
8.347e-10
8.8e-11
8.229e-10
7.981e-11
8.122e-10
7.229e-11
8.025e-10
6.538e-11
7.937e-10
5.906e-11
7.857e-10
5.328e-11
7.785e-10
4.8e-11
7.72e-10
4.319e-11
7.661e-10
3.883e-11
7.608e-10
3.486e-11
7.561e-10
3.128e-11
7.518e-10
2.804e-11
7.479e-10
2.513e-11
7.445e-10
2.252e-11
7.414e-10
2.019e-11
7.386e-10
1.813e-11
7.361e-10
1.632e-11
7.339e-10
1.474e-11
7.319e-10
1.338e-11
7.301e-10
1.224e-11
7.285e-10
1.129e-11
7.271e-10
1.054e-11
7.258e-10
9.978e-12
7.246e-10
9.58e-12
7.234e-10
9.337e-12
9.235e-12
9.441e-10
5.52e-11
9.593e-10
1.465e-10
9.782e-10
2.161e-10
9.969e-10
2.643e-10
1.013e-09
2.936e-10
1.024e-09
3.075e-10
1.031e-09
3.093e-10
1.034e-09
3.023e-10
1.033e-09
2.892e-10
1.029e-09
2.719e-10
1.022e-09
2.52e-10
1.015e-09
2.308e-10
1.006e-09
2.091e-10
9.973e-10
1.874e-10
9.886e-10
1.66e-10
9.804e-10
1.452e-10
9.729e-10
1.251e-10
9.663e-10
1.057e-10
9.609e-10
8.696e-11
9.568e-10
6.886e-11
9.54e-10
5.132e-11
9.526e-10
3.423e-11
9.528e-10
1.748e-11
9.546e-10
9.612e-13
9.58e-10
-1.543e-11
9.631e-10
-3.182e-11
9.7e-10
-4.831e-11
9.787e-10
-6.5e-11
9.893e-10
-8.199e-11
1.002e-09
-9.937e-11
1.016e-09
-1.172e-10
1.033e-09
-1.356e-10
1.052e-09
-1.546e-10
1.073e-09
-1.742e-10
1.096e-09
-1.945e-10
1.122e-09
-2.154e-10
1.151e-09
-2.37e-10
1.182e-09
-2.591e-10
1.215e-09
-2.817e-10
1.251e-09
-3.046e-10
1.29e-09
-3.276e-10
1.332e-09
-3.506e-10
1.376e-09
-3.732e-10
1.423e-09
-3.951e-10
1.472e-09
-4.159e-10
1.523e-09
-4.353e-10
1.576e-09
-4.526e-10
1.631e-09
-4.674e-10
1.688e-09
-4.791e-10
1.745e-09
-4.871e-10
1.803e-09
-4.908e-10
1.86e-09
-4.899e-10
1.917e-09
-4.836e-10
1.972e-09
-4.717e-10
2.025e-09
-4.538e-10
2.075e-09
-4.298e-10
2.122e-09
-3.995e-10
2.165e-09
-3.628e-10
2.202e-09
-3.2e-10
2.234e-09
-2.713e-10
2.26e-09
-2.172e-10
2.279e-09
-1.585e-10
2.291e-09
-9.602e-11
2.294e-09
-3.144e-11
2.29e-09
3.36e-11
2.279e-09
9.748e-11
2.26e-09
1.586e-10
2.234e-09
2.158e-10
2.203e-09
2.681e-10
2.166e-09
3.15e-10
2.125e-09
3.563e-10
2.08e-09
3.918e-10
2.031e-09
4.213e-10
1.979e-09
4.45e-10
1.926e-09
4.629e-10
1.87e-09
4.753e-10
1.814e-09
4.825e-10
1.757e-09
4.848e-10
1.7e-09
4.826e-10
1.644e-09
4.764e-10
1.589e-09
4.666e-10
1.536e-09
4.538e-10
1.484e-09
4.386e-10
1.434e-09
4.214e-10
1.386e-09
4.027e-10
1.34e-09
3.829e-10
1.297e-09
3.625e-10
1.256e-09
3.417e-10
1.218e-09
3.209e-10
1.181e-09
3.003e-10
1.148e-09
2.801e-10
1.116e-09
2.604e-10
1.087e-09
2.415e-10
1.06e-09
2.233e-10
1.035e-09
2.06e-10
1.011e-09
1.896e-10
9.9e-10
1.742e-10
9.703e-10
1.597e-10
9.522e-10
1.461e-10
9.356e-10
1.334e-10
9.204e-10
1.217e-10
9.065e-10
1.108e-10
8.939e-10
1.007e-10
8.823e-10
9.136e-11
8.718e-10
8.28e-11
8.623e-10
7.493e-11
8.536e-10
6.773e-11
8.457e-10
6.113e-11
8.386e-10
5.511e-11
8.322e-10
4.962e-11
8.264e-10
4.463e-11
8.211e-10
4.01e-11
8.164e-10
3.6e-11
8.122e-10
3.229e-11
8.084e-10
2.894e-11
8.049e-10
2.594e-11
8.019e-10
2.326e-11
7.991e-10
2.088e-11
7.967e-10
1.877e-11
7.945e-10
1.693e-11
7.925e-10
1.534e-11
7.908e-10
1.399e-11
7.892e-10
1.286e-11
7.878e-10
1.195e-11
7.865e-10
1.125e-11
7.854e-10
1.074e-11
7.843e-10
1.042e-11
1.027e-11
9.431e-10
4.956e-11
9.566e-10
1.33e-10
9.742e-10
1.985e-10
9.926e-10
2.459e-10
1.009e-09
2.768e-10
1.023e-09
2.936e-10
1.034e-09
2.99e-10
1.04e-09
2.957e-10
1.044e-09
2.859e-10
1.044e-09
2.714e-10
1.042e-09
2.539e-10
1.039e-09
2.344e-10
1.034e-09
2.138e-10
1.029e-09
1.927e-10
1.023e-09
1.716e-10
1.017e-09
1.507e-10
1.012e-09
1.302e-10
1.008e-09
1.102e-10
1.004e-09
9.064e-11
1.001e-09
7.158e-11
9.998e-10
5.293e-11
9.994e-10
3.463e-11
1e-09
1.658e-11
1.003e-09
-1.324e-12
1.006e-09
-1.918e-11
1.012e-09
-3.709e-11
1.018e-09
-5.517e-11
1.027e-09
-7.353e-11
1.037e-09
-9.225e-11
1.049e-09
-1.114e-10
1.063e-09
-1.312e-10
1.079e-09
-1.515e-10
1.097e-09
-1.726e-10
1.117e-09
-1.943e-10
1.139e-09
-2.168e-10
1.164e-09
-2.4e-10
1.191e-09
-2.639e-10
1.22e-09
-2.884e-10
1.252e-09
-3.134e-10
1.286e-09
-3.388e-10
1.323e-09
-3.644e-10
1.362e-09
-3.899e-10
1.404e-09
-4.149e-10
1.448e-09
-4.393e-10
1.494e-09
-4.624e-10
1.543e-09
-4.839e-10
1.594e-09
-5.031e-10
1.646e-09
-5.195e-10
1.699e-09
-5.324e-10
1.753e-09
-5.412e-10
1.807e-09
-5.452e-10
1.862e-09
-5.439e-10
1.915e-09
-5.368e-10
1.966e-09
-5.234e-10
2.016e-09
-5.034e-10
2.063e-09