/*--------------------------------*- C++ -*----------------------------------*\
  =========                 |
  \\      /  F ield         | OpenFOAM: The Open Source CFD Toolbox
   \\    /   O peration     | Website:  https://openfoam.org
    \\  /    A nd           | Version:  7
     \\/     M anipulation  |
\*---------------------------------------------------------------------------*/
FoamFile
{
    version     2.0;
    format      ascii;
    class       volVectorField;
    location    "239.999473411311953";
    object      U;
}
// * * * * * * * * * * * * * * * * * * * * * * * * * * * * * * * * * * * * * //

dimensions      [0 1 -1 0 0 0 0];

internalField   nonuniform List<vector> 
4096
(
(0.001039 0.0001611 0)
(0.0007463 0.0001314 0)
(0.0005302 8.474e-05 0)
(0.0003918 5.358e-05 0)
(0.0003036 3.465e-05 0)
(0.0002457 2.326e-05 0)
(0.0002062 1.63e-05 0)
(0.000178 1.19e-05 0)
(0.000157 9.011e-06 0)
(0.000141 7.016e-06 0)
(0.0001284 5.581e-06 0)
(0.0001183 4.511e-06 0)
(0.0001101 3.688e-06 0)
(0.0001034 3.037e-06 0)
(9.785e-05 2.511e-06 0)
(9.326e-05 2.077e-06 0)
(8.948e-05 1.712e-06 0)
(8.636e-05 1.4e-06 0)
(8.384e-05 1.129e-06 0)
(8.182e-05 8.89e-07 0)
(8.026e-05 6.739e-07 0)
(7.91e-05 4.776e-07 0)
(7.833e-05 2.957e-07 0)
(7.791e-05 1.242e-07 0)
(7.783e-05 -3.988e-08 0)
(7.807e-05 -1.993e-07 0)
(7.862e-05 -3.564e-07 0)
(7.949e-05 -5.132e-07 0)
(8.068e-05 -6.715e-07 0)
(8.218e-05 -8.328e-07 0)
(8.401e-05 -9.987e-07 0)
(8.618e-05 -1.17e-06 0)
(8.87e-05 -1.348e-06 0)
(9.158e-05 -1.534e-06 0)
(9.484e-05 -1.727e-06 0)
(9.85e-05 -1.929e-06 0)
(0.0001026 -2.14e-06 0)
(0.0001071 -2.358e-06 0)
(0.000112 -2.584e-06 0)
(0.0001174 -2.816e-06 0)
(0.0001233 -3.053e-06 0)
(0.0001296 -3.293e-06 0)
(0.0001364 -3.532e-06 0)
(0.0001437 -3.767e-06 0)
(0.0001515 -3.995e-06 0)
(0.0001597 -4.211e-06 0)
(0.0001683 -4.409e-06 0)
(0.0001773 -4.584e-06 0)
(0.0001866 -4.73e-06 0)
(0.0001962 -4.84e-06 0)
(0.000206 -4.907e-06 0)
(0.0002158 -4.924e-06 0)
(0.0002256 -4.887e-06 0)
(0.0002353 -4.789e-06 0)
(0.0002447 -4.625e-06 0)
(0.0002537 -4.393e-06 0)
(0.0002622 -4.09e-06 0)
(0.00027 -3.717e-06 0)
(0.000277 -3.274e-06 0)
(0.000283 -2.768e-06 0)
(0.000288 -2.204e-06 0)
(0.0002918 -1.593e-06 0)
(0.0002943 -9.461e-07 0)
(0.0002956 -2.792e-07 0)
(0.0002955 3.921e-07 0)
(0.000294 1.052e-06 0)
(0.0002913 1.684e-06 0)
(0.0002873 2.277e-06 0)
(0.0002822 2.818e-06 0)
(0.0002761 3.299e-06 0)
(0.0002691 3.716e-06 0)
(0.0002613 4.066e-06 0)
(0.0002529 4.348e-06 0)
(0.000244 4.563e-06 0)
(0.0002347 4.715e-06 0)
(0.0002252 4.805e-06 0)
(0.0002155 4.84e-06 0)
(0.0002059 4.824e-06 0)
(0.0001963 4.763e-06 0)
(0.0001869 4.663e-06 0)
(0.0001777 4.53e-06 0)
(0.0001688 4.369e-06 0)
(0.0001602 4.186e-06 0)
(0.000152 3.988e-06 0)
(0.0001443 3.777e-06 0)
(0.0001369 3.56e-06 0)
(0.00013 3.34e-06 0)
(0.0001236 3.12e-06 0)
(0.0001176 2.903e-06 0)
(0.000112 2.691e-06 0)
(0.0001068 2.486e-06 0)
(0.000102 2.29e-06 0)
(9.761e-05 2.103e-06 0)
(9.358e-05 1.926e-06 0)
(8.989e-05 1.76e-06 0)
(8.653e-05 1.604e-06 0)
(8.346e-05 1.459e-06 0)
(8.068e-05 1.324e-06 0)
(7.816e-05 1.2e-06 0)
(7.587e-05 1.085e-06 0)
(7.381e-05 9.792e-07 0)
(7.195e-05 8.824e-07 0)
(7.027e-05 7.938e-07 0)
(6.876e-05 7.13e-07 0)
(6.741e-05 6.394e-07 0)
(6.62e-05 5.726e-07 0)
(6.511e-05 5.12e-07 0)
(6.415e-05 4.571e-07 0)
(6.328e-05 4.076e-07 0)
(6.251e-05 3.629e-07 0)
(6.182e-05 3.227e-07 0)
(6.122e-05 2.866e-07 0)
(6.067e-05 2.544e-07 0)
(6.019e-05 2.257e-07 0)
(5.977e-05 2.003e-07 0)
(5.939e-05 1.78e-07 0)
(5.905e-05 1.587e-07 0)
(5.875e-05 1.423e-07 0)
(5.848e-05 1.288e-07 0)
(5.823e-05 1.183e-07 0)
(5.801e-05 1.111e-07 0)
(5.779e-05 1.077e-07 0)
(5.757e-05 1.09e-07 0)
(5.734e-05 1.168e-07 0)
(5.709e-05 1.345e-07 0)
(5.679e-05 1.678e-07 0)
(5.64e-05 2.229e-07 0)
(5.589e-05 2.896e-07 0)
(0.001209 0.0003128 0)
(0.001154 0.0003282 0)
(0.00101 0.000248 0)
(0.0008613 0.000177 0)
(0.0007346 0.0001261 0)
(0.0006329 9.133e-05 0)
(0.0005529 6.775e-05 0)
(0.00049 5.156e-05 0)
(0.0004401 4.017e-05 0)
(0.0004001 3.192e-05 0)
(0.0003676 2.577e-05 0)
(0.000341 2.105e-05 0)
(0.000319 1.735e-05 0)
(0.0003007 1.437e-05 0)
(0.0002855 1.194e-05 0)
(0.0002728 9.913e-06 0)
(0.0002623 8.196e-06 0)
(0.0002536 6.72e-06 0)
(0.0002465 5.429e-06 0)
(0.0002408 4.285e-06 0)
(0.0002364 3.253e-06 0)
(0.0002331 2.31e-06 0)
(0.0002309 1.434e-06 0)
(0.0002297 6.07e-07 0)
(0.0002295 -1.849e-07 0)
(0.0002301 -9.543e-07 0)
(0.0002317 -1.712e-06 0)
(0.0002341 -2.468e-06 0)
(0.0002375 -3.23e-06 0)
(0.0002417 -4.005e-06 0)
(0.0002468 -4.801e-06 0)
(0.0002529 -5.622e-06 0)
(0.00026 -6.472e-06 0)
(0.000268 -7.357e-06 0)
(0.0002772 -8.277e-06 0)
(0.0002874 -9.234e-06 0)
(0.0002987 -1.023e-05 0)
(0.0003112 -1.126e-05 0)
(0.0003249 -1.232e-05 0)
(0.0003398 -1.341e-05 0)
(0.000356 -1.451e-05 0)
(0.0003734 -1.563e-05 0)
(0.0003921 -1.674e-05 0)
(0.0004121 -1.783e-05 0)
(0.0004333 -1.887e-05 0)
(0.0004556 -1.986e-05 0)
(0.000479 -2.076e-05 0)
(0.0005033 -2.155e-05 0)
(0.0005284 -2.22e-05 0)
(0.0005542 -2.268e-05 0)
(0.0005803 -2.296e-05 0)
(0.0006066 -2.301e-05 0)
(0.0006328 -2.28e-05 0)
(0.0006586 -2.231e-05 0)
(0.0006836 -2.153e-05 0)
(0.0007075 -2.042e-05 0)
(0.00073 -1.899e-05 0)
(0.0007506 -1.724e-05 0)
(0.000769 -1.518e-05 0)
(0.0007849 -1.283e-05 0)
(0.000798 -1.021e-05 0)
(0.000808 -7.387e-06 0)
(0.0008148 -4.403e-06 0)
(0.000818 -1.326e-06 0)
(0.0008178 1.772e-06 0)
(0.0008141 4.819e-06 0)
(0.000807 7.745e-06 0)
(0.0007967 1.049e-05 0)
(0.0007834 1.301e-05 0)
(0.0007674 1.526e-05 0)
(0.0007489 1.721e-05 0)
(0.0007284 1.886e-05 0)
(0.0007062 2.02e-05 0)
(0.0006826 2.124e-05 0)
(0.0006579 2.198e-05 0)
(0.0006325 2.244e-05 0)
(0.0006067 2.264e-05 0)
(0.0005808 2.26e-05 0)
(0.000555 2.236e-05 0)
(0.0005296 2.192e-05 0)
(0.0005047 2.133e-05 0)
(0.0004806 2.061e-05 0)
(0.0004573 1.979e-05 0)
(0.000435 1.888e-05 0)
(0.0004137 1.791e-05 0)
(0.0003936 1.691e-05 0)
(0.0003746 1.59e-05 0)
(0.0003567 1.487e-05 0)
(0.00034 1.386e-05 0)
(0.0003245 1.287e-05 0)
(0.00031 1.191e-05 0)
(0.0002967 1.099e-05 0)
(0.0002844 1.011e-05 0)
(0.0002731 9.275e-06 0)
(0.0002627 8.487e-06 0)
(0.0002532 7.748e-06 0)
(0.0002445 7.058e-06 0)
(0.0002366 6.416e-06 0)
(0.0002294 5.821e-06 0)
(0.0002229 5.272e-06 0)
(0.000217 4.765e-06 0)
(0.0002116 4.301e-06 0)
(0.0002068 3.875e-06 0)
(0.0002024 3.486e-06 0)
(0.0001985 3.131e-06 0)
(0.000195 2.809e-06 0)
(0.0001919 2.516e-06 0)
(0.000189 2.25e-06 0)
(0.0001865 2.009e-06 0)
(0.0001842 1.792e-06 0)
(0.0001822 1.597e-06 0)
(0.0001804 1.421e-06 0)
(0.0001788 1.264e-06 0)
(0.0001774 1.124e-06 0)
(0.0001761 9.998e-07 0)
(0.000175 8.906e-07 0)
(0.000174 7.957e-07 0)
(0.0001731 7.149e-07 0)
(0.0001722 6.479e-07 0)
(0.0001715 5.952e-07 0)
(0.0001708 5.576e-07 0)
(0.0001701 5.368e-07 0)
(0.0001695 5.357e-07 0)
(0.0001689 5.59e-07 0)
(0.0001682 6.145e-07 0)
(0.0001675 7.129e-07 0)
(0.0001667 8.597e-07 0)
(0.0001658 1.013e-06 0)
(0.001226 0.0002775 0)
(0.001243 0.0004027 0)
(0.001194 0.0003664 0)
(0.001103 0.0002981 0)
(0.001 0.0002343 0)
(0.0009022 0.0001827 0)
(0.0008152 0.0001433 0)
(0.0007404 0.0001136 0)
(0.0006772 9.124e-05 0)
(0.0006239 7.412e-05 0)
(0.0005792 6.082e-05 0)
(0.0005415 5.03e-05 0)
(0.0005098 4.184e-05 0)
(0.000483 3.493e-05 0)
(0.0004604 2.918e-05 0)
(0.0004414 2.434e-05 0)
(0.0004255 2.02e-05 0)
(0.0004123 1.661e-05 0)
(0.0004015 1.345e-05 0)
(0.0003928 1.064e-05 0)
(0.000386 8.087e-06 0)
(0.000381 5.746e-06 0)
(0.0003777 3.565e-06 0)
(0.0003758 1.503e-06 0)
(0.0003755 -4.75e-07 0)
(0.0003765 -2.399e-06 0)
(0.000379 -4.294e-06 0)
(0.0003829 -6.183e-06 0)
(0.0003881 -8.087e-06 0)
(0.0003948 -1.002e-05 0)
(0.0004028 -1.2e-05 0)
(0.0004124 -1.405e-05 0)
(0.0004234 -1.616e-05 0)
(0.0004361 -1.835e-05 0)
(0.0004503 -2.063e-05 0)
(0.0004662 -2.299e-05 0)
(0.0004839 -2.544e-05 0)
(0.0005033 -2.797e-05 0)
(0.0005246 -3.057e-05 0)
(0.0005477 -3.323e-05 0)
(0.0005728 -3.593e-05 0)
(0.0005998 -3.864e-05 0)
(0.0006286 -4.133e-05 0)
(0.0006594 -4.396e-05 0)
(0.000692 -4.649e-05 0)
(0.0007263 -4.885e-05 0)
(0.0007621 -5.101e-05 0)
(0.0007994 -5.288e-05 0)
(0.0008378 -5.44e-05 0)
(0.000877 -5.551e-05 0)
(0.0009169 -5.612e-05 0)
(0.0009569 -5.618e-05 0)
(0.0009967 -5.561e-05 0)
(0.001036 -5.437e-05 0)
(0.001074 -5.239e-05 0)
(0.00111 -4.966e-05 0)
(0.001144 -4.616e-05 0)
(0.001175 -4.188e-05 0)
(0.001203 -3.686e-05 0)
(0.001227 -3.113e-05 0)
(0.001247 -2.48e-05 0)
(0.001262 -1.795e-05 0)
(0.001272 -1.073e-05 0)
(0.001277 -3.291e-06 0)
(0.001277 4.201e-06 0)
(0.001271 1.157e-05 0)
(0.001261 1.866e-05 0)
(0.001245 2.533e-05 0)
(0.001225 3.145e-05 0)
(0.001201 3.694e-05 0)
(0.001174 4.173e-05 0)
(0.001143 4.579e-05 0)
(0.001109 4.911e-05 0)
(0.001073 5.169e-05 0)
(0.001036 5.357e-05 0)
(0.0009974 5.476e-05 0)
(0.0009581 5.533e-05 0)
(0.0009187 5.532e-05 0)
(0.0008793 5.479e-05 0)
(0.0008404 5.38e-05 0)
(0.0008023 5.243e-05 0)
(0.0007653 5.073e-05 0)
(0.0007295 4.876e-05 0)
(0.0006951 4.659e-05 0)
(0.0006623 4.428e-05 0)
(0.0006311 4.187e-05 0)
(0.0006017 3.94e-05 0)
(0.0005739 3.692e-05 0)
(0.000548 3.446e-05 0)
(0.0005238 3.204e-05 0)
(0.0005012 2.97e-05 0)
(0.0004804 2.744e-05 0)
(0.0004611 2.527e-05 0)
(0.0004433 2.322e-05 0)
(0.000427 2.127e-05 0)
(0.000412 1.945e-05 0)
(0.0003983 1.774e-05 0)
(0.0003858 1.615e-05 0)
(0.0003744 1.467e-05 0)
(0.000364 1.33e-05 0)
(0.0003546 1.204e-05 0)
(0.0003461 1.088e-05 0)
(0.0003384 9.817e-06 0)
(0.0003315 8.844e-06 0)
(0.0003252 7.955e-06 0)
(0.0003196 7.145e-06 0)
(0.0003145 6.409e-06 0)
(0.0003099 5.741e-06 0)
(0.0003058 5.135e-06 0)
(0.0003022 4.588e-06 0)
(0.0002989 4.094e-06 0)
(0.000296 3.65e-06 0)
(0.0002934 3.252e-06 0)
(0.000291 2.897e-06 0)
(0.0002889 2.581e-06 0)
(0.0002871 2.303e-06 0)
(0.0002854 2.061e-06 0)
(0.0002839 1.854e-06 0)
(0.0002826 1.68e-06 0)
(0.0002813 1.542e-06 0)
(0.0002802 1.439e-06 0)
(0.0002791 1.375e-06 0)
(0.0002781 1.354e-06 0)
(0.0002771 1.38e-06 0)
(0.0002761 1.461e-06 0)
(0.0002751 1.602e-06 0)
(0.0002741 1.792e-06 0)
(0.0002731 1.959e-06 0)
(0.001224 0.0002275 0)
(0.00126 0.0004003 0)
(0.001258 0.0004192 0)
(0.001216 0.0003786 0)
(0.00115 0.0003225 0)
(0.001074 0.0002679 0)
(0.0009987 0.0002207 0)
(0.0009279 0.0001818 0)
(0.000864 0.0001503 0)
(0.0008074 0.0001248 0)
(0.000758 0.0001042 0)
(0.0007152 8.738e-05 0)
(0.0006782 7.347e-05 0)
(0.0006464 6.185e-05 0)
(0.0006192 5.204e-05 0)
(0.0005961 4.364e-05 0)
(0.0005765 3.638e-05 0)
(0.0005601 3.002e-05 0)
(0.0005466 2.437e-05 0)
(0.0005358 1.93e-05 0)
(0.0005273 1.468e-05 0)
(0.000521 1.043e-05 0)
(0.0005168 6.441e-06 0)
(0.0005146 2.662e-06 0)
(0.0005143 -9.707e-07 0)
(0.0005158 -4.51e-06 0)
(0.0005192 -8e-06 0)
(0.0005243 -1.148e-05 0)
(0.0005313 -1.499e-05 0)
(0.0005401 -1.855e-05 0)
(0.0005507 -2.22e-05 0)
(0.0005633 -2.595e-05 0)
(0.0005778 -2.983e-05 0)
(0.0005943 -3.384e-05 0)
(0.000613 -3.801e-05 0)
(0.0006338 -4.233e-05 0)
(0.0006568 -4.679e-05 0)
(0.0006821 -5.139e-05 0)
(0.0007098 -5.612e-05 0)
(0.0007399 -6.094e-05 0)
(0.0007725 -6.582e-05 0)
(0.0008074 -7.071e-05 0)
(0.0008448 -7.555e-05 0)
(0.0008846 -8.027e-05 0)
(0.0009266 -8.479e-05 0)
(0.0009708 -8.902e-05 0)
(0.001017 -9.284e-05 0)
(0.001065 -9.615e-05 0)
(0.001114 -9.882e-05 0)
(0.001164 -0.0001007 0)
(0.001216 -0.0001018 0)
(0.001267 -0.0001018 0)
(0.001318 -0.0001007 0)
(0.001368 -9.834e-05 0)
(0.001416 -9.471e-05 0)
(0.001462 -8.972e-05 0)
(0.001505 -8.335e-05 0)
(0.001545 -7.56e-05 0)
(0.001581 -6.652e-05 0)
(0.001611 -5.619e-05 0)
(0.001636 -4.478e-05 0)
(0.001656 -3.245e-05 0)
(0.001669 -1.945e-05 0)
(0.001675 -6.063e-06 0)
(0.001675 7.422e-06 0)
(0.001668 2.07e-05 0)
(0.001655 3.347e-05 0)
(0.001635 4.55e-05 0)
(0.00161 5.656e-05 0)
(0.001579 6.649e-05 0)
(0.001544 7.519e-05 0)
(0.001505 8.258e-05 0)
(0.001462 8.866e-05 0)
(0.001417 9.342e-05 0)
(0.001369 9.69e-05 0)
(0.00132 9.917e-05 0)
(0.00127 0.0001003 0)
(0.001219 0.0001004 0)
(0.001169 9.954e-05 0)
(0.001119 9.786e-05 0)
(0.00107 9.547e-05 0)
(0.001022 9.248e-05 0)
(0.0009757 8.9e-05 0)
(0.0009313 8.515e-05 0)
(0.0008888 8.102e-05 0)
(0.0008484 7.669e-05 0)
(0.0008102 7.226e-05 0)
(0.0007741 6.78e-05 0)
(0.0007403 6.335e-05 0)
(0.0007087 5.898e-05 0)
(0.0006793 5.473e-05 0)
(0.0006519 5.062e-05 0)
(0.0006266 4.668e-05 0)
(0.0006033 4.294e-05 0)
(0.0005818 3.939e-05 0)
(0.000562 3.605e-05 0)
(0.0005439 3.292e-05 0)
(0.0005274 3e-05 0)
(0.0005123 2.729e-05 0)
(0.0004986 2.478e-05 0)
(0.0004861 2.245e-05 0)
(0.0004747 2.032e-05 0)
(0.0004645 1.835e-05 0)
(0.0004552 1.655e-05 0)
(0.0004468 1.491e-05 0)
(0.0004392 1.341e-05 0)
(0.0004324 1.204e-05 0)
(0.0004263 1.08e-05 0)
(0.0004208 9.672e-06 0)
(0.0004158 8.653e-06 0)
(0.0004114 7.732e-06 0)
(0.0004074 6.903e-06 0)
(0.0004039 6.159e-06 0)
(0.0004007 5.494e-06 0)
(0.0003979 4.902e-06 0)
(0.0003953 4.38e-06 0)
(0.0003931 3.923e-06 0)
(0.000391 3.53e-06 0)
(0.0003892 3.198e-06 0)
(0.0003875 2.929e-06 0)
(0.000386 2.722e-06 0)
(0.0003845 2.58e-06 0)
(0.0003832 2.506e-06 0)
(0.0003819 2.504e-06 0)
(0.0003807 2.576e-06 0)
(0.0003795 2.718e-06 0)
(0.0003783 2.903e-06 0)
(0.0003771 3.049e-06 0)
(0.001219 0.0001847 0)
(0.001255 0.0003711 0)
(0.001275 0.0004298 0)
(0.001265 0.0004205 0)
(0.00123 0.000382 0)
(0.001179 0.0003344 0)
(0.001122 0.0002874 0)
(0.001063 0.0002449 0)
(0.001006 0.000208 0)
(0.0009528 0.0001766 0)
(0.0009046 0.0001501 0)
(0.0008614 0.0001276 0)
(0.0008232 0.0001085 0)
(0.0007896 9.217e-05 0)
(0.0007604 7.811e-05 0)
(0.0007353 6.591e-05 0)
(0.0007137 5.52e-05 0)
(0.0006956 4.571e-05 0)
(0.0006806 3.721e-05 0)
(0.0006684 2.952e-05 0)
(0.0006589 2.246e-05 0)
(0.0006519 1.591e-05 0)
(0.0006473 9.748e-06 0)
(0.000645 3.884e-06 0)
(0.0006449 -1.772e-06 0)
(0.0006469 -7.294e-06 0)
(0.0006511 -1.275e-05 0)
(0.0006574 -1.819e-05 0)
(0.0006659 -2.368e-05 0)
(0.0006765 -2.926e-05 0)
(0.0006893 -3.496e-05 0)
(0.0007044 -4.083e-05 0)
(0.0007218 -4.689e-05 0)
(0.0007417 -5.315e-05 0)
(0.0007639 -5.964e-05 0)
(0.0007888 -6.635e-05 0)
(0.0008163 -7.328e-05 0)
(0.0008465 -8.042e-05 0)
(0.0008794 -8.774e-05 0)
(0.0009152 -9.519e-05 0)
(0.0009538 -0.0001027 0)
(0.0009953 -0.0001102 0)
(0.00104 -0.0001177 0)
(0.001087 -0.0001249 0)
(0.001136 -0.0001319 0)
(0.001188 -0.0001383 0)
(0.001243 -0.0001441 0)
(0.001299 -0.0001491 0)
(0.001357 -0.0001532 0)
(0.001416 -0.000156 0)
(0.001476 -0.0001575 0)
(0.001537 -0.0001574 0)
(0.001596 -0.0001556 0)
(0.001655 -0.0001519 0)
(0.001712 -0.0001462 0)
(0.001766 -0.0001385 0)
(0.001816 -0.0001286 0)
(0.001863 -0.0001166 0)
(0.001905 -0.0001026 0)
(0.001941 -8.671e-05 0)
(0.00197 -6.912e-05 0)
(0.001993 -5.015e-05 0)
(0.002008 -3.014e-05 0)
(0.002016 -9.525e-06 0)
(0.002016 1.124e-05 0)
(0.002008 3.168e-05 0)
(0.001992 5.137e-05 0)
(0.00197 6.991e-05 0)
(0.00194 8.697e-05 0)
(0.001904 0.0001023 0)
(0.001863 0.0001158 0)
(0.001817 0.0001273 0)
(0.001767 0.0001367 0)
(0.001714 0.0001442 0)
(0.001658 0.0001497 0)
(0.0016 0.0001533 0)
(0.001541 0.0001552 0)
(0.001482 0.0001555 0)
(0.001423 0.0001543 0)
(0.001364 0.0001518 0)
(0.001306 0.0001483 0)
(0.00125 0.0001438 0)
(0.001195 0.0001385 0)
(0.001143 0.0001326 0)
(0.001092 0.0001263 0)
(0.001044 0.0001197 0)
(0.000999 0.0001129 0)
(0.0009561 0.000106 0)
(0.0009159 9.92e-05 0)
(0.0008782 9.245e-05 0)
(0.000843 8.587e-05 0)
(0.0008103 7.951e-05 0)
(0.00078 7.341e-05 0)
(0.000752 6.759e-05 0)
(0.0007261 6.207e-05 0)
(0.0007024 5.687e-05 0)
(0.0006806 5.199e-05 0)
(0.0006606 4.743e-05 0)
(0.0006424 4.319e-05 0)
(0.0006257 3.925e-05 0)
(0.0006106 3.561e-05 0)
(0.0005968 3.226e-05 0)
(0.0005843 2.917e-05 0)
(0.000573 2.634e-05 0)
(0.0005628 2.375e-05 0)
(0.0005535 2.138e-05 0)
(0.0005452 1.922e-05 0)
(0.0005377 1.726e-05 0)
(0.0005309 1.548e-05 0)
(0.0005248 1.386e-05 0)
(0.0005194 1.24e-05 0)
(0.0005145 1.109e-05 0)
(0.0005101 9.905e-06 0)
(0.0005062 8.845e-06 0)
(0.0005027 7.901e-06 0)
(0.0004995 7.065e-06 0)
(0.0004967 6.332e-06 0)
(0.0004942 5.697e-06 0)
(0.0004919 5.157e-06 0)
(0.0004898 4.711e-06 0)
(0.0004879 4.357e-06 0)
(0.0004862 4.098e-06 0)
(0.0004846 3.934e-06 0)
(0.0004831 3.866e-06 0)
(0.0004817 3.89e-06 0)
(0.0004803 3.993e-06 0)
(0.000479 4.14e-06 0)
(0.0004777 4.256e-06 0)
(0.001214 0.000152 0)
(0.001246 0.0003352 0)
(0.001274 0.0004176 0)
(0.001282 0.0004345 0)
(0.00127 0.0004156 0)
(0.001241 0.00038 0)
(0.001202 0.0003387 0)
(0.001157 0.0002974 0)
(0.001111 0.0002589 0)
(0.001065 0.0002243 0)
(0.001022 0.0001938 0)
(0.0009819 0.000167 0)
(0.0009455 0.0001437 0)
(0.0009128 0.0001232 0)
(0.0008839 0.0001052 0)
(0.0008585 8.932e-05 0)
(0.0008367 7.518e-05 0)
(0.000818 6.249e-05 0)
(0.0008025 5.101e-05 0)
(0.0007899 4.051e-05 0)
(0.0007801 3.08e-05 0)
(0.0007729 2.173e-05 0)
(0.0007683 1.316e-05 0)
(0.0007661 4.954e-06 0)
(0.0007663 -2.986e-06 0)
(0.000769 -1.076e-05 0)
(0.000774 -1.846e-05 0)
(0.0007813 -2.615e-05 0)
(0.000791 -3.391e-05 0)
(0.0008032 -4.18e-05 0)
(0.0008178 -4.987e-05 0)
(0.000835 -5.816e-05 0)
(0.0008547 -6.672e-05 0)
(0.0008771 -7.556e-05 0)
(0.0009023 -8.471e-05 0)
(0.0009304 -9.417e-05 0)
(0.0009614 -0.0001039 0)
(0.0009954 -0.000114 0)
(0.001032 -0.0001242 0)
(0.001073 -0.0001347 0)
(0.001116 -0.0001452 0)
(0.001162 -0.0001557 0)
(0.001212 -0.0001661 0)
(0.001265 -0.0001762 0)
(0.00132 -0.0001858 0)
(0.001379 -0.0001948 0)
(0.001439 -0.0002028 0)
(0.001502 -0.0002098 0)
(0.001567 -0.0002153 0)
(0.001633 -0.0002192 0)
(0.0017 -0.0002211 0)
(0.001767 -0.0002209 0)
(0.001833 -0.0002183 0)
(0.001899 -0.000213 0)
(0.001962 -0.000205 0)
(0.002022 -0.0001941 0)
(0.002079 -0.0001802 0)
(0.00213 -0.0001635 0)
(0.002177 -0.0001438 0)
(0.002217 -0.0001216 0)
(0.00225 -9.697e-05 0)
(0.002276 -7.042e-05 0)
(0.002293 -4.242e-05 0)
(0.002301 -1.356e-05 0)
(0.002301 1.55e-05 0)
(0.002292 4.413e-05 0)
(0.002275 7.169e-05 0)
(0.00225 9.765e-05 0)
(0.002217 0.0001216 0)
(0.002178 0.0001431 0)
(0.002132 0.000162 0)
(0.002081 0.0001781 0)
(0.002025 0.0001915 0)
(0.001966 0.000202 0)
(0.001904 0.0002098 0)
(0.001839 0.0002151 0)
(0.001774 0.0002179 0)
(0.001708 0.0002184 0)
(0.001642 0.0002169 0)
(0.001576 0.0002136 0)
(0.001511 0.0002088 0)
(0.001448 0.0002026 0)
(0.001387 0.0001953 0)
(0.001328 0.0001872 0)
(0.001272 0.0001785 0)
(0.001218 0.0001693 0)
(0.001167 0.0001598 0)
(0.001119 0.0001502 0)
(0.001074 0.0001406 0)
(0.001031 0.0001312 0)
(0.0009915 0.000122 0)
(0.0009546 0.0001131 0)
(0.0009203 0.0001045 0)
(0.0008885 9.628e-05 0)
(0.0008592 8.851e-05 0)
(0.0008322 8.118e-05 0)
(0.0008074 7.428e-05 0)
(0.0007847 6.784e-05 0)
(0.0007639 6.183e-05 0)
(0.0007449 5.625e-05 0)
(0.0007276 5.108e-05 0)
(0.0007118 4.631e-05 0)
(0.0006975 4.192e-05 0)
(0.0006845 3.789e-05 0)
(0.0006728 3.42e-05 0)
(0.0006621 3.082e-05 0)
(0.0006525 2.774e-05 0)
(0.0006438 2.493e-05 0)
(0.000636 2.238e-05 0)
(0.000629 2.007e-05 0)
(0.0006226 1.798e-05 0)
(0.000617 1.609e-05 0)
(0.0006119 1.438e-05 0)
(0.0006073 1.286e-05 0)
(0.0006032 1.149e-05 0)
(0.0005995 1.029e-05 0)
(0.0005963 9.221e-06 0)
(0.0005933 8.294e-06 0)
(0.0005906 7.5e-06 0)
(0.0005882 6.833e-06 0)
(0.0005861 6.294e-06 0)
(0.0005841 5.878e-06 0)
(0.0005823 5.586e-06 0)
(0.0005806 5.413e-06 0)
(0.000579 5.352e-06 0)
(0.0005775 5.385e-06 0)
(0.0005761 5.475e-06 0)
(0.0005747 5.554e-06 0)
(0.00121 0.0001278 0)
(0.001237 0.0003003 0)
(0.001267 0.0003948 0)
(0.001285 0.0004307 0)
(0.001288 0.0004295 0)
(0.001276 0.0004071 0)
(0.001252 0.0003741 0)
(0.001222 0.0003372 0)
(0.001187 0.0003002 0)
(0.001151 0.000265 0)
(0.001114 0.0002326 0)
(0.00108 0.0002031 0)
(0.001047 0.0001766 0)
(0.001017 0.0001528 0)
(0.0009902 0.0001315 0)
(0.0009662 0.0001123 0)
(0.0009452 9.501e-05 0)
(0.0009273 7.927e-05 0)
(0.0009122 6.485e-05 0)
(0.0008999 5.154e-05 0)
(0.0008903 3.914e-05 0)
(0.0008835 2.746e-05 0)
(0.0008792 1.635e-05 0)
(0.0008774 5.673e-06 0)
(0.0008782 -4.709e-06 0)
(0.0008814 -1.491e-05 0)
(0.0008871 -2.503e-05 0)
(0.0008954 -3.517e-05 0)
(0.0009061 -4.54e-05 0)
(0.0009195 -5.582e-05 0)
(0.0009355 -6.647e-05 0)
(0.0009542 -7.742e-05 0)
(0.0009757 -8.871e-05 0)
(0.001 -0.0001004 0)
(0.001027 -0.0001124 0)
(0.001058 -0.0001249 0)
(0.001091 -0.0001377 0)
(0.001128 -0.0001509 0)
(0.001168 -0.0001644 0)
(0.001212 -0.0001781 0)
(0.001258 -0.0001919 0)
(0.001308 -0.0002057 0)
(0.001362 -0.0002192 0)
(0.001419 -0.0002324 0)
(0.001478 -0.000245 0)
(0.001541 -0.0002566 0)
(0.001607 -0.0002671 0)
(0.001674 -0.0002761 0)
(0.001744 -0.0002832 0)
(0.001815 -0.0002882 0)
(0.001886 -0.0002907 0)
(0.001958 -0.0002903 0)
(0.00203 -0.0002867 0)
(0.0021 -0.0002798 0)
(0.002168 -0.0002692 0)
(0.002232 -0.0002549 0)
(0.002293 -0.0002367 0)
(0.002349 -0.0002147 0)
(0.002399 -0.000189 0)
(0.002442 -0.0001598 0)
(0.002478 -0.0001275 0)
(0.002505 -9.269e-05 0)
(0.002524 -5.594e-05 0)
(0.002533 -1.806e-05 0)
(0.002533 2.011e-05 0)
(0.002524 5.769e-05 0)
(0.002505 9.387e-05 0)
(0.002478 0.0001279 0)
(0.002443 0.0001593 0)
(0.0024 0.0001875 0)
(0.002351 0.0002124 0)
(0.002296 0.0002336 0)
(0.002237 0.0002512 0)
(0.002173 0.0002651 0)
(0.002107 0.0002755 0)
(0.002038 0.0002825 0)
(0.001967 0.0002863 0)
(0.001896 0.0002872 0)
(0.001825 0.0002854 0)
(0.001755 0.0002813 0)
(0.001685 0.000275 0)
(0.001617 0.0002671 0)
(0.001552 0.0002577 0)
(0.001488 0.0002471 0)
(0.001427 0.0002358 0)
(0.001369 0.0002238 0)
(0.001314 0.0002114 0)
(0.001262 0.0001989 0)
(0.001213 0.0001864 0)
(0.001167 0.000174 0)
(0.001124 0.0001619 0)
(0.001084 0.0001502 0)
(0.001047 0.0001389 0)
(0.001012 0.0001281 0)
(0.0009804 0.0001179 0)
(0.000951 0.0001082 0)
(0.000924 9.91e-05 0)
(0.0008992 9.058e-05 0)
(0.0008764 8.263e-05 0)
(0.0008556 7.524e-05 0)
(0.0008366 6.839e-05 0)
(0.0008193 6.206e-05 0)
(0.0008036 5.623e-05 0)
(0.0007893 5.087e-05 0)
(0.0007764 4.595e-05 0)
(0.0007646 4.145e-05 0)
(0.000754 3.734e-05 0)
(0.0007444 3.36e-05 0)
(0.0007357 3.019e-05 0)
(0.0007279 2.709e-05 0)
(0.0007209 2.429e-05 0)
(0.0007146 2.176e-05 0)
(0.000709 1.947e-05 0)
(0.0007039 1.742e-05 0)
(0.0006993 1.559e-05 0)
(0.0006952 1.395e-05 0)
(0.0006915 1.251e-05 0)
(0.0006882 1.125e-05 0)
(0.0006853 1.016e-05 0)
(0.0006826 9.235e-06 0)
(0.0006802 8.472e-06 0)
(0.000678 7.865e-06 0)
(0.0006761 7.41e-06 0)
(0.0006742 7.1e-06 0)
(0.0006726 6.924e-06 0)
(0.000671 6.862e-06 0)
(0.0006695 6.878e-06 0)
(0.0006681 6.916e-06 0)
(0.001208 0.0001096 0)
(0.00123 0.000269 0)
(0.001259 0.0003679 0)
(0.001282 0.0004165 0)
(0.001294 0.0004294 0)
(0.001294 0.0004193 0)
(0.001283 0.0003956 0)
(0.001265 0.0003648 0)
(0.001241 0.0003312 0)
(0.001214 0.0002974 0)
(0.001186 0.0002647 0)
(0.001158 0.000234 0)
(0.00113 0.0002056 0)
(0.001104 0.0001795 0)
(0.00108 0.0001556 0)
(0.001059 0.0001337 0)
(0.00104 0.0001136 0)
(0.001024 9.512e-05 0)
(0.00101 7.798e-05 0)
(0.0009983 6.2e-05 0)
(0.0009896 4.697e-05 0)
(0.0009834 3.271e-05 0)
(0.0009797 1.907e-05 0)
(0.0009785 5.871e-06 0)
(0.0009799 -7.013e-06 0)
(0.0009838 -1.972e-05 0)
(0.0009902 -3.236e-05 0)
(0.0009991 -4.504e-05 0)
(0.001011 -5.787e-05 0)
(0.001025 -7.094e-05 0)
(0.001042 -8.431e-05 0)
(0.001062 -9.806e-05 0)
(0.001084 -0.0001122 0)
(0.00111 -0.0001269 0)
(0.001139 -0.000142 0)
(0.001171 -0.0001576 0)
(0.001206 -0.0001737 0)
(0.001244 -0.0001902 0)
(0.001286 -0.0002071 0)
(0.001332 -0.0002242 0)
(0.001381 -0.0002414 0)
(0.001433 -0.0002586 0)
(0.001489 -0.0002756 0)
(0.001548 -0.000292 0)
(0.00161 -0.0003077 0)
(0.001676 -0.0003222 0)
(0.001744 -0.0003352 0)
(0.001815 -0.0003463 0)
(0.001887 -0.0003552 0)
(0.001961 -0.0003613 0)
(0.002036 -0.0003643 0)
(0.002111 -0.0003637 0)
(0.002186 -0.0003592 0)
(0.002259 -0.0003505 0)
(0.00233 -0.0003372 0)
(0.002398 -0.0003193 0)
(0.002461 -0.0002965 0)
(0.002519 -0.000269 0)
(0.002572 -0.0002369 0)
(0.002617 -0.0002004 0)
(0.002654 -0.00016 0)
(0.002683 -0.0001164 0)
(0.002703 -7.038e-05 0)
(0.002713 -2.288e-05 0)
(0.002713 2.497e-05 0)
(0.002703 7.208e-05 0)
(0.002683 0.0001174 0)
(0.002655 0.00016 0)
(0.002618 0.0001993 0)
(0.002574 0.0002346 0)
(0.002522 0.0002657 0)
(0.002465 0.0002923 0)
(0.002403 0.0003143 0)
(0.002337 0.0003318 0)
(0.002267 0.0003449 0)
(0.002196 0.0003538 0)
(0.002122 0.0003588 0)
(0.002048 0.00036 0)
(0.001974 0.0003579 0)
(0.0019 0.0003529 0)
(0.001828 0.0003453 0)
(0.001757 0.0003354 0)
(0.001688 0.0003238 0)
(0.001622 0.0003108 0)
(0.001558 0.0002966 0)
(0.001498 0.0002817 0)
(0.00144 0.0002663 0)
(0.001385 0.0002507 0)
(0.001334 0.000235 0)
(0.001286 0.0002196 0)
(0.001241 0.0002045 0)
(0.001198 0.0001898 0)
(0.001159 0.0001757 0)
(0.001123 0.0001622 0)
(0.001089 0.0001493 0)
(0.001058 0.0001372 0)
(0.00103 0.0001257 0)
(0.001004 0.000115 0)
(0.0009795 0.000105 0)
(0.0009575 9.568e-05 0)
(0.0009374 8.704e-05 0)
(0.000919 7.905e-05 0)
(0.0009023 7.169e-05 0)
(0.0008871 6.491e-05 0)
(0.0008733 5.868e-05 0)
(0.0008608 5.298e-05 0)
(0.0008495 4.777e-05 0)
(0.0008392 4.301e-05 0)
(0.0008299 3.868e-05 0)
(0.0008216 3.475e-05 0)
(0.0008141 3.118e-05 0)
(0.0008073 2.795e-05 0)
(0.0008012 2.504e-05 0)
(0.0007957 2.241e-05 0)
(0.0007908 2.007e-05 0)
(0.0007864 1.797e-05 0)
(0.0007825 1.611e-05 0)
(0.0007789 1.448e-05 0)
(0.0007758 1.306e-05 0)
(0.0007729 1.185e-05 0)
(0.0007703 1.083e-05 0)
(0.000768 1e-05 0)
(0.0007659 9.358e-06 0)
(0.000764 8.884e-06 0)
(0.0007623 8.569e-06 0)
(0.0007606 8.392e-06 0)
(0.0007591 8.324e-06 0)
(0.0007577 8.316e-06 0)
(0.001206 9.544e-05 0)
(0.001225 0.0002417 0)
(0.001251 0.0003404 0)
(0.001276 0.0003966 0)
(0.001293 0.00042 0)
(0.001302 0.0004204 0)
(0.001301 0.0004055 0)
(0.001293 0.0003814 0)
(0.001279 0.0003523 0)
(0.001261 0.0003211 0)
(0.001241 0.0002897 0)
(0.001219 0.000259 0)
(0.001197 0.0002298 0)
(0.001176 0.0002023 0)
(0.001156 0.0001765 0)
(0.001138 0.0001525 0)
(0.001122 0.0001302 0)
(0.001107 0.0001093 0)
(0.001095 8.979e-05 0)
(0.001085 7.137e-05 0)
(0.001078 5.389e-05 0)
(0.001073 3.718e-05 0)
(0.00107 2.108e-05 0)
(0.001069 5.423e-06 0)
(0.001071 -9.935e-06 0)
(0.001076 -2.513e-05 0)
(0.001083 -4.031e-05 0)
(0.001092 -5.557e-05 0)
(0.001104 -7.103e-05 0)
(0.001119 -8.679e-05 0)
(0.001137 -0.0001029 0)
(0.001157 -0.0001195 0)
(0.00118 -0.0001367 0)
(0.001207 -0.0001544 0)
(0.001236 -0.0001726 0)
(0.001269 -0.0001915 0)
(0.001304 -0.0002109 0)
(0.001344 -0.0002308 0)
(0.001386 -0.0002511 0)
(0.001433 -0.0002718 0)
(0.001483 -0.0002926 0)
(0.001536 -0.0003133 0)
(0.001593 -0.0003337 0)
(0.001653 -0.0003534 0)
(0.001717 -0.0003722 0)
(0.001783 -0.0003897 0)
(0.001853 -0.0004053 0)
(0.001924 -0.0004187 0)
(0.001998 -0.0004293 0)
(0.002074 -0.0004366 0)
(0.00215 -0.0004401 0)
(0.002226 -0.0004394 0)
(0.002302 -0.0004339 0)
(0.002377 -0.0004233 0)
(0.002449 -0.0004073 0)
(0.002518 -0.0003857 0)
(0.002582 -0.0003583 0)
(0.002642 -0.0003252 0)
(0.002695 -0.0002864 0)
(0.002742 -0.0002425 0)
(0.00278 -0.0001938 0)
(0.00281 -0.0001411 0)
(0.00283 -8.538e-05 0)
(0.00284 -2.79e-05 0)
(0.00284 3.002e-05 0)
(0.00283 8.701e-05 0)
(0.00281 0.0001418 0)
(0.002781 0.0001933 0)
(0.002743 0.0002406 0)
(0.002698 0.0002832 0)
(0.002645 0.0003206 0)
(0.002587 0.0003526 0)
(0.002524 0.0003792 0)
(0.002457 0.0004004 0)
(0.002386 0.0004163 0)
(0.002313 0.0004272 0)
(0.002239 0.0004333 0)
(0.002163 0.000435 0)
(0.002088 0.0004326 0)
(0.002013 0.0004267 0)
(0.001939 0.0004177 0)
(0.001867 0.0004059 0)
(0.001797 0.000392 0)
(0.001729 0.0003764 0)
(0.001665 0.0003594 0)
(0.001603 0.0003415 0)
(0.001544 0.000323 0)
(0.001488 0.0003042 0)
(0.001436 0.0002854 0)
(0.001386 0.0002668 0)
(0.00134 0.0002486 0)
(0.001297 0.0002309 0)
(0.001257 0.0002138 0)
(0.00122 0.0001975 0)
(0.001186 0.000182 0)
(0.001154 0.0001673 0)
(0.001125 0.0001534 0)
(0.001098 0.0001405 0)
(0.001073 0.0001283 0)
(0.00105 0.000117 0)
(0.00103 0.0001065 0)
(0.001011 9.683e-05 0)
(0.0009934 8.787e-05 0)
(0.0009777 7.962e-05 0)
(0.0009634 7.204e-05 0)
(0.0009504 6.509e-05 0)
(0.0009387 5.874e-05 0)
(0.0009281 5.293e-05 0)
(0.0009184 4.764e-05 0)
(0.0009098 4.283e-05 0)
(0.0009019 3.846e-05 0)
(0.0008949 3.45e-05 0)
(0.0008885 3.092e-05 0)
(0.0008828 2.77e-05 0)
(0.0008777 2.481e-05 0)
(0.0008731 2.223e-05 0)
(0.000869 1.993e-05 0)
(0.0008653 1.791e-05 0)
(0.0008619 1.614e-05 0)
(0.000859 1.461e-05 0)
(0.0008563 1.331e-05 0)
(0.0008539 1.224e-05 0)
(0.0008517 1.138e-05 0)
(0.0008498 1.072e-05 0)
(0.000848 1.025e-05 0)
(0.0008464 9.947e-06 0)
(0.0008449 9.785e-06 0)
(0.0008435 9.729e-06 0)
(0.001205 8.415e-05 0)
(0.001221 0.000218 0)
(0.001245 0.0003138 0)
(0.00127 0.0003739 0)
(0.00129 0.0004048 0)
(0.001304 0.0004134 0)
(0.001311 0.0004064 0)
(0.001311 0.0003888 0)
(0.001305 0.0003646 0)
(0.001295 0.0003369 0)
(0.001282 0.0003075 0)
(0.001267 0.0002778 0)
(0.001251 0.0002486 0)
(0.001235 0.0002205 0)
(0.001219 0.0001937 0)
(0.001205 0.0001683 0)
(0.001191 0.0001442 0)
(0.00118 0.0001214 0)
(0.00117 9.983e-05 0)
(0.001162 7.927e-05 0)
(0.001155 5.96e-05 0)
(0.001151 4.064e-05 0)
(0.00115 2.224e-05 0)
(0.00115 4.259e-06 0)
(0.001153 -1.347e-05 0)
(0.001158 -3.109e-05 0)
(0.001165 -4.872e-05 0)
(0.001175 -6.651e-05 0)
(0.001187 -8.457e-05 0)
(0.001202 -0.000103 0)
(0.00122 -0.0001219 0)
(0.00124 -0.0001413 0)
(0.001264 -0.0001614 0)
(0.00129 -0.0001821 0)
(0.001319 -0.0002035 0)
(0.001352 -0.0002256 0)
(0.001387 -0.0002484 0)
(0.001426 -0.0002717 0)
(0.001469 -0.0002955 0)
(0.001515 -0.0003197 0)
(0.001564 -0.000344 0)
(0.001617 -0.0003682 0)
(0.001674 -0.0003921 0)
(0.001734 -0.0004152 0)
(0.001797 -0.0004372 0)
(0.001863 -0.0004576 0)
(0.001932 -0.0004759 0)
(0.002004 -0.0004915 0)
(0.002077 -0.0005038 0)
(0.002152 -0.0005124 0)
(0.002228 -0.0005164 0)
(0.002304 -0.0005155 0)
(0.002379 -0.000509 0)
(0.002453 -0.0004966 0)
(0.002525 -0.0004779 0)
(0.002593 -0.0004525 0)
(0.002658 -0.0004205 0)
(0.002717 -0.0003817 0)
(0.00277 -0.0003364 0)
(0.002816 -0.000285 0)
(0.002854 -0.0002279 0)
(0.002884 -0.0001661 0)
(0.002904 -0.0001006 0)
(0.002914 -3.295e-05 0)
(0.002914 3.519e-05 0)
(0.002904 0.0001022 0)
(0.002884 0.0001665 0)
(0.002855 0.0002269 0)
(0.002817 0.0002822 0)
(0.002772 0.000332 0)
(0.00272 0.0003758 0)
(0.002663 0.0004133 0)
(0.0026 0.0004444 0)
(0.002533 0.0004693 0)
(0.002463 0.000488 0)
(0.002391 0.0005009 0)
(0.002317 0.0005082 0)
(0.002242 0.0005103 0)
(0.002167 0.0005077 0)
(0.002093 0.000501 0)
(0.002019 0.0004905 0)
(0.001948 0.0004769 0)
(0.001878 0.0004607 0)
(0.001811 0.0004425 0)
(0.001746 0.0004227 0)
(0.001685 0.0004017 0)
(0.001626 0.0003801 0)
(0.001571 0.0003582 0)