/*--------------------------------*- C++ -*----------------------------------*\
  =========                 |
  \\      /  F ield         | OpenFOAM: The Open Source CFD Toolbox
   \\    /   O peration     | Website:  https://openfoam.org
    \\  /    A nd           | Version:  7
     \\/     M anipulation  |
\*---------------------------------------------------------------------------*/
FoamFile
{
    version     2.0;
    format      ascii;
    class       volScalarField;
    location    "239.999473411311953";
    object      Y.K;
}
// * * * * * * * * * * * * * * * * * * * * * * * * * * * * * * * * * * * * * //

dimensions      [0 0 0 0 0 0 0];

internalField   nonuniform List<scalar> 
4096
(
5.203e-68
4.644e-66
-1.581e-66
5.851e-66
-4.765e-67
-1.814e-66
7.998e-67
6.397e-67
-4.384e-67
2.958e-66
-3.195e-65
4.783e-64
-6.613e-63
9.424e-62
-1.217e-60
1.528e-59
-1.822e-58
2.132e-57
-2.404e-56
2.683e-55
-2.861e-54
3.009e-53
-3.128e-52
3.13e-51
-2.948e-50
2.647e-49
-2.34e-48
2.06e-47
-1.75e-46
1.435e-45
-1.127e-44
8.37e-44
-5.714e-43
3.487e-42
-1.837e-41
5.607e-41
2.152e-40
-6.414e-39
7.234e-38
-6.818e-37
5.112e-36
-3.506e-35
2.24e-34
-1.26e-33
6.523e-33
-3.098e-32
1.374e-31
-5.433e-31
2.037e-30
-4.373e-30
1.091e-29
1.953e-28
-3.571e-28
1.219e-26
6.707e-28
3.347e-25
1.24e-24
4.288e-24
3.289e-23
1.639e-22
1.272e-21
6.429e-21
8.432e-20
1.15e-18
3.638e-18
8.588e-18
1.805e-17
3.56e-17
6.718e-17
1.224e-16
2.163e-16
3.716e-16
6.221e-16
1.016e-15
1.621e-15
2.53e-15
3.865e-15
5.788e-15
8.501e-15
1.226e-14
1.738e-14
2.423e-14
3.326e-14
4.5e-14
6.005e-14
7.91e-14
1.029e-13
1.324e-13
1.686e-13
2.125e-13
2.653e-13
3.284e-13
4.033e-13
4.915e-13
5.949e-13
7.153e-13
8.55e-13
1.016e-12
1.201e-12
1.414e-12
1.656e-12
1.931e-12
2.243e-12
2.596e-12
2.994e-12
3.441e-12
3.944e-12
4.507e-12
5.136e-12
5.839e-12
6.621e-12
7.491e-12
8.457e-12
9.528e-12
1.071e-11
1.202e-11
1.347e-11
1.506e-11
1.681e-11
1.874e-11
2.085e-11
2.317e-11
2.569e-11
2.843e-11
3.136e-11
3.442e-11
3.737e-11
3.966e-11
-1.546e-65
8.166e-65
-1.055e-64
1.322e-65
7.628e-65
-6.932e-65
9.695e-67
4.309e-65
-1.29e-65
1.664e-64
-1.875e-63
2.574e-62
-3.727e-61
5.085e-60
-6.58e-59
8.138e-58
-9.702e-57
1.122e-55
-1.264e-54
1.392e-53
-1.498e-52
1.574e-51
-1.609e-50
1.594e-49
-1.511e-48
1.357e-47
-1.204e-46
1.048e-45
-8.891e-45
7.291e-44
-5.726e-43
4.253e-42
-2.933e-41
1.812e-40
-9.581e-40
3.256e-39
5.822e-39
-2.795e-37
3.268e-36
-3.14e-35
2.389e-34
-1.649e-33
1.039e-32
-5.808e-32
2.995e-31
-1.417e-30
6.284e-30
-2.471e-29
9.504e-29
-1.946e-28
6.559e-28
8.887e-27
6.276e-28
5.397e-25
6.853e-25
1.608e-23
6.139e-23
2.265e-22
1.535e-21
7.243e-21
4.863e-20
1.966e-19
1.237e-18
3.787e-18
8.981e-18
1.911e-17
3.81e-17
7.247e-17
1.326e-16
2.345e-16
4.021e-16
6.699e-16
1.087e-15
1.719e-15
2.656e-15
4.014e-15
5.943e-15
8.63e-15
1.231e-14
1.725e-14
2.38e-14
3.236e-14
4.338e-14
5.74e-14
7.505e-14
9.702e-14
1.241e-13
1.572e-13
1.973e-13
2.455e-13
3.03e-13
3.713e-13
4.517e-13
5.46e-13
6.56e-13
7.836e-13
9.311e-13
1.101e-12
1.295e-12
1.518e-12
1.771e-12
2.058e-12
2.384e-12
2.751e-12
3.166e-12
3.631e-12
4.154e-12
4.738e-12
5.391e-12
6.12e-12
6.931e-12
7.833e-12
8.833e-12
9.942e-12
1.117e-11
1.252e-11
1.402e-11
1.567e-11
1.748e-11
1.947e-11
2.165e-11
2.405e-11
2.666e-11
2.951e-11
3.259e-11
3.587e-11
3.924e-11
4.238e-11
3.462e-64
-2.414e-63
6.115e-63
-8.359e-63
6.009e-63
-1.011e-63
-2.254e-63
2.072e-63
1.66e-64
9.179e-63
-1.012e-61
1.342e-60
-1.924e-59
2.598e-58
-3.323e-57
4.065e-56
-4.794e-55
5.487e-54
-6.126e-53
6.687e-52
-7.141e-51
7.451e-50
-7.568e-49
7.455e-48
-7.035e-47
6.33e-46
-5.625e-45
4.903e-44
-4.165e-43
3.423e-42
-2.698e-41
2.016e-40
-1.405e-39
8.878e-39
-4.813e-38
1.909e-37
-1.573e-37
-9.612e-36
1.253e-34
-1.277e-33
9.785e-33
-6.825e-32
4.353e-31
-2.428e-30
1.252e-29
-5.928e-29
2.646e-28
-1.035e-27
4.117e-27
-7.532e-27
3.821e-26
3.485e-25
9.598e-25
2.219e-23
6.206e-23
7.897e-22
3.052e-21
1.173e-20
6.985e-20
2.934e-19
1.539e-18
4.769e-18
1.169e-17
2.59e-17
5.378e-17
1.061e-16
2.002e-16
3.63e-16
6.339e-16
1.069e-15
1.746e-15
2.764e-15
4.253e-15
6.372e-15
9.313e-15
1.33e-14
1.86e-14
2.551e-14
3.437e-14
4.554e-14
5.946e-14
7.658e-14
9.744e-14
1.226e-13
1.528e-13
1.887e-13
2.312e-13
2.812e-13
3.398e-13
4.081e-13
4.876e-13
5.797e-13
6.86e-13
8.085e-13
9.49e-13
1.11e-12
1.294e-12
1.503e-12
1.741e-12
2.011e-12
2.316e-12
2.66e-12
3.048e-12
3.484e-12
3.973e-12
4.522e-12
5.135e-12
5.819e-12
6.581e-12
7.43e-12
8.372e-12
9.418e-12
1.058e-11
1.186e-11
1.327e-11
1.483e-11
1.655e-11
1.844e-11
2.052e-11
2.28e-11
2.53e-11
2.803e-11
3.102e-11
3.427e-11
3.78e-11
4.162e-11
4.573e-11
5.023e-11
-5.664e-63
4.506e-62
-1.601e-61
3.522e-61
-5.107e-61
4.945e-61
-2.942e-61
6.302e-62
3.644e-62
4.857e-61
-5.19e-60
6.501e-59
-9.16e-58
1.215e-56
-1.526e-55
1.832e-54
-2.124e-53
2.394e-52
-2.634e-51
2.839e-50
-2.997e-49
3.096e-48
-3.119e-47
3.053e-46
-2.87e-45
2.59e-44
-2.308e-43
2.018e-42
-1.722e-41
1.423e-40
-1.13e-39
8.544e-39
-6.062e-38
3.953e-37
-2.282e-36
1.06e-35
-2.803e-35
-1.786e-34
3.566e-33
-4.225e-32
3.319e-31
-2.373e-30
1.56e-29
-8.718e-29
4.511e-28
-2.148e-27
9.755e-27
-3.767e-26
1.552e-25
-1.857e-25
2.079e-24
1.242e-23
9.091e-23
8.319e-22
4.452e-21
3.639e-20
1.426e-19
5.116e-19
2.458e-18
7.929e-18
2.056e-17
4.839e-17
1.067e-16
2.227e-16
4.424e-16
8.383e-16
1.519e-15
2.64e-15
4.408e-15
7.091e-15
1.101e-14
1.655e-14
2.413e-14
3.42e-14
4.723e-14
6.367e-14
8.399e-14
1.086e-13
1.379e-13
1.724e-13
2.124e-13
2.584e-13
3.109e-13
3.705e-13
4.379e-13
5.138e-13
5.992e-13
6.952e-13
8.031e-13
9.244e-13
1.061e-12
1.214e-12
1.386e-12
1.58e-12
1.797e-12
2.042e-12
2.317e-12
2.626e-12
2.972e-12
3.361e-12
3.796e-12
4.283e-12
4.827e-12
5.435e-12
6.113e-12
6.868e-12
7.708e-12
8.641e-12
9.677e-12
1.082e-11
1.21e-11
1.35e-11
1.505e-11
1.676e-11
1.865e-11
2.072e-11
2.299e-11
2.549e-11
2.822e-11
3.122e-11
3.449e-11
3.805e-11
4.194e-11
4.616e-11
5.074e-11
5.57e-11
6.112e-11
6.777e-11
7.987e-62
-6.9e-61
3.035e-60
-8.936e-60
1.862e-59
-2.85e-59
3.228e-59
-2.617e-59
1.31e-59
2.233e-59
-2.504e-58
2.912e-57
-3.98e-56
5.122e-55
-6.243e-54
7.289e-53
-8.231e-52
9.056e-51
-9.755e-50
1.032e-48
-1.071e-47
1.092e-46
-1.088e-45
1.057e-44
-9.903e-44
8.979e-43
-8.042e-42
7.075e-41
-6.079e-40
5.071e-39
-4.079e-38
3.137e-37
-2.284e-36
1.55e-35
-9.6e-35
5.167e-34
-2.315e-33
3.362e-33
4.185e-32
-9.959e-31
8.615e-30
-6.477e-29
4.571e-28
-2.574e-27
1.338e-26
-6.487e-26
3.062e-25
-1.128e-24
4.648e-24
1.842e-24
1.041e-22
7.12e-22
5.498e-21
4.124e-20
2.312e-19
1.29e-18
4.78e-18
1.435e-17
3.905e-17
9.916e-17
2.368e-16
5.341e-16
1.14e-15
2.305e-15
4.425e-15
8.08e-15
1.406e-14
2.339e-14
3.726e-14
5.703e-14
8.406e-14
1.197e-13
1.649e-13
2.207e-13
2.873e-13
3.65e-13
4.535e-13
5.522e-13
6.605e-13
7.78e-13
9.04e-13
1.038e-12
1.181e-12
1.333e-12
1.494e-12
1.666e-12
1.85e-12
2.049e-12
2.263e-12
2.496e-12
2.75e-12
3.029e-12
3.335e-12
3.674e-12
4.048e-12
4.463e-12
4.924e-12
5.436e-12
6.005e-12
6.637e-12
7.34e-12
8.122e-12
8.989e-12
9.952e-12
1.102e-11
1.22e-11
1.352e-11
1.497e-11
1.657e-11
1.834e-11
2.029e-11
2.244e-11
2.48e-11
2.74e-11
3.025e-11
3.338e-11
3.68e-11
4.054e-11
4.463e-11
4.908e-11
5.393e-11
5.92e-11
6.493e-11
7.112e-11
7.783e-11
8.506e-11
9.294e-11
1.034e-10
-1.031e-60
9.398e-60
-4.794e-59
1.737e-58
-4.669e-58
9.639e-58
-1.556e-57
1.961e-57
-1.893e-57
1.693e-57
-1.108e-56
1.19e-55
-1.544e-54
1.895e-53
-2.206e-52
2.468e-51
-2.682e-50
2.851e-49
-2.979e-48
3.068e-47
-3.116e-46
3.118e-45
-3.065e-44
2.951e-43
-2.759e-42
2.519e-41
-2.273e-40
2.018e-39
-1.753e-38
1.483e-37
-1.214e-36
9.56e-36
-7.185e-35
5.106e-34
-3.391e-33
2.064e-32
-1.096e-31
4.739e-31
-1.127e-30
-5.675e-30
9.022e-29
-1.158e-27
9.915e-27
-5.909e-26
3.051e-25
-1.562e-24
8.146e-24
-2.597e-23
8.829e-23
5.829e-22
5.515e-21
4.029e-20
2.633e-19
1.611e-18
6.622e-18
2.229e-17
6.807e-17
1.934e-16
5.143e-16
1.283e-15
3.01e-15
6.641e-15
1.38e-14
2.708e-14
5.02e-14
8.814e-14
1.47e-13
2.334e-13
3.539e-13
5.141e-13
7.175e-13
9.652e-13
1.255e-12
1.582e-12
1.94e-12
2.318e-12
2.708e-12
3.101e-12
3.489e-12
3.869e-12
4.237e-12
4.593e-12
4.939e-12
5.277e-12
5.611e-12
5.948e-12
6.291e-12
6.648e-12
7.025e-12
7.428e-12
7.863e-12
8.339e-12
8.862e-12
9.439e-12
1.008e-11
1.079e-11
1.158e-11
1.246e-11
1.343e-11
1.452e-11
1.572e-11
1.706e-11
1.855e-11
2.019e-11
2.201e-11
2.403e-11
2.625e-11
2.871e-11
3.141e-11
3.439e-11
3.767e-11
4.126e-11
4.521e-11
4.953e-11
5.426e-11
5.944e-11
6.508e-11
7.123e-11
7.793e-11
8.521e-11
9.311e-11
1.017e-10
1.109e-10
1.209e-10
1.317e-10
1.433e-10
1.557e-10
1.731e-10
1.253e-59
-1.183e-58
6.722e-58
-2.851e-57
9.322e-57
-2.42e-56
5.078e-56
-8.633e-56
1.153e-55
-9.932e-56
-3.708e-55
4.259e-54
-5.136e-53
5.86e-52
-6.377e-51
6.711e-50
-6.907e-49
7.003e-48
-7.024e-47
6.985e-46
-6.889e-45
6.732e-44
-6.506e-43
6.196e-42
-5.79e-41
5.338e-40
-4.872e-39
4.383e-38
-3.87e-37
3.339e-36
-2.801e-35
2.274e-34
-1.776e-33
1.327e-32
-9.438e-32
6.314e-31
-3.848e-30
2.156e-29
-1.051e-28
4.197e-28
-9.757e-28
-3.1e-27
6.321e-26
-5.276e-25
3.866e-24
-2.595e-23
1.789e-22
-3.34e-22
3.159e-21
2.788e-20
2.297e-19
1.608e-18
7.489e-18
2.883e-17
1.008e-16
3.271e-16
9.886e-16
2.788e-15
7.344e-15
1.807e-14
4.161e-14
8.967e-14
1.812e-13
3.438e-13
6.137e-13
1.033e-12
1.646e-12
2.49e-12
3.585e-12
4.932e-12
6.504e-12
8.255e-12
1.011e-11
1.2e-11
1.382e-11
1.552e-11
1.703e-11
1.833e-11
1.939e-11
2.024e-11
2.089e-11
2.139e-11
2.175e-11
2.201e-11
2.222e-11
2.24e-11
2.258e-11
2.279e-11
2.306e-11
2.339e-11
2.381e-11
2.433e-11
2.497e-11
2.574e-11
2.665e-11
2.772e-11
2.896e-11
3.038e-11
3.2e-11
3.383e-11
3.59e-11
3.823e-11
4.082e-11
4.372e-11
4.694e-11
5.051e-11
5.446e-11
5.882e-11
6.363e-11
6.891e-11
7.472e-11
8.109e-11
8.807e-11
9.57e-11
1.04e-10
1.131e-10
1.23e-10
1.338e-10
1.455e-10
1.581e-10
1.718e-10
1.866e-10
2.026e-10
2.197e-10
2.382e-10
2.579e-10
2.79e-10
3.093e-10
-1.45e-58
1.401e-57
-8.632e-57
4.144e-56
-1.587e-55
4.967e-55
-1.291e-54
2.804e-54
-5.055e-54
7.697e-54
-2.145e-53
1.291e-52
-1.355e-51
1.382e-50
-1.364e-49
1.318e-48
-1.262e-47
1.203e-46
-1.144e-45
1.087e-44
-1.033e-43
9.794e-43
-9.255e-42
8.686e-41
-8.126e-40
7.603e-39
-7.053e-38
6.469e-37
-5.849e-36
5.197e-35
-4.515e-34
3.824e-33
-3.133e-32
2.479e-31
-1.89e-30
1.367e-29
-9.136e-29
5.82e-28
-3.356e-27
1.822e-26
-9.108e-26
4.07e-25
-1.584e-24
4.451e-24
-1.892e-24
-1.055e-22
2.03e-21
2.489e-21
1.258e-19
1.159e-18
6.341e-18
2.856e-17
1.166e-16
4.399e-16
1.54e-15
5.005e-15
1.511e-14
4.236e-14
1.104e-13
2.674e-13
6.028e-13
1.266e-12
2.479e-12
4.537e-12
7.776e-12
1.252e-11
1.901e-11
2.73e-11
3.723e-11
4.842e-11
6.021e-11
7.202e-11
8.296e-11
9.25e-11
1e-10
1.053e-10
1.086e-10
1.099e-10
1.093e-10
1.076e-10
1.049e-10
1.015e-10
9.773e-11
9.383e-11
9.002e-11
8.642e-11
8.316e-11
8.029e-11
7.785e-11
7.588e-11
7.437e-11
7.335e-11
7.269e-11
7.274e-11
7.311e-11
7.394e-11
7.523e-11
7.703e-11
7.932e-11
8.211e-11
8.543e-11
8.93e-11
9.375e-11
9.88e-11
1.045e-10
1.109e-10
1.181e-10
1.26e-10
1.347e-10
1.444e-10
1.551e-10
1.667e-10
1.795e-10
1.935e-10
2.088e-10
2.254e-10
2.434e-10
2.63e-10
2.843e-10
3.072e-10
3.32e-10
3.587e-10
3.875e-10
4.183e-10
4.513e-10
4.866e-10
5.239e-10
5.787e-10
1.599e-57
-1.568e-56
1.029e-55
-5.46e-55
2.385e-54
-8.745e-54
2.73e-53
-7.288e-53
1.634e-52
-2.839e-52
-6.904e-53
2.573e-51
-2.399e-50
2.016e-49
-1.735e-48
1.504e-47
-1.317e-46
1.162e-45
-1.035e-44
9.286e-44
-8.411e-43
7.635e-42
-6.951e-41
6.333e-40
-5.776e-39
5.259e-38
-4.772e-37
4.312e-36
-3.889e-35
3.483e-34
-3.07e-33
2.683e-32
-2.249e-31
1.832e-30
-1.441e-29
1.071e-28
-7.823e-28
5.373e-27
-3.598e-26
2.287e-25
-1.384e-24
7.855e-24
-4.286e-23
2.164e-22
-1.01e-21
2.348e-21
3.356e-20
3.886e-19
3.434e-18
1.997e-17
9.778e-17
4.364e-16
1.799e-15
6.855e-15
2.415e-14
7.867e-14
2.368e-13
6.586e-13
1.693e-12
4.028e-12
8.867e-12
1.809e-11
3.424e-11
6.024e-11
9.88e-11
1.517e-10
2.187e-10
2.975e-10
3.834e-10
4.706e-10
5.506e-10
6.209e-10
6.704e-10
7.02e-10
7.101e-10
7.021e-10
6.816e-10
6.499e-10
6.106e-10
5.67e-10
5.222e-10
4.782e-10
4.367e-10
3.985e-10
3.641e-10
3.337e-10
3.071e-10
2.843e-10
2.648e-10
2.485e-10
2.35e-10
2.241e-10
2.154e-10
2.088e-10
2.041e-10
2.011e-10
1.995e-10
1.999e-10
2.014e-10
2.043e-10
2.086e-10
2.143e-10
2.213e-10
2.297e-10
2.395e-10
2.509e-10
2.637e-10
2.782e-10
2.943e-10
3.123e-10
3.321e-10
3.539e-10
3.779e-10
4.041e-10
4.328e-10
4.639e-10
4.978e-10
5.345e-10
5.742e-10
6.171e-10
6.633e-10
7.13e-10
7.663e-10
8.234e-10
8.844e-10
9.495e-10
1.018e-09
1.12e-09
-1.67e-56
1.654e-55
-1.139e-54
6.568e-54
-3.21e-53
1.351e-52
-4.964e-52
1.604e-51
-4.553e-51
1.122e-50
-2.347e-50
4.228e-50
-1.318e-49
7.054e-49
-6.701e-48
5.004e-47
-4.014e-46
3.178e-45
-2.649e-44
2.215e-43
-2.12e-42
1.833e-41
-1.573e-40
1.253e-39
-9.314e-39
5.648e-38
-2.081e-37
-4.365e-37
1.144e-35
-1.747e-34
1.978e-33
-1.563e-32
1.434e-31
-8.68e-31
4.554e-30
-1.112e-29
-9.886e-29
2.171e-27
-2.462e-26
2.226e-25
-1.837e-24
1.263e-23
-8.814e-23
5.977e-22
-1.534e-21
1.183e-19
1.395e-18
9.684e-18
5.644e-17
3.001e-16
1.473e-15
6.673e-15
2.788e-14
1.073e-13
3.797e-13
1.236e-12
3.701e-12
1.019e-11
2.578e-11
6.001e-11
1.286e-10
2.54e-10
4.631e-10
7.806e-10
1.221e-09
1.78e-09
2.432e-09
3.124e-09
3.799e-09
4.393e-09
4.824e-09
5.146e-09
5.145e-09
5.053e-09
4.835e-09
4.512e-09
4.123e-09
3.705e-09
3.285e-09
2.884e-09
2.517e-09
2.188e-09
1.9e-09
1.653e-09
1.442e-09
1.265e-09
1.117e-09
9.943e-10
8.925e-10
8.086e-10
7.397e-10
6.835e-10
6.38e-10
6.015e-10
5.728e-10
5.508e-10
5.345e-10
5.236e-10
5.168e-10
5.152e-10
5.172e-10
5.224e-10
5.313e-10
5.436e-10
5.593e-10
5.784e-10
6.009e-10
6.27e-10
6.566e-10
6.899e-10
7.271e-10
7.683e-10
8.138e-10
8.637e-10
9.183e-10
9.778e-10
1.043e-09
1.113e-09
1.188e-09
1.27e-09
1.358e-09
1.453e-09
1.554e-09
1.662e-09
1.777e-09
1.9e-09
2.027e-09
2.221e-09
1.632e-55
-1.623e-54
1.162e-53
-7.182e-53
3.866e-52
-1.837e-51
7.791e-51
-2.974e-50
1.022e-49
-3.121e-49
8.124e-49
-1.593e-48
-9.047e-50
5.493e-48
-2.981e-47
-7.369e-46
5.711e-45
-5.25e-44
4.049e-43
-3.234e-42
1.342e-41
-1.106e-41
-7.819e-40
1.403e-38
-1.69e-37
1.615e-36
-1.376e-35
1.032e-34
-9.999e-34
5.05e-33
-2.497e-32
6.562e-32
5.435e-31
-1.215e-29
1.475e-28
-1.45e-27
1.26e-26
-9.986e-26
7.334e-25
-5.071e-24
3.227e-23
-2.007e-22
1.201e-21
-4.122e-21
2.149e-19
2.757e-18
2.097e-17
1.353e-16
7.984e-16
4.343e-15
2.177e-14
1.003e-13
4.241e-13
1.644e-12
5.83e-12
1.892e-11
5.618e-11
1.525e-10
3.786e-10
8.598e-10
1.787e-09
3.405e-09
5.955e-09
9.576e-09
1.423e-08
1.964e-08
2.534e-08
3.066e-08
3.522e-08
3.821e-08
3.938e-08
3.877e-08
3.704e-08
3.429e-08
3.087e-08
2.713e-08
2.339e-08
1.987e-08
1.668e-08
1.39e-08
1.152e-08
9.543e-09
7.913e-09
6.584e-09
5.509e-09
4.643e-09
3.947e-09
3.389e-09
2.94e-09
2.58e-09
2.29e-09
2.057e-09
1.869e-09
1.719e-09
1.599e-09
1.504e-09
1.429e-09
1.373e-09
1.331e-09
1.303e-09
1.286e-09
1.282e-09
1.286e-09
1.298e-09
1.319e-09
1.349e-09
1.386e-09
1.431e-09
1.485e-09
1.546e-09
1.615e-09
1.693e-09
1.78e-09
1.876e-09
1.981e-09
2.096e-09
2.221e-09
2.356e-09
2.503e-09
2.661e-09
2.831e-09
3.013e-09
3.209e-09
3.417e-09
3.638e-09
3.874e-09
4.117e-09
4.491e-09
-1.459e-54
1.451e-53
-1.071e-52
7.022e-52
-4.111e-51
2.175e-50
-1.051e-49
4.68e-49
-1.93e-48
7.354e-48
-2.541e-47
7.452e-47
-1.425e-46
-5.92e-46
7.109e-45
-6.159e-44
4.739e-43
-3.5e-42
2.568e-41
-1.891e-40
1.398e-39
-1.026e-38
7.312e-38
-4.811e-37
2.934e-36
-1.449e-35
3.43e-35
3.549e-34
-7.592e-33
9.434e-32
-9.717e-31
8.996e-30
-7.722e-29
6.235e-28
-4.772e-27
3.477e-26
-2.416e-25
1.604e-24
-1.017e-23
6.145e-23
-3.562e-22
2.029e-21
-7.852e-21
3.264e-19
4.59e-18
3.834e-17
2.744e-16
1.801e-15
1.089e-14
6.064e-14
3.097e-13
1.447e-12
6.177e-12
2.403e-11
8.516e-11
2.746e-10
8.055e-10
2.148e-09
5.21e-09
1.149e-08
2.307e-08
4.22e-08
7.046e-08
1.076e-07
1.512e-07
1.97e-07
2.394e-07
2.727e-07
2.974e-07
2.967e-07
2.878e-07
2.689e-07
2.423e-07
2.115e-07
1.797e-07
1.494e-07
1.22e-07
9.834e-08
7.852e-08
6.232e-08
4.935e-08
3.911e-08
3.109e-08
2.486e-08
2.002e-08
1.628e-08
1.338e-08
1.113e-08
9.368e-09
7.989e-09
6.904e-09
6.047e-09
5.367e-09
4.827e-09
4.397e-09
4.055e-09
3.785e-09
3.573e-09
3.409e-09
3.287e-09
3.199e-09
3.143e-09
3.106e-09
3.108e-09
3.124e-09
3.159e-09
3.214e-09
3.288e-09
3.381e-09
3.491e-09
3.62e-09
3.766e-09
3.932e-09
4.115e-09
4.318e-09
4.541e-09
4.785e-09
5.049e-09
5.336e-09
5.645e-09
5.977e-09
6.333e-09
6.714e-09
7.119e-09
7.55e-09
8.009e-09
8.478e-09
9.206e-09
1.156e-53
-1.145e-52
8.651e-52
-5.951e-51
3.743e-50
-2.173e-49
1.177e-48
-6.005e-48
2.915e-47
-1.357e-46
6.093e-46
-2.648e-45
1.112e-44
-4.476e-44
1.692e-43
-5.719e-43
1.521e-42
-1.773e-42
-6.485e-42
-7.081e-41
2.954e-39
-5.027e-38
6.623e-37
-7.617e-36
7.499e-35
-6.895e-34
6.029e-33
-5.063e-32
4.105e-31
-3.222e-30
2.453e-29
-1.811e-28
1.297e-27
-9e-27
6.05e-26
-3.935e-25
2.475e-24
-1.499e-23
8.786e-23
-4.915e-22
2.763e-21
-1.121e-20
4.081e-19
6.299e-18
5.785e-17
4.597e-16
3.359e-15
2.264e-14
1.404e-13
7.976e-13
4.138e-12
1.955e-11
8.387e-11
3.263e-10
1.15e-09
3.667e-09
1.057e-08
2.756e-08
6.492e-08
1.383e-07
2.666e-07
4.657e-07
7.389e-07
1.067e-06
1.413e-06
1.733e-06
1.981e-06
2.146e-06
2.127e-06
2.036e-06
1.869e-06
1.648e-06
1.403e-06
1.16e-06
9.35e-07
7.389e-07
5.748e-07
4.421e-07
3.375e-07
2.567e-07
1.951e-07
1.487e-07
1.14e-07
8.799e-08
6.858e-08
5.406e-08
4.314e-08
3.489e-08
2.862e-08
2.382e-08
2.012e-08
1.724e-08
1.499e-08
1.323e-08
1.183e-08
1.073e-08
9.858e-09
9.168e-09
8.627e-09
8.207e-09
7.889e-09
7.658e-09
7.498e-09
7.402e-09
7.37e-09
7.392e-09
7.456e-09
7.564e-09
7.716e-09
7.908e-09
8.141e-09
8.414e-09
8.727e-09
9.079e-09
9.472e-09
9.906e-09
1.038e-08
1.09e-08
1.146e-08
1.207e-08
1.272e-08
1.342e-08
1.417e-08
1.497e-08
1.581e-08
1.671e-08
1.763e-08
1.906e-08
-7.744e-53
7.618e-52
-5.848e-51
4.178e-50
-2.783e-49
1.741e-48
-1.033e-47
5.866e-47
-3.221e-46
1.727e-45
-9.134e-45
4.813e-44
-2.554e-43
1.379e-42
-7.654e-42
4.41e-41
-2.656e-40
1.677e-39
-1.11e-38
7.677e-38
-5.525e-37
4.112e-36
-3.151e-35
2.44e-34
-1.849e-33
1.383e-32
-1.02e-31
7.406e-31
-5.287e-30
3.707e-29
-2.549e-28
1.716e-27
-1.13e-26
7.269e-26
-4.557e-25
2.782e-24
-1.648e-23
9.544e-23
-5.274e-22
2.975e-21
-1.228e-20
4.145e-19
7.014e-18
7.076e-17
6.237e-16
5.073e-15
3.812e-14
2.636e-13
1.669e-12
9.642e-12
5.06e-11
2.405e-10
1.032e-09
3.992e-09
1.39e-08
4.353e-08
1.225e-07
3.095e-07
7.027e-07
1.434e-06
2.637e-06
4.374e-06
6.562e-06
8.926e-06
1.112e-05
1.283e-05
1.395e-05
1.379e-05
1.311e-05
1.191e-05
1.036e-05
8.673e-06
7.027e-06
5.539e-06
4.268e-06
3.23e-06
2.41e-06
1.781e-06
1.309e-06
9.601e-07
7.051e-07
5.201e-07
3.864e-07
2.897e-07
2.197e-07
1.687e-07
1.314e-07
1.038e-07
8.334e-08
6.795e-08
5.63e-08
4.739e-08
4.052e-08
3.519e-08
3.101e-08
2.773e-08
2.513e-08
2.308e-08
2.146e-08
2.019e-08
1.921e-08
1.846e-08
1.791e-08
1.753e-08
1.729e-08
1.719e-08
1.722e-08
1.735e-08
1.757e-08
1.789e-08
1.83e-08
1.88e-08
1.939e-08
2.006e-08
2.082e-08
2.166e-08
2.259e-08
2.361e-08
2.472e-08
2.592e-08
2.721e-08
2.859e-08
3.007e-08
3.165e-08
3.332e-08
3.509e-08
3.689e-08
3.971e-08
4.162e-52
-4.062e-51
3.151e-50
-2.314e-49
1.608e-48
-1.063e-47
6.739e-47
-4.125e-46
2.458e-45
-1.438e-44
8.314e-44
-4.785e-43
2.758e-42
-1.602e-41
9.421e-41
-5.646e-40
3.465e-39
-2.186e-38
1.421e-37
-9.518e-37
6.553e-36
-4.617e-35
3.32e-34
-2.384e-33
1.682e-32
-1.173e-31
8.085e-31
-5.498e-30
3.687e-29
-2.437e-28
1.585e-27
-1.013e-26
6.357e-26
-3.911e-25
2.356e-24
-1.387e-23
8.01e-23
-4.394e-22
2.509e-21
-1.043e-20
3.381e-19
6.257e-18
6.919e-17
6.749e-16
6.098e-15
5.101e-14
3.931e-13
2.776e-12
1.787e-11
1.044e-10
5.512e-10
2.618e-09
1.115e-08
4.254e-08
1.45e-07
4.412e-07
1.198e-06
2.903e-06
6.281e-06
1.215e-05
2.113e-05
3.307e-05
4.675e-05
5.972e-05
7.007e-05
7.745e-05
7.675e-05
7.307e-05
6.628e-05
5.742e-05
4.775e-05
3.832e-05
2.984e-05
2.265e-05
1.684e-05
1.231e-05
8.893e-06
6.369e-06
4.541e-06
3.236e-06
2.312e-06
1.662e-06
1.204e-06
8.823e-07
6.545e-07
4.923e-07
3.76e-07
2.918e-07
2.302e-07
1.847e-07
1.507e-07
1.251e-07
1.055e-07
9.047e-08
7.879e-08
6.966e-08
6.247e-08
5.68e-08
5.232e-08
4.878e-08
4.6e-08
4.385e-08
4.221e-08
4.1e-08
4.017e-08
3.966e-08
3.944e-08
3.952e-08
3.98e-08
4.03e-08
4.1e-08
4.189e-08
4.298e-08
4.426e-08
4.572e-08
4.736e-08
4.918e-08
5.118e-08
5.336e-08
5.573e-08
5.829e-08
6.103e-08
6.396e-08
6.708e-08
7.038e-08
7.389e-08
7.743e-08
8.302e-08
-1.726e-51
1.673e-50
-1.306e-49
9.772e-49
-6.991e-48
4.801e-47
-3.182e-46
2.05e-45
-1.292e-44
8.035e-44
-4.964e-43
3.066e-42
-1.902e-41
1.188e-40
-7.482e-40
4.749e-39
-3.035e-38
1.951e-37
-1.26e-36
8.176e-36
-5.33e-35
3.493e-34
-2.307e-33
1.521e-32
-9.955e-32
6.48e-31
-4.189e-30
2.687e-29
-1.708e-28
1.074e-27
-6.676e-27
4.095e-26
-2.476e-25
1.473e-24
-8.611e-24
4.95e-23
-2.738e-22
1.654e-21
-6.916e-21
2.197e-19
4.435e-18
5.358e-17
5.761e-16
5.762e-15
5.349e-14
4.585e-13
3.606e-12
2.587e-11
1.684e-10
9.884e-10
5.206e-09
2.45e-08
1.026e-07
3.812e-07
1.255e-06
3.654e-06
9.424e-06
2.159e-05
4.382e-05
7.928e-05
0.0001292
0.0001896
0.0002519
0.0003015
0.0003438
0.0003449
0.0003323
0.0003043
0.0002656
0.0002223
0.0001791
0.0001396
0.0001058
7.835e-05
5.686e-05
4.062e-05
2.867e-05
2.008e-05
1.402e-05
9.784e-06
6.854e-06
4.833e-06
3.44e-06
2.477e-06
1.808e-06
1.339e-06
1.008e-06
7.721e-07
6.015e-07
4.769e-07
3.849e-07
3.16e-07
2.64e-07
2.242e-07
1.936e-07
1.697e-07
1.51e-07
1.362e-07
1.246e-07
1.153e-07
1.081e-07
1.023e-07
9.792e-08
9.457e-08
9.214e-08
9.048e-08
8.948e-08
8.915e-08
8.94e-08
9.009e-08
9.124e-08
9.282e-08
9.482e-08
9.722e-08
1e-07
1.032e-07
1.068e-07
1.107e-07
1.15e-07
1.197e-07
1.247e-07
1.302e-07
1.36e-07
1.422e-07
1.487e-07
1.557e-07
1.627e-07
1.737e-07
5.425e-51
-5.275e-50
4.147e-49
-3.142e-48
2.285e-47
-1.597e-46
1.074e-45
-6.953e-45
4.344e-44
-2.625e-43
1.537e-42
-8.76e-42
4.877e-41
-2.669e-40
1.45e-39
-7.926e-39
4.441e-38
-2.606e-37
1.628e-36
-1.088e-35
7.709e-35
-5.677e-34
4.282e-33
-3.173e-32
2.282e-31
-1.6e-30
1.098e-29
-7.388e-29
4.88e-28
-3.168e-27
2.022e-26
-1.269e-25
7.833e-25
-4.753e-24
2.836e-23
-1.652e-22
9.925e-22
-3.643e-21
1.119e-19
2.482e-18
3.269e-17
3.858e-16
4.251e-15
4.361e-14
4.142e-13
3.618e-12
2.888e-11
2.092e-10
1.366e-09
7.991e-09
4.161e-08
1.918e-07
7.794e-07
2.779e-06
8.678e-06
2.371e-05
5.706e-05
0.0001213
0.0002271
0.0003787
0.0005725
0.0007846
0.0009752
0.001116
0.001188
0.001162
0.001085
0.0009655
0.0008247
0.0006784
0.0005388
0.0004148
0.0003109
0.0002277
0.0001634
0.0001154
8.052e-05
5.572e-05
3.841e-05
2.648e-05
1.833e-05
1.277e-05
8.987e-06
6.402e-06
4.624e-06
3.393e-06
2.531e-06
1.921e-06
1.485e-06
1.168e-06
9.358e-07
7.632e-07
6.335e-07
5.348e-07
4.589e-07
4.001e-07
3.541e-07
3.179e-07
2.892e-07
2.665e-07
2.485e-07
2.343e-07
2.231e-07
2.146e-07
2.082e-07
2.036e-07
2.006e-07
1.987e-07
1.987e-07
1.995e-07
2.013e-07
2.04e-07
2.077e-07
2.122e-07
2.175e-07
2.237e-07
2.306e-07
2.384e-07
2.468e-07
2.561e-07
2.661e-07
2.769e-07
2.884e-07
3.007e-07
3.137e-07
3.275e-07
3.413e-07
3.633e-07
-1.749e-50
1.573e-49
-1.196e-48
9.188e-48
-7.058e-47
5.387e-46
-4.062e-45
3.013e-44
-2.192e-43
1.564e-42
-1.094e-41
7.507e-41
-5.066e-40
3.367e-39
-2.208e-38
1.432e-37
-9.19e-37
5.849e-36
-3.696e-35
2.32e-34
-1.448e-33
8.985e-33
-5.544e-32
3.396e-31
-2.066e-30
1.247e-29
-7.48e-29
4.452e-28
-2.63e-27
1.541e-26
-8.961e-26
5.167e-25
-2.953e-24
1.674e-23
-9.368e-23
5.339e-22
-2.349e-21
3.351e-20
1.063e-18
1.567e-17
2.025e-16
2.445e-15
2.757e-14
2.889e-13
2.793e-12
2.473e-11
1.99e-10
1.445e-09
9.393e-09
5.423e-08
2.761e-07
1.231e-06
4.78e-06
1.607e-05
4.664e-05
0.000117
0.0002581
0.0005008
0.0008527
0.001294
0.001799
0.002305
0.00269
0.00296
0.002955
0.002854
0.002622
0.00231
0.001973
0.001629
0.001299
0.001005
0.0007568
0.0005564
0.0004004
0.000283
0.0001972
0.0001361
9.354e-05
6.423e-05
4.424e-05
3.068e-05
2.149e-05
1.523e-05
1.095e-05
8e-06
5.943e-06
4.493e-06
3.459e-06
2.712e-06
2.166e-06
1.761e-06
1.457e-06
1.226e-06
1.049e-06
9.121e-07
8.049e-07
7.205e-07
6.537e-07
6.007e-07
5.585e-07
5.251e-07
4.987e-07
4.782e-07
4.626e-07
4.511e-07
4.432e-07
4.383e-07
4.36e-07
4.369e-07
4.396e-07
4.442e-07
4.509e-07
4.593e-07
4.696e-07
4.815e-07
4.95e-07
5.102e-07
5.269e-07
5.452e-07
5.65e-07
5.864e-07
6.093e-07
6.336e-07
6.593e-07
6.867e-07
7.14e-07
7.575e-07
-5.905e-50
5.768e-49
-4.599e-48
3.567e-47
-2.678e-46
1.948e-45
-1.373e-44
9.411e-44
-6.282e-43
4.097e-42
-2.62e-41
1.648e-40
-1.025e-39
6.321e-39
-3.884e-38
2.386e-37
-1.471e-36
9.124e-36
-5.708e-35
3.605e-34
-2.3e-33
1.481e-32
-9.625e-32
6.229e-31
-3.997e-30
2.544e-29
-1.606e-28
1.007e-27
-6.261e-27
3.867e-26
-2.371e-25
1.443e-24
-8.723e-24
5.237e-23
-3.105e-22
1.917e-21
-7.221e-21
2.327e-19
5.719e-18
8.354e-17
1.1e-15
1.356e-14
1.559e-13
1.66e-12
1.624e-11
1.449e-10
1.169e-09
8.445e-09
5.416e-08
3.056e-07
1.504e-06
6.397e-06
2.336e-05
7.273e-05
0.0001923
0.0004352
0.0008657
0.001513
0.002353
0.003208
0.004064
0.005049
0.00554
0.005576
0.00548
0.005243
0.004807
0.0043
0.003749
0.003155
0.00256
0.002015
0.001545
0.001155
0.0008426
0.0006022
0.0004233
0.0002942
0.0002031
0.00014
9.668e-05
6.718e-05
4.711e-05
3.343e-05
2.406e-05
1.759e-05
1.307e-05
9.887e-06
7.616e-06
5.973e-06
4.771e-06
3.88e-06
3.211e-06
2.703e-06
2.312e-06
2.01e-06
1.773e-06
1.586e-06
1.438e-06
1.32e-06
1.226e-06
1.151e-06
1.092e-06
1.046e-06
1.01e-06
9.833e-07
9.642e-07
9.523e-07
9.442e-07
9.45e-07
9.489e-07
9.569e-07
9.69e-07
9.85e-07
1.005e-06
1.028e-06
1.054e-06
1.084e-06
1.117e-06
1.153e-06
1.192e-06
1.235e-06
1.28e-06
1.328e-06
1.379e-06
1.433e-06
1.487e-06
1.573e-06
1.379e-49
-1.266e-48
9.733e-48
-7.477e-47
5.692e-46
-4.28e-45
3.172e-44
-2.312e-43
1.656e-42
-1.164e-41
8.043e-41
-5.461e-40
3.648e-39
-2.401e-38
1.559e-37
-9.999e-37
6.344e-36
-3.987e-35
2.485e-34
-1.537e-33
9.447e-33
-5.772e-32
3.507e-31
-2.115e-30
1.269e-29
-7.569e-29
4.495e-28
-2.658e-27
1.566e-26
-9.193e-26
5.381e-25
-3.142e-24
1.832e-23
-1.063e-22
6.345e-22
-2.841e-21
5.174e-20
1.71e-18
2.739e-17
3.905e-16
5.227e-15
6.553e-14
7.644e-13
8.233e-12
8.117e-11
7.258e-10
5.828e-09
4.16e-08
2.611e-07
1.425e-06
6.697e-06
2.682e-05
9.074e-05
0.0002576
0.000611
0.001235
0.002184
0.003435
0.005059
0.006103
0.00701
0.009778
0.01038
0.01038
0.01036
0.01027
0.009304
0.007062
0.006043
0.00515
0.004274
0.003449
0.002714
0.002078
0.001548
0.001126
0.0008042
0.0005665
0.0003958
0.0002756
0.0001921
0.0001345
9.501e-05
6.786e-05
4.913e-05
3.611e-05
2.697e-05
2.05e-05
1.586e-05
1.249e-05
1.002e-05
8.175e-06
6.787e-06
5.729e-06
4.915e-06
4.281e-06
3.783e-06
3.39e-06
3.078e-06
2.828e-06
2.629e-06
2.47e-06
2.343e-06
2.243e-06
2.166e-06
2.107e-06
2.065e-06
2.038e-06
2.017e-06
2.017e-06
2.023e-06
2.037e-06
2.06e-06
2.09e-06
2.128e-06
2.173e-06
2.225e-06
2.284e-06
2.349e-06
2.421e-06
2.498e-06
2.582e-06
2.671e-06
2.767e-06
2.868e-06
2.974e-06
3.081e-06
3.251e-06
2.703e-49
-2.638e-48
2.118e-47
-1.664e-46
1.273e-45
-9.476e-45
6.868e-44
-4.852e-43
3.347e-42
-2.259e-41
1.496e-40
-9.742e-40
6.258e-39
-3.976e-38
2.505e-37
-1.57e-36
9.804e-36
-6.116e-35
3.818e-34
-2.388e-33
1.498e-32
-9.434e-32
5.956e-31
-3.748e-30
2.344e-29
-1.458e-28
9.03e-28
-5.572e-27
3.428e-26
-2.105e-25
1.29e-24
-7.905e-24
4.845e-23
-2.956e-22
1.902e-21
-7.066e-21
2.59e-19
6.928e-18
1.102e-16
1.595e-15
2.167e-14
2.753e-13
3.246e-12
3.522e-11
3.483e-10
3.106e-09
2.47e-08
1.73e-07
1.054e-06
5.518e-06
2.449e-05
9.119e-05
0.0002821
0.0007219
0.001528
0.002776
0.004274
0.006204
0.009453
0.01045
0.01054
0.01292
0.01139
0.01137
0.01088
0.01507
0.01034
0.01054
0.01035
0.009085
0.006704
0.005361
0.004286
0.003347
0.002543
0.001885
0.001371
0.0009827
0.000698
0.0004935
0.0003489
0.0002476
0.000177
0.0001279
9.358e-05
6.946e-05
5.238e-05
4.016e-05
3.133e-05
2.487e-05
2.008e-05
1.649e-05
1.378e-05
1.17e-05
1.008e-05
8.823e-06
7.83e-06
7.041e-06
6.412e-06
5.909e-06
5.504e-06
5.181e-06
4.922e-06
4.718e-06
4.559e-06
4.439e-06
4.35e-06
4.292e-06
4.253e-06
4.246e-06
4.256e-06
4.283e-06
4.327e-06
4.386e-06
4.461e-06
4.55e-06
4.653e-06
4.769e-06
4.898e-06
5.04e-06
5.193e-06
5.359e-06
5.536e-06
5.724e-06
5.923e-06
6.133e-06
6.342e-06
6.677e-06
-4.939e-49
4.539e-48
-3.491e-47
2.684e-46
-2.044e-45
1.538e-44
-1.141e-43
8.326e-43
-5.975e-42
4.214e-41
-2.92e-40
1.99e-39
-1.333e-38
8.792e-38
-5.714e-37
3.663e-36
-2.319e-35
1.451e-34
-8.989e-34
5.518e-33
-3.361e-32
2.033e-31
-1.221e-30
7.28e-30
-4.324e-29
2.561e-28
-1.514e-27
8.938e-27
-5.279e-26
3.121e-25
-1.849e-24
1.099e-23
-6.549e-23
4.022e-22
-1.867e-21
4.253e-20
1.453e-18
2.51e-17
3.898e-16
5.704e-15
7.844e-14
1.007e-12
1.196e-11
1.303e-10
1.287e-09
1.14e-08
8.938e-08
6.113e-07
3.593e-06
1.787e-05
7.42e-05
0.000254
0.0007113
0.001631
0.00311
0.005242
0.006848
0.01
0.01164
0.01136
0.01109
0.0101
0.009985
0.009982
0.009981
0.009984
0.01015
0.01147
0.01141
0.01025
0.01015
0.007676
0.006188
0.004942
0.003817
0.002876
0.002129
0.001555
0.001126
0.0008113
0.0005841
0.0004217
0.0003065
0.0002249
0.000167
0.0001257
9.603e-05
7.455e-05
5.883e-05
4.72e-05
3.851e-05
3.193e-05
2.691e-05
2.302e-05
2e-05
1.762e-05
1.573e-05
1.422e-05
1.301e-05
1.204e-05
1.126e-05
1.063e-05
1.013e-05
9.734e-06
9.424e-06
9.189e-06
9.017e-06
8.905e-06
8.828e-06
8.819e-06
8.841e-06
8.895e-06
8.983e-06
9.103e-06
9.253e-06
9.43e-06
9.635e-06
9.866e-06
1.012e-05
1.04e-05
1.071e-05
1.103e-05
1.138e-05
1.175e-05
1.214e-05
1.255e-05
1.296e-05
1.361e-05
-1.046e-48
9.863e-48
-7.742e-47
6.042e-46
-4.648e-45
3.517e-44
-2.614e-43
1.907e-42
-1.364e-41
9.569e-41
-6.59e-40
4.458e-39
-2.966e-38
1.942e-37
-1.254e-36
7.994e-36
-5.038e-35
3.142e-34
-1.943e-33
1.193e-32
-7.275e-32
4.415e-31
-2.67e-30
1.61e-29
-9.676e-29
5.805e-28
-3.481e-27
2.089e-26
-1.256e-25
7.581e-25
-4.597e-24
2.807e-23
-1.722e-22
1.104e-21
-5.035e-21
1.271e-19
4.421e-18
7.707e-17
1.21e-15
1.79e-14
2.485e-13
3.214e-12
3.836e-11
4.182e-10
4.118e-09
3.613e-08
2.782e-07
1.85e-06
1.043e-05
4.901e-05
0.0001886
0.000588
0.001479
0.003028
0.005395
0.009119
0.01056
0.01071
0.01078
0.009984
0.009978
0.009969
0.009969
0.009969
0.009969
0.009969
0.009969
0.009974
0.009981
0.01033
0.01081
0.01058
0.009639
0.007033
0.005355
0.004065
0.003056
0.002275
0.001681
0.001237
0.0009087
0.0006696
0.0004963
0.0003711
0.0002806
0.0002149
0.0001669
0.0001316
0.0001054
8.573e-05
7.085e-05
5.946e-05
5.067e-05
4.38e-05
3.841e-05
3.413e-05
3.071e-05
2.797e-05
2.576e-05
2.397e-05
2.253e-05
2.137e-05
2.044e-05
1.971e-05
1.914e-05
1.871e-05
1.84e-05
1.82e-05
1.806e-05
1.807e-05
1.813e-05