0.0125 	0.511155 	68.8971 	6.53177e-11 	0 	0 	0.0567233 	0 	0 	0.102121
0.0375 	0.525091 	68.8971 	7.50239e-11 	0 	0 	0.140115 	0 	0 	0.00479364
0.0625 	0.504781 	68.8971 	6.12955e-11 	0 	0 	0.164414 	0 	0 	0.000804822
0.0875 	0.493892 	68.897 	5.49698e-11 	0 	0 	0.17592 	8.54633e-22 	0 	0.000187905
0.1125 	0.493979 	68.897 	5.50178e-11 	0 	0 	0.175989 	1.53957e-05 	0 	1.67451e-05
0.1375 	0.495104 	68.897 	5.56416e-11 	0 	1.09322e-15 	0.174166 	0.000716868 	0 	1.36007e-05
0.1625 	0.163037 	68.897 	7.23034e-13 	0 	0.333792 	0.169971 	0.00319925 	0 	3.44298e-09
0.1875 	0.112365 	68.8959 	2.10443e-13 	0 	0.390589 	0.140491 	0.0265553 	0 	2.86686e-25
0.2125 	0.0816539 	68.8923 	7.54452e-14 	0 	0.402639 	0.058761 	0.126946 	0 	0
0.2375 	0.0672593 	68.8835 	4.08742e-14 	0 	0.409756 	0.0182003 	0.174784 	0 	0
0.2625 	0.0666894 	68.8708 	3.97953e-14 	0 	0.414024 	0.00621278 	0.183074 	0 	0
0.2875 	0.0683866 	68.8584 	4.30681e-14 	0 	0.418192 	0.00199107 	0.181431 	0 	0
0.3125 	0.0621827 	68.8448 	3.19512e-14 	0 	0.425048 	0.000664589 	0.182105 	0 	0
0.3375 	0.0611397 	68.8283 	3.03027e-14 	0 	0.431514 	0.000333666 	0.177013 	0 	0
0.3625 	0.0476976 	68.8051 	1.39847e-14 	0 	0.434048 	5.20818e-05 	0.120807 	0.0673951 	0
0.3875 	0.0324351 	68.749 	4.25991e-15 	0 	0.437102 	4.33668e-21 	0.0824557 	0.118007 	0
0.4125 	0.0326774 	68.63 	4.35828e-15 	0 	0.439589 	0 	0.0658211 	0.131912 	0
0.4375 	0.0256027 	68.4704 	2.06584e-15 	0 	0.442854 	0 	0.0557103 	0.145833 	0
0.4625 	0.0050234 	67.9777 	1.49652e-17 	0 	0.450257 	1.0254e-17 	0.0519339 	0.162786 	0
0.4875 	0.001 	0.00569509 	1.17107e-19 	1.36402e-16 	0.453095 	0.00153295 	0.0506461 	0.163726 	0
0.5125 	0.138448 	0.00324159 	4.17841e-13 	0.06143 	0.324543 	0 	0.0501688 	0.0954099 	0
0.5375 	0.246312 	0.00294805 	3.07459e-12 	0.165466 	0.146812 	0 	0.050032 	0.061378 	0
0.5625 	0.269575 	0.00280887 	4.29143e-12 	0.181795 	0.111158 	0 	0.0500075 	0.0574642 	0
0.5875 	0.281851 	0.00269941 	5.07391e-12 	0.1906 	0.0926364 	0 	0.0500018 	0.0549108 	0
0.6125 	0.291913 	0.00260512 	5.79832e-12 	0.19728 	0.0776742 	0 	0.0500005 	0.0531323 	0
0.6375 	0.30074 	0.00252177 	6.50143e-12 	0.202428 	0.06487 	0 	0.0500001 	0.0519625 	0
0.6625 	0.308457 	0.00244679 	7.17228e-12 	0.206348 	0.0539705 	0 	0.0500001 	0.0512252 	0
0.6875 	0.315131 	0.00237831 	7.7978e-12 	0.20931 	0.0447852 	0 	0.05 	0.0507736 	0
0.7125 	0.320843 	0.0023149 	8.36855e-12 	0.21155 	0.0371072 	0 	0.05 	0.0505004 	0
0.7375 	0.325687 	0.00225546 	8.87955e-12 	0.213253 	0.0307258 	0 	0.05 	0.050335 	0
0.7625 	0.329764 	0.00219916 	9.32976e-12 	0.214561 	0.0254417 	0 	0.05 	0.0502331 	0
0.7875 	0.333177 	0.00214535 	9.72118e-12 	0.215579 	0.0210757 	0 	0.05 	0.0501687 	0
0.8125 	0.336022 	0.00209352 	1.00579e-11 	0.21638 	0.017472 	0 	0.05 	0.0501263 	0
0.8375 	0.338385 	0.00204327 	1.03452e-11 	0.217019 	0.0144983 	0 	0.05 	0.0500971 	0
0.8625 	0.340346 	0.0019943 	1.05887e-11 	0.217534 	0.0120437 	0 	0.05 	0.0500764 	0
0.8875 	0.341971 	0.00194636 	1.07942e-11 	0.217953 	0.0100156 	0 	0.05 	0.050061 	0
0.9125 	0.343317 	0.00189925 	1.0967e-11 	0.218296 	0.00833805 	0 	0.05 	0.0500494 	0
0.9375 	0.344433 	0.00185281 	1.11121e-11 	0.218578 	0.00694895 	0 	0.05 	0.0500403 	0
0.9625 	0.345358 	0.00180694 	1.12336e-11 	0.218811 	0.00579757 	0 	0.05 	0.0500331 	0
0.9875 	0.346127 	0.00176151 	1.13353e-11 	0.219005 	0.00484164 	0 	0.05 	0.0500273 	0
1.0125 	0.346765 	0.00171646 	1.14204e-11 	0.219166 	0.00404702 	0 	0.05 	0.0500226 	0
1.0375 	0.347296 	0.00167172 	1.14916e-11 	0.2193 	0.00338561 	0 	0.05 	0.0500187 	0
1.0625 	0.347738 	0.00162723 	1.15512e-11 	0.219412 	0.00283479 	0 	0.05 	0.0500156 	0
1.0875 	0.348106 	0.00158295 	1.1601e-11 	0.219506 	0.00237525 	0 	0.05 	0.050013 	0
1.1125 	0.348414 	0.00153884 	1.16428e-11 	0.219584 	0.0019915 	0 	0.05 	0.0500109 	0
1.1375 	0.34867 	0.00149488 	1.16777e-11 	0.21965 	0.00167097 	0 	0.05 	0.0500091 	0
1.1625 	0.348885 	0.00145104 	1.1707e-11 	0.219705 	0.00140288 	0 	0.05 	0.0500076 	0
1.1875 	0.349065 	0.0014073 	1.17316e-11 	0.219751 	0.00117829 	0 	0.05 	0.0500064 	0
1.2125 	0.349215 	0.00136365 	1.17521e-11 	0.21979 	0.00099039 	0 	0.05 	0.0500054 	0
1.2375 	0.349341 	0.00132006 	1.17694e-11 	0.219822 	0.000832548 	0 	0.05 	0.0500045 	0
1.2625 	0.349446 	0.00127654 	1.17839e-11 	0.219849 	0.000700615 	0 	0.05 	0.0500037 	0
1.2875 	0.349535 	0.00123306 	1.1796e-11 	0.219872 	0.000589879 	0 	0.05 	0.0500032 	0
1.3125 	0.349609 	0.00118963 	1.18063e-11 	0.219892 	0.000496408 	0 	0.05 	0.0500026 	0
1.3375 	0.349671 	0.00114623 	1.18149e-11 	0.219908 	0.000418448 	0 	0.05 	0.0500023 	0
1.3625 	0.349724 	0.00110285 	1.18221e-11 	0.219922 	0.000352626 	0 	0.05 	0.0500019 	0
1.3875 	0.349768 	0.00105951 	1.18282e-11 	0.219933 	0.000297295 	0 	0.05 	0.0500016 	0
1.4125 	0.349805 	0.00101618 	1.18333e-11 	0.219943 	0.000250531 	0 	0.05 	0.0500013 	0
1.4375 	0.349837 	0.000972872 	1.18377e-11 	0.219951 	0.000211298 	0 	0.05 	0.0500011 	0
1.4625 	0.349863 	0.000929577 	1.18412e-11 	0.219958 	0.000178526 	0 	0.05 	0.050001 	0
1.4875 	0.349885 	0.000886294 	1.18443e-11 	0.219964 	0.000150757 	0 	0.05 	0.0500008 	0
1.5125 	0.349903 	0.000843022 	1.18469e-11 	0.219969 	0.000127345 	0 	0.05 	0.0500006 	0
1.5375 	0.349919 	0.000799758 	1.1849e-11 	0.219973 	0.000107673 	0 	0.05 	0.0500006 	0
1.5625 	0.349932 	0.000756501 	1.18509e-11 	0.219976 	9.1028e-05 	0 	0.05 	0.0500005 	0
1.5875 	0.349944 	0.000713251 	1.18524e-11 	0.219979 	7.69218e-05 	0 	0.05 	0.0500004 	0
1.6125 	0.349953 	0.000670006 	1.18537e-11 	0.219982 	6.51535e-05 	0 	0.05 	0.0500004 	0
1.6375 	0.349961 	0.000626765 	1.18548e-11 	0.219984 	5.50798e-05 	0 	0.05 	0.0500002 	0
1.6625 	0.349968 	0.000583528 	1.18557e-11 	0.219986 	4.66454e-05 	0 	0.05 	0.0500002 	0
1.6875 	0.349973 	0.000540294 	1.18565e-11 	0.219987 	3.95682e-05 	0 	0.05 	0.0500003 	0
1.7125 	0.349978 	0.000497063 	1.18572e-11 	0.219988 	3.34543e-05 	0 	0.05 	0.0500001 	0
1.7375 	0.349982 	0.000453834 	1.18577e-11 	0.219989 	2.83608e-05 	0 	0.05 	0.0500001 	0
1.7625 	0.349985 	0.000410606 	1.18582e-11 	0.21999 	2.4041e-05 	0 	0.05 	0.0500001 	0
1.7875 	0.349988 	0.000367381 	1.18586e-11 	0.219991 	2.0399e-05 	0 	0.05 	0.0500001 	0
1.8125 	0.349991 	0.000324156 	1.18589e-11 	0.219992 	1.7303e-05 	0 	0.05 	0.0500001 	0
1.8375 	0.349993 	0.000280933 	1.18592e-11 	0.219992 	1.47013e-05 	0 	0.05 	0.0500001 	0
1.8625 	0.349995 	0.000237711 	1.18594e-11 	0.219993 	1.24856e-05 	0 	0.05 	0.05 	0
1.8875 	0.349996 	0.00019449 	1.18596e-11 	0.219993 	1.06237e-05 	0 	0.05 	0.0500001 	0
1.9125 	0.349997 	0.000151269 	1.18598e-11 	0.219994 	9.02016e-06 	0 	0.05 	0.05 	0
1.9375 	0.349998 	0.000108049 	1.186e-11 	0.219994 	7.67217e-06 	0 	0.05 	0.05 	0
1.9625 	0.349999 	6.48289e-05 	1.18601e-11 	0.219994 	6.52731e-06 	0 	0.05 	0.05 	0
1.9875 	0.35 	2.16096e-05 	1.18602e-11 	0.219995 	5.57149e-06 	0 	0.05 	0.05 	0
