/*--------------------------------*- C++ -*----------------------------------*\
  =========                 |
  \\      /  F ield         | OpenFOAM: The Open Source CFD Toolbox
   \\    /   O peration     | Website:  https://openfoam.org
    \\  /    A nd           | Version:  7
     \\/     M anipulation  |
\*---------------------------------------------------------------------------*/
FoamFile
{
    version     2.0;
    format      ascii;
    class       volScalarField;
    location    "719.999473410875453";
    object      p;
}
// * * * * * * * * * * * * * * * * * * * * * * * * * * * * * * * * * * * * * //

dimensions      [0 2 -2 0 0 0 0];

internalField   nonuniform List<scalar> 
4096
(
0.0006454
0.0004745
0.0003902
0.0003481
0.0003247
0.0003108
0.0003019
0.0002959
0.0002915
0.0002882
0.0002857
0.0002837
0.000282
0.0002807
0.0002795
0.0002785
0.0002776
0.0002768
0.0002761
0.0002755
0.0002749
0.0002743
0.0002738
0.0002732
0.0002727
0.0002722
0.0002717
0.0002712
0.0002707
0.0002702
0.0002697
0.0002691
0.0002686
0.0002679
0.0002673
0.0002666
0.0002658
0.0002649
0.000264
0.0002629
0.0002617
0.0002603
0.0002588
0.0002571
0.0002551
0.0002529
0.0002503
0.0002475
0.0002443
0.0002408
0.0002368
0.0002324
0.0002276
0.0002223
0.0002165
0.0002103
0.0002036
0.0001965
0.0001889
0.000181
0.0001728
0.0001644
0.0001558
0.000147
0.0001383
0.0001296
0.000121
0.0001127
0.0001046
9.678e-05
8.936e-05
8.232e-05
7.57e-05
6.951e-05
6.376e-05
5.845e-05
5.357e-05
4.912e-05
4.507e-05
4.14e-05
3.811e-05
3.515e-05
3.25e-05
3.015e-05
2.805e-05
2.619e-05
2.454e-05
2.307e-05
2.177e-05
2.061e-05
1.957e-05
1.863e-05
1.778e-05
1.701e-05
1.63e-05
1.565e-05
1.504e-05
1.446e-05
1.391e-05
1.339e-05
1.288e-05
1.239e-05
1.191e-05
1.143e-05
1.096e-05
1.05e-05
1.003e-05
9.567e-06
9.103e-06
8.638e-06
8.17e-06
7.701e-06
7.229e-06
6.754e-06
6.275e-06
5.793e-06
5.308e-06
4.819e-06
4.326e-06
3.83e-06
3.33e-06
2.828e-06
2.324e-06
1.822e-06
1.324e-06
8.386e-07
3.824e-07
4.963e-08
0.0005009
0.0004372
0.0003874
0.0003554
0.0003344
0.0003202
0.0003101
0.0003028
0.0002973
0.0002931
0.0002898
0.0002871
0.0002849
0.0002831
0.0002816
0.0002802
0.0002791
0.0002781
0.0002771
0.0002763
0.0002755
0.0002748
0.0002741
0.0002734
0.0002728
0.0002721
0.0002715
0.0002709
0.0002703
0.0002696
0.000269
0.0002683
0.0002676
0.0002668
0.000266
0.0002651
0.0002642
0.0002632
0.0002621
0.0002608
0.0002595
0.0002579
0.0002562
0.0002544
0.0002522
0.0002499
0.0002472
0.0002443
0.000241
0.0002374
0.0002334
0.000229
0.0002242
0.000219
0.0002134
0.0002073
0.0002008
0.000194
0.0001867
0.0001792
0.0001713
0.0001633
0.0001551
0.0001468
0.0001385
0.0001302
0.0001221
0.0001141
0.0001064
9.891e-05
9.177e-05
8.499e-05
7.858e-05
7.255e-05
6.693e-05
6.17e-05
5.687e-05
5.243e-05
4.837e-05
4.466e-05
4.13e-05
3.825e-05
3.55e-05
3.303e-05
3.081e-05
2.881e-05
2.702e-05
2.541e-05
2.396e-05
2.265e-05
2.147e-05
2.04e-05
1.942e-05
1.853e-05
1.77e-05
1.693e-05
1.621e-05
1.553e-05
1.489e-05
1.428e-05
1.369e-05
1.312e-05
1.257e-05
1.203e-05
1.15e-05
1.098e-05
1.047e-05
9.958e-06
9.453e-06
8.951e-06
8.451e-06
7.951e-06
7.452e-06
6.953e-06
6.454e-06
5.953e-06
5.451e-06
4.948e-06
4.443e-06
3.937e-06
3.429e-06
2.922e-06
2.414e-06
1.909e-06
1.41e-06
9.205e-07
4.505e-07
7.78e-08
0.0004174
0.0003958
0.0003703
0.0003496
0.000334
0.0003223
0.0003134
0.0003063
0.0003008
0.0002963
0.0002927
0.0002897
0.0002872
0.0002851
0.0002833
0.0002817
0.0002803
0.0002791
0.000278
0.000277
0.0002761
0.0002752
0.0002743
0.0002735
0.0002728
0.000272
0.0002713
0.0002705
0.0002698
0.000269
0.0002682
0.0002674
0.0002666
0.0002657
0.0002648
0.0002638
0.0002627
0.0002615
0.0002603
0.0002589
0.0002574
0.0002557
0.0002539
0.0002519
0.0002496
0.0002471
0.0002444
0.0002414
0.000238
0.0002344
0.0002304
0.000226
0.0002213
0.0002161
0.0002106
0.0002047
0.0001984
0.0001918
0.0001848
0.0001776
0.00017
0.0001623
0.0001545
0.0001466
0.0001386
0.0001307
0.0001229
0.0001153
0.0001079
0.0001007
9.386e-05
8.731e-05
8.109e-05
7.523e-05
6.973e-05
6.459e-05
5.982e-05
5.54e-05
5.134e-05
4.761e-05
4.42e-05
4.108e-05
3.825e-05
3.569e-05
3.336e-05
3.125e-05
2.933e-05
2.76e-05
2.603e-05
2.46e-05
2.329e-05
2.21e-05
2.1e-05
1.999e-05
1.905e-05
1.817e-05
1.735e-05
1.658e-05
1.585e-05
1.515e-05
1.449e-05
1.385e-05
1.323e-05
1.263e-05
1.204e-05
1.147e-05
1.091e-05
1.035e-05
9.808e-06
9.27e-06
8.737e-06
8.208e-06
7.682e-06
7.159e-06
6.637e-06
6.118e-06
5.599e-06
5.081e-06
4.564e-06
4.047e-06
3.53e-06
3.014e-06
2.5e-06
1.988e-06
1.48e-06
9.783e-07
4.863e-07
8.228e-08
0.0003727
0.0003656
0.0003523
0.0003391
0.0003282
0.0003195
0.0003124
0.0003065
0.0003016
0.0002975
0.000294
0.0002911
0.0002885
0.0002863
0.0002844
0.0002827
0.0002812
0.0002799
0.0002786
0.0002775
0.0002765
0.0002755
0.0002745
0.0002736
0.0002728
0.0002719
0.0002711
0.0002702
0.0002694
0.0002685
0.0002676
0.0002667
0.0002657
0.0002647
0.0002637
0.0002626
0.0002614
0.0002601
0.0002587
0.0002572
0.0002556
0.0002538
0.0002519
0.0002498
0.0002474
0.0002449
0.0002421
0.000239
0.0002356
0.0002319
0.0002279
0.0002236
0.0002189
0.0002138
0.0002084
0.0002026
0.0001965
0.0001901
0.0001833
0.0001763
0.000169
0.0001616
0.000154
0.0001464
0.0001387
0.0001311
0.0001236
0.0001162
0.0001091
0.0001021
9.548e-05
8.911e-05
8.305e-05
7.733e-05
7.193e-05
6.688e-05
6.217e-05
5.779e-05
5.374e-05
5e-05
4.656e-05
4.341e-05
4.053e-05
3.79e-05
3.549e-05
3.33e-05
3.13e-05
2.947e-05
2.78e-05
2.627e-05
2.487e-05
2.357e-05
2.238e-05
2.127e-05
2.024e-05
1.928e-05
1.837e-05
1.752e-05
1.671e-05
1.594e-05
1.521e-05
1.451e-05
1.383e-05
1.317e-05
1.254e-05
1.192e-05
1.131e-05
1.072e-05
1.014e-05
9.567e-06
9.004e-06
8.447e-06
7.897e-06
7.352e-06
6.811e-06
6.274e-06
5.739e-06
5.207e-06
4.678e-06
4.149e-06
3.623e-06
3.098e-06
2.574e-06
2.052e-06
1.532e-06
1.016e-06
5.026e-07
7.861e-08
0.0003458
0.0003448
0.0003378
0.0003292
0.0003215
0.0003149
0.0003094
0.0003047
0.0003007
0.0002971
0.000294
0.0002913
0.000289
0.0002868
0.0002849
0.0002832
0.0002817
0.0002803
0.000279
0.0002778
0.0002767
0.0002756
0.0002746
0.0002736
0.0002727
0.0002718
0.0002708
0.0002699
0.000269
0.000268
0.000267
0.000266
0.000265
0.0002639
0.0002628
0.0002616
0.0002603
0.0002589
0.0002574
0.0002559
0.0002541
0.0002523
0.0002503
0.0002481
0.0002457
0.0002431
0.0002402
0.0002371
0.0002337
0.00023
0.000226
0.0002217
0.0002171
0.0002121
0.0002068
0.0002011
0.0001951
0.0001888
0.0001822
0.0001753
0.0001682
0.000161
0.0001536
0.0001462
0.0001387
0.0001313
0.000124
0.0001169
0.0001099
0.0001032
9.668e-05
9.046e-05
8.454e-05
7.893e-05
7.363e-05
6.865e-05
6.399e-05
5.965e-05
5.562e-05
5.189e-05
4.845e-05
4.528e-05
4.236e-05
3.969e-05
3.723e-05
3.498e-05
3.292e-05
3.102e-05
2.928e-05
2.768e-05
2.62e-05
2.483e-05
2.355e-05
2.237e-05
2.127e-05
2.023e-05
1.926e-05
1.834e-05
1.747e-05
1.664e-05
1.585e-05
1.509e-05
1.436e-05
1.366e-05
1.298e-05
1.232e-05
1.167e-05
1.105e-05
1.043e-05
9.834e-06
9.245e-06
8.664e-06
8.092e-06
7.527e-06
6.969e-06
6.415e-06
5.867e-06
5.322e-06
4.78e-06
4.241e-06
3.705e-06
3.17e-06
2.637e-06
2.104e-06
1.573e-06
1.043e-06
5.125e-07
7.441e-08
0.0003284
0.0003299
0.0003266
0.0003209
0.0003152
0.0003102
0.0003058
0.0003021
0.0002988
0.0002959
0.0002932
0.0002909
0.0002887
0.0002868
0.000285
0.0002834
0.0002819
0.0002805
0.0002792
0.0002779
0.0002768
0.0002757
0.0002746
0.0002736
0.0002726
0.0002716
0.0002706
0.0002696
0.0002686
0.0002676
0.0002666
0.0002655
0.0002644
0.0002632
0.000262
0.0002607
0.0002594
0.0002579
0.0002564
0.0002548
0.000253
0.0002511
0.000249
0.0002467
0.0002443
0.0002417
0.0002388
0.0002357
0.0002323
0.0002286
0.0002246
0.0002203
0.0002157
0.0002108
0.0002055
0.0001999
0.000194
0.0001878
0.0001813
0.0001746
0.0001677
0.0001605
0.0001533
0.000146
0.0001387
0.0001315
0.0001243
0.0001173
0.0001105
0.0001039
9.752e-05
9.142e-05
8.561e-05
8.008e-05
7.486e-05
6.994e-05
6.534e-05
6.103e-05
5.703e-05
5.331e-05
4.987e-05
4.67e-05
4.377e-05
4.107e-05
3.859e-05
3.631e-05
3.42e-05
3.226e-05
3.047e-05
2.881e-05
2.728e-05
2.585e-05
2.452e-05
2.328e-05
2.212e-05
2.103e-05
2e-05
1.903e-05
1.81e-05
1.722e-05
1.639e-05
1.558e-05
1.481e-05
1.407e-05
1.335e-05
1.266e-05
1.199e-05
1.133e-05
1.069e-05
1.007e-05
9.453e-06
8.853e-06
8.262e-06
7.68e-06
7.106e-06
6.539e-06
5.977e-06
5.421e-06
4.869e-06
4.321e-06
3.775e-06
3.232e-06
2.689e-06
2.148e-06
1.607e-06
1.065e-06
5.205e-07
7.138e-08
0.0003165
0.000319
0.0003177
0.000314
0.0003098
0.0003059
0.0003024
0.0002993
0.0002966
0.0002942
0.0002919
0.0002899
0.000288
0.0002863
0.0002846
0.0002831
0.0002817
0.0002804
0.0002791
0.0002779
0.0002767
0.0002756
0.0002745
0.0002735
0.0002725
0.0002714
0.0002704
0.0002694
0.0002683
0.0002673
0.0002662
0.000265
0.0002639
0.0002627
0.0002614
0.0002601
0.0002587
0.0002572
0.0002556
0.0002539
0.0002521
0.0002501
0.000248
0.0002458
0.0002433
0.0002407
0.0002378
0.0002346
0.0002313
0.0002276
0.0002236
0.0002194
0.0002148
0.0002099
0.0002047
0.0001992
0.0001933
0.0001872
0.0001808
0.0001741
0.0001672
0.0001602
0.0001531
0.0001459
0.0001386
0.0001315
0.0001244
0.0001175
0.0001108
0.0001043
9.804e-05
9.203e-05
8.629e-05
8.083e-05
7.567e-05
7.08e-05
6.624e-05
6.197e-05
5.799e-05
5.43e-05
5.087e-05
4.771e-05
4.478e-05
4.208e-05
3.959e-05
3.729e-05
3.516e-05
3.319e-05
3.137e-05
2.968e-05
2.811e-05
2.665e-05
2.528e-05
2.4e-05
2.279e-05
2.166e-05
2.059e-05
1.958e-05
1.861e-05
1.77e-05
1.682e-05
1.599e-05
1.518e-05
1.441e-05
1.366e-05
1.294e-05
1.224e-05
1.156e-05
1.09e-05
1.026e-05
9.625e-06
9.007e-06
8.401e-06
7.806e-06
7.219e-06
6.64e-06
6.069e-06
5.503e-06
4.943e-06
4.386e-06
3.833e-06
3.282e-06
2.733e-06
2.184e-06
1.635e-06
1.084e-06
5.282e-07
7.014e-08
0.0003079
0.0003106
0.0003105
0.0003083
0.0003052
0.0003021
0.0002992
0.0002967
0.0002944
0.0002923
0.0002904
0.0002887
0.000287
0.0002855
0.000284
0.0002827
0.0002813
0.0002801
0.0002789
0.0002777
0.0002766
0.0002755
0.0002744
0.0002733
0.0002723
0.0002712
0.0002702
0.0002691
0.0002681
0.000267
0.0002659
0.0002647
0.0002635
0.0002623
0.000261
0.0002596
0.0002582
0.0002567
0.0002551
0.0002533
0.0002515
0.0002495
0.0002474
0.0002451
0.0002427
0.00024
0.0002371
0.000234
0.0002307
0.000227
0.0002231
0.0002188
0.0002143
0.0002094
0.0002042
0.0001987
0.0001929
0.0001868
0.0001804
0.0001738
0.000167
0.00016
0.0001529
0.0001457
0.0001385
0.0001314
0.0001244
0.0001176
0.0001109
0.0001045
9.826e-05
9.231e-05
8.661e-05
8.12e-05
7.608e-05
7.125e-05
6.672e-05
6.248e-05
5.853e-05
5.487e-05
5.146e-05
4.832e-05
4.541e-05
4.272e-05
4.023e-05
3.793e-05
3.58e-05
3.383e-05
3.2e-05
3.029e-05
2.87e-05
2.722e-05
2.582e-05
2.452e-05
2.329e-05
2.213e-05
2.103e-05
1.999e-05
1.9e-05
1.805e-05
1.715e-05
1.629e-05
1.546e-05
1.466e-05
1.39e-05
1.315e-05
1.244e-05
1.174e-05
1.106e-05
1.04e-05
9.756e-06
9.125e-06
8.508e-06
7.901e-06
7.305e-06
6.718e-06
6.138e-06
5.566e-06
4.999e-06
4.436e-06
3.878e-06
3.322e-06
2.767e-06
2.213e-06
1.658e-06
1.1e-06
5.363e-07
7.098e-08
0.0003014
0.0003041
0.0003047
0.0003034
0.0003013
0.0002988
0.0002965
0.0002943
0.0002923
0.0002905
0.0002889
0.0002874
0.000286
0.0002846
0.0002833
0.000282
0.0002808
0.0002797
0.0002785
0.0002774
0.0002763
0.0002753
0.0002742
0.0002732
0.0002721
0.0002711
0.00027
0.000269
0.0002679
0.0002668
0.0002656
0.0002645
0.0002633
0.000262
0.0002607
0.0002593
0.0002579
0.0002564
0.0002547
0.000253
0.0002512
0.0002492
0.0002471
0.0002448
0.0002424
0.0002397
0.0002369
0.0002338
0.0002305
0.0002268
0.0002229
0.0002187
0.0002142
0.0002093
0.0002041
0.0001986
0.0001928
0.0001867
0.0001803
0.0001737
0.0001669
0.0001598
0.0001527
0.0001455
0.0001384
0.0001313
0.0001243
0.0001174
0.0001108
0.0001044
9.82e-05
9.226e-05
8.659e-05
8.12e-05
7.61e-05
7.13e-05
6.679e-05
6.258e-05
5.866e-05
5.502e-05
5.165e-05
4.854e-05
4.566e-05
4.299e-05
4.053e-05
3.825e-05
3.614e-05
3.417e-05
3.235e-05
3.064e-05
2.905e-05
2.756e-05
2.616e-05
2.484e-05
2.36e-05
2.242e-05
2.131e-05
2.025e-05
1.925e-05
1.829e-05
1.737e-05
1.649e-05
1.565e-05
1.483e-05
1.405e-05
1.33e-05
1.257e-05
1.186e-05
1.117e-05
1.05e-05
9.843e-06
9.204e-06
8.578e-06
7.965e-06
7.362e-06
6.77e-06
6.185e-06
5.608e-06
5.037e-06
4.471e-06
3.909e-06
3.349e-06
2.792e-06
2.234e-06
1.676e-06
1.114e-06
5.453e-07
7.413e-08
0.0002963
0.0002989
0.0002998
0.0002993
0.0002978
0.0002959
0.000294
0.0002922
0.0002905
0.0002889
0.0002875
0.0002861
0.0002849
0.0002836
0.0002825
0.0002814
0.0002802
0.0002792
0.0002781
0.0002771
0.000276
0.000275
0.000274
0.000273
0.000272
0.0002709
0.0002699
0.0002688
0.0002678
0.0002667
0.0002655
0.0002644
0.0002631
0.0002619
0.0002606
0.0002592
0.0002578
0.0002563
0.0002546
0.0002529
0.0002511
0.0002492
0.0002471
0.0002449
0.0002424
0.0002398
0.000237
0.000234
0.0002306
0.0002271
0.0002232
0.000219
0.0002145
0.0002096
0.0002044
0.0001989
0.000193
0.0001869
0.0001805
0.0001738
0.0001669
0.0001598
0.0001526
0.0001454
0.0001381
0.000131
0.000124
0.0001171
0.0001105
0.000104
9.783e-05
9.189e-05
8.622e-05
8.083e-05
7.573e-05
7.093e-05
6.645e-05
6.226e-05
5.838e-05
5.478e-05
5.145e-05
4.838e-05
4.554e-05
4.292e-05
4.05e-05
3.825e-05
3.617e-05
3.423e-05
3.243e-05
3.074e-05
2.917e-05
2.768e-05
2.629e-05
2.498e-05
2.373e-05
2.256e-05
2.144e-05
2.038e-05
1.937e-05
1.84e-05
1.748e-05
1.659e-05
1.574e-05
1.492e-05
1.413e-05
1.337e-05
1.263e-05
1.191e-05
1.122e-05
1.054e-05
9.884e-06
9.241e-06
8.612e-06
7.995e-06
7.39e-06
6.794e-06
6.208e-06
5.629e-06
5.056e-06
4.489e-06
3.926e-06
3.366e-06
2.807e-06
2.249e-06
1.689e-06
1.126e-06
5.555e-07
7.971e-08
0.0002923
0.0002946
0.0002958
0.0002957
0.0002948
0.0002934
0.0002918
0.0002903
0.0002888
0.0002874
0.0002861
0.0002849
0.0002838
0.0002827
0.0002817
0.0002806
0.0002796
0.0002786
0.0002777
0.0002767
0.0002757
0.0002747
0.0002738
0.0002728
0.0002718
0.0002708
0.0002698
0.0002688
0.0002677
0.0002666
0.0002655
0.0002643
0.0002632
0.0002619
0.0002606
0.0002593
0.0002579
0.0002564
0.0002548
0.0002531
0.0002513
0.0002494
0.0002474
0.0002452
0.0002428
0.0002403
0.0002375
0.0002345
0.0002312
0.0002277
0.0002238
0.0002197
0.0002151
0.0002103
0.0002051
0.0001995
0.0001936
0.0001874
0.0001809
0.0001741
0.0001671
0.0001599
0.0001526
0.0001452
0.0001379
0.0001306
0.0001235
0.0001166
0.0001099
0.0001034
9.716e-05
9.118e-05
8.547e-05
8.005e-05
7.494e-05
7.015e-05
6.568e-05
6.152e-05
5.767e-05
5.412e-05
5.085e-05
4.783e-05
4.506e-05
4.25e-05
4.013e-05
3.794e-05
3.591e-05
3.402e-05
3.225e-05
3.06e-05
2.905e-05
2.76e-05
2.622e-05
2.492e-05
2.37e-05
2.253e-05
2.142e-05
2.036e-05
1.936e-05
1.839e-05
1.747e-05
1.659e-05
1.574e-05
1.492e-05
1.413e-05
1.336e-05
1.263e-05
1.191e-05
1.122e-05
1.054e-05
9.88e-06
9.237e-06
8.608e-06
7.991e-06
7.386e-06
6.792e-06
6.206e-06
5.628e-06
5.056e-06
4.491e-06
3.929e-06
3.371e-06
2.814e-06
2.257e-06
1.699e-06
1.136e-06
5.67e-07
8.784e-08
0.000289
0.0002912
0.0002924
0.0002927
0.0002921
0.0002911
0.0002899
0.0002886
0.0002873
0.0002861
0.0002849
0.0002838
0.0002828
0.0002818
0.0002809
0.00028
0.000279
0.0002781
0.0002772
0.0002763
0.0002754
0.0002745
0.0002736
0.0002726
0.0002717
0.0002707
0.0002697
0.0002687
0.0002677
0.0002667
0.0002656
0.0002644
0.0002633
0.0002621
0.0002608
0.0002595
0.0002581
0.0002567
0.0002551
0.0002535
0.0002518
0.0002499
0.000248
0.0002458
0.0002435
0.0002411
0.0002384
0.0002354
0.0002322
0.0002288
0.0002249
0.0002208
0.0002163
0.0002114
0.0002062
0.0002005
0.0001945
0.0001882
0.0001815
0.0001746
0.0001675
0.0001601
0.0001526
0.0001451
0.0001376
0.0001301
0.0001229
0.0001159
0.000109
0.0001025
9.614e-05
9.008e-05
8.431e-05
7.885e-05
7.371e-05
6.891e-05
6.446e-05
6.033e-05
5.654e-05
5.305e-05
4.985e-05
4.691e-05
4.422e-05
4.173e-05
3.945e-05
3.733e-05
3.536e-05
3.353e-05
3.183e-05
3.022e-05
2.872e-05
2.73e-05
2.596e-05
2.469e-05
2.349e-05
2.235e-05
2.126e-05
2.022e-05
1.922e-05
1.827e-05
1.736e-05
1.649e-05
1.564e-05
1.483e-05
1.405e-05
1.329e-05
1.256e-05
1.185e-05
1.116e-05
1.049e-05
9.831e-06
9.192e-06
8.567e-06
7.954e-06
7.353e-06
6.762e-06
6.18e-06
5.606e-06
5.038e-06
4.476e-06
3.918e-06
3.364e-06
2.811e-06
2.258e-06
1.704e-06
1.145e-06
5.8e-07
9.854e-08
0.0002862
0.0002883
0.0002896
0.00029
0.0002898
0.0002891
0.0002881
0.000287
0.0002859
0.0002849
0.0002839
0.0002829
0.0002819
0.0002811
0.0002802
0.0002793
0.0002785
0.0002777
0.0002768
0.000276
0.0002751
0.0002743
0.0002734
0.0002725
0.0002716
0.0002707
0.0002697
0.0002688
0.0002678
0.0002668
0.0002657
0.0002647
0.0002635
0.0002624
0.0002612
0.0002599
0.0002586
0.0002572
0.0002557
0.0002541
0.0002525
0.0002507
0.0002488
0.0002468
0.0002446
0.0002422
0.0002396
0.0002368
0.0002337
0.0002303
0.0002265
0.0002224
0.0002179
0.0002131
0.0002078
0.000202
0.0001959
0.0001894
0.0001826
0.0001755
0.0001681
0.0001605
0.0001528
0.0001449
0.0001372
0.0001295
0.0001221
0.0001149
0.0001079
0.0001012
9.47e-05
8.853e-05
8.267e-05
7.715e-05
7.198e-05
6.718e-05
6.275e-05
5.868e-05
5.495e-05
5.154e-05
4.844e-05
4.561e-05
4.301e-05
4.063e-05
3.845e-05
3.642e-05
3.454e-05
3.279e-05
3.116e-05
2.962e-05
2.818e-05
2.681e-05
2.552e-05
2.429e-05
2.313e-05
2.201e-05
2.095e-05
1.994e-05
1.897e-05
1.804e-05
1.715e-05
1.629e-05
1.546e-05
1.467e-05
1.39e-05
1.315e-05
1.243e-05
1.173e-05
1.105e-05
1.039e-05
9.739e-06
9.107e-06
8.489e-06
7.884e-06
7.29e-06
6.706e-06
6.13e-06
5.562e-06
5.001e-06
4.445e-06
3.894e-06
3.346e-06
2.799e-06
2.253e-06
1.705e-06
1.153e-06
5.945e-07
1.118e-07
0.000284
0.0002858
0.0002871
0.0002877
0.0002877
0.0002873
0.0002865
0.0002857
0.0002848
0.0002838
0.0002829
0.000282
0.0002812
0.0002804
0.0002796
0.0002788
0.000278
0.0002772
0.0002764
0.0002757
0.0002749
0.0002741
0.0002732
0.0002724
0.0002716
0.0002707
0.0002698
0.0002689
0.000268
0.000267
0.000266
0.000265
0.0002639
0.0002628
0.0002616
0.0002604
0.0002592
0.0002578
0.0002564
0.000255
0.0002534
0.0002517
0.0002499
0.000248
0.000246
0.0002437
0.0002412
0.0002385
0.0002355
0.0002323
0.0002286
0.0002246
0.0002201
0.0002153
0.0002099
0.0002041
0.0001979
0.0001912
0.0001842
0.0001768
0.0001691
0.0001612
0.0001531
0.0001449
0.0001367
0.0001287
0.000121
0.0001135
0.0001063
9.937e-05
9.274e-05
8.643e-05
8.047e-05
7.489e-05
6.97e-05
6.491e-05
6.052e-05
5.651e-05
5.288e-05
4.96e-05
4.662e-05
4.391e-05
4.145e-05
3.92e-05
3.714e-05
3.523e-05
3.346e-05
3.181e-05
3.026e-05
2.881e-05
2.744e-05
2.614e-05
2.49e-05
2.373e-05
2.261e-05
2.154e-05
2.052e-05
1.954e-05
1.861e-05
1.771e-05
1.684e-05
1.601e-05
1.52e-05
1.442e-05
1.367e-05
1.295e-05
1.224e-05
1.155e-05
1.089e-05
1.024e-05
9.604e-06
8.985e-06
8.378e-06
7.783e-06
7.199e-06
6.624e-06
6.058e-06
5.499e-06
4.947e-06
4.4e-06
3.857e-06
3.317e-06
2.779e-06
2.242e-06
1.702e-06
1.159e-06
6.103e-07
1.275e-07
0.000282
0.0002838
0.0002851
0.0002857
0.0002859
0.0002857
0.0002851
0.0002845
0.0002837
0.0002829
0.0002821
0.0002813
0.0002805
0.0002797
0.000279
0.0002783
0.0002776
0.0002769
0.0002761
0.0002754
0.0002747
0.0002739
0.0002732
0.0002724
0.0002716
0.0002708
0.0002699
0.0002691
0.0002682
0.0002673
0.0002663
0.0002654
0.0002644
0.0002633
0.0002622
0.0002611
0.0002599
0.0002587
0.0002574
0.000256
0.0002545
0.000253
0.0002513
0.0002495
0.0002476
0.0002455
0.0002432
0.0002407
0.0002379
0.0002347
0.0002312
0.0002273
0.000223
0.0002182
0.0002128
0.000207
0.0002006
0.0001937
0.0001864
0.0001786
0.0001706
0.0001622
0.0001536
0.0001448
0.0001361
0.0001277
0.0001195
0.0001116
0.0001041
9.696e-05
9.011e-05
8.365e-05
7.76e-05
7.197e-05
6.677e-05
6.202e-05
5.771e-05
5.382e-05
5.033e-05
4.719e-05
4.438e-05
4.184e-05
3.955e-05
3.746e-05
3.554e-05
3.377e-05
3.213e-05
3.06e-05
2.916e-05
2.78e-05
2.651e-05
2.529e-05
2.413e-05
2.302e-05
2.196e-05
2.095e-05
1.997e-05
1.904e-05
1.814e-05
1.727e-05
1.644e-05
1.564e-05
1.486e-05
1.411e-05
1.339e-05
1.268e-05
1.2e-05
1.133e-05
1.068e-05
1.005e-05
9.432e-06
8.827e-06
8.235e-06
7.654e-06
7.082e-06
6.52e-06
5.966e-06
5.418e-06
4.877e-06
4.341e-06
3.808e-06
3.279e-06
2.752e-06
2.225e-06
1.696e-06
1.165e-06
6.275e-07
1.454e-07
0.0002804
0.000282
0.0002833
0.000284
0.0002843
0.0002842
0.0002839
0.0002834
0.0002827
0.000282
0.0002813
0.0002806
0.0002799
0.0002792
0.0002785
0.0002779
0.0002772
0.0002765
0.0002759
0.0002752
0.0002745
0.0002738
0.0002731
0.0002724
0.0002717
0.0002709
0.0002701
0.0002693
0.0002685
0.0002677
0.0002668
0.0002659
0.0002649
0.000264
0.000263
0.0002619
0.0002608
0.0002597
0.0002585
0.0002572
0.0002559
0.0002545
0.000253
0.0002513
0.0002496
0.0002477
0.0002456
0.0002433
0.0002407
0.0002377
0.0002344
0.0002307
0.0002265
0.0002218
0.0002165
0.0002107
0.0002042
0.0001972
0.0001895
0.0001814
0.0001729
0.0001639
0.0001545
0.0001449
0.0001354
0.0001262
0.0001173
0.000109
0.0001012
9.368e-05
8.661e-05
8.002e-05
7.391e-05
6.827e-05
6.312e-05
5.846e-05
5.429e-05
5.056e-05
4.726e-05
4.433e-05
4.173e-05
3.94e-05
3.731e-05
3.541e-05
3.367e-05
3.207e-05
3.058e-05
2.918e-05
2.786e-05
2.662e-05
2.543e-05
2.43e-05
2.322e-05
2.218e-05
2.119e-05
2.023e-05
1.931e-05
1.843e-05
1.758e-05
1.676e-05
1.597e-05
1.52e-05
1.446e-05
1.374e-05
1.304e-05
1.236e-05
1.17e-05
1.106e-05
1.044e-05
9.823e-06
9.225e-06
8.638e-06
8.063e-06
7.498e-06
6.942e-06
6.394e-06
5.854e-06
5.32e-06
4.792e-06
4.268e-06
3.749e-06
3.232e-06
2.717e-06
2.202e-06
1.687e-06
1.169e-06
6.459e-07
1.655e-07
0.000279
0.0002805
0.0002818
0.0002825
0.0002829
0.000283
0.0002828
0.0002824
0.0002819
0.0002813
0.0002807
0.0002801
0.0002794
0.0002788
0.0002782
0.0002775
0.0002769
0.0002763
0.0002757
0.0002751
0.0002744
0.0002738
0.0002731
0.0002725
0.0002718
0.0002711
0.0002704
0.0002696
0.0002689
0.0002681
0.0002673
0.0002664
0.0002656
0.0002647
0.0002638
0.0002628
0.0002618
0.0002608
0.0002597
0.0002586
0.0002574
0.0002561
0.0002548
0.0002533
0.0002518
0.0002501
0.0002483
0.0002462
0.0002439
0.0002412
0.0002382
0.0002348
0.0002308
0.0002263
0.0002213
0.0002155
0.0002091
0.000202
0.000194
0.0001855
0.0001765
0.0001667
0.0001561
0.0001451
0.0001343
0.0001239
0.0001141
0.0001052
9.694e-05
8.916e-05
8.193e-05
7.531e-05
6.924e-05
6.369e-05
5.867e-05
5.419e-05
5.022e-05
4.674e-05
4.369e-05
4.103e-05
3.868e-05
3.661e-05
3.476e-05
3.309e-05
3.156e-05
3.015e-05
2.882e-05
2.758e-05
2.64e-05
2.528e-05
2.42e-05
2.317e-05
2.218e-05
2.122e-05
2.031e-05
1.942e-05
1.856e-05
1.774e-05
1.694e-05
1.617e-05
1.542e-05
1.469e-05
1.399e-05
1.331e-05
1.264e-05
1.2e-05
1.137e-05
1.075e-05
1.015e-05
9.564e-06
8.987e-06
8.422e-06
7.866e-06
7.32e-06
6.782e-06
6.251e-06
5.726e-06
5.208e-06
4.694e-06
4.185e-06
3.68e-06
3.177e-06
2.676e-06
2.176e-06
1.675e-06
1.172e-06
6.654e-07
1.873e-07
0.0002778
0.0002793
0.0002804
0.0002813
0.0002817
0.0002819
0.0002818
0.0002815
0.0002811
0.0002806
0.0002801
0.0002796
0.000279
0.0002784
0.0002778
0.0002773
0.0002767
0.0002761
0.0002756
0.000275
0.0002744
0.0002738
0.0002732
0.0002726
0.000272
0.0002713
0.0002707
0.00027
0.0002693
0.0002686
0.0002679
0.0002671
0.0002663
0.0002655
0.0002647
0.0002638
0.0002629
0.000262
0.0002611
0.0002601
0.000259
0.0002579
0.0002568
0.0002556
0.0002542
0.0002528
0.0002513
0.0002495
0.0002475
0.0002452
0.0002426
0.0002395
0.0002359
0.0002318
0.000227
0.0002216
0.0002155
0.0002085
0.0002005
0.0001917
0.0001823
0.0001716
0.000159
0.0001457
0.0001325
0.0001201
0.0001088
9.923e-05
9.081e-05
8.294e-05
7.575e-05
6.932e-05
6.347e-05
5.814e-05
5.338e-05
4.918e-05
4.552e-05
4.236e-05
3.964e-05
3.731e-05
3.529e-05
3.352e-05
3.195e-05
3.054e-05
2.924e-05
2.804e-05
2.69e-05
2.583e-05
2.48e-05
2.381e-05
2.285e-05
2.193e-05
2.104e-05
2.017e-05
1.934e-05
1.852e-05
1.774e-05
1.697e-05
1.623e-05
1.551e-05
1.482e-05
1.414e-05
1.348e-05
1.283e-05
1.221e-05
1.159e-05
1.1e-05
1.041e-05
9.839e-06
9.277e-06
8.725e-06
8.183e-06
7.649e-06
7.123e-06
6.604e-06
6.091e-06
5.585e-06
5.083e-06
4.586e-06
4.093e-06
3.603e-06
3.115e-06
2.63e-06
2.145e-06
1.66e-06
1.174e-06
6.857e-07
2.106e-07
0.0002768
0.0002782
0.0002793
0.0002801
0.0002807
0.0002809
0.0002809
0.0002808
0.0002805
0.0002801
0.0002796
0.0002791
0.0002786
0.0002781
0.0002776
0.0002771
0.0002765
0.000276
0.0002755
0.000275
0.0002744
0.0002739
0.0002733
0.0002728
0.0002722
0.0002716
0.000271
0.0002704
0.0002698
0.0002691
0.0002685
0.0002678
0.0002671
0.0002664
0.0002657
0.0002649
0.0002641
0.0002633
0.0002625
0.0002617
0.0002608
0.0002599
0.0002589
0.0002579
0.0002569
0.0002557
0.0002545
0.0002531
0.0002515
0.0002496
0.0002474
0.0002448
0.0002418
0.0002381
0.0002339
0.0002291
0.0002236
0.0002173
0.0002097
0.0002011
0.0001924
0.0001809
0.0001647
0.0001465
0.000129
0.0001131
9.945e-05
8.983e-05
8.205e-05
7.442e-05
6.767e-05
6.186e-05
5.652e-05
5.162e-05
4.726e-05
4.347e-05
4.023e-05
3.748e-05
3.517e-05
3.323e-05
3.159e-05
3.017e-05
2.892e-05
2.78e-05
2.676e-05
2.578e-05
2.485e-05
2.396e-05
2.309e-05
2.224e-05
2.141e-05
2.061e-05
1.982e-05
1.905e-05
1.83e-05
1.756e-05
1.685e-05
1.615e-05
1.547e-05
1.481e-05
1.417e-05
1.354e-05
1.292e-05
1.232e-05
1.174e-05
1.116e-05
1.06e-05
1.004e-05
9.502e-06
8.968e-06
8.443e-06
7.925e-06
7.415e-06
6.911e-06
6.413e-06
5.92e-06
5.432e-06
4.949e-06
4.469e-06
3.993e-06
3.519e-06
3.048e-06
2.579e-06
2.111e-06
1.644e-06
1.176e-06
7.066e-07
2.35e-07
0.000276
0.0002773
0.0002784
0.0002792
0.0002797
0.0002801
0.0002801
0.0002801
0.0002799
0.0002796
0.0002792
0.0002788
0.0002783
0.0002779
0.0002774
0.0002769
0.0002764
0.000276
0.0002755
0.000275
0.0002745
0.000274
0.0002735
0.000273
0.0002725
0.0002719
0.0002714
0.0002709
0.0002703
0.0002697
0.0002691
0.0002686
0.0002679
0.0002673
0.0002667
0.000266
0.0002654
0.0002647
0.000264
0.0002633
0.0002626
0.0002619
0.0002611
0.0002604
0.0002596
0.0002587
0.0002578
0.0002568
0.0002557
0.0002543
0.0002526
0.0002506
0.0002482
0.0002452
0.0002418
0.0002378
0.0002335
0.0002286
0.0002223
0.000213
0.0002059
0.0001976
0.0001767
0.0001478
0.0001217
0.0001002
8.51e-05
7.812e-05
7.126e-05
6.309e-05
5.744e-05
5.287e-05
4.848e-05
4.425e-05
4.045e-05
3.72e-05
3.447e-05
3.221e-05
3.038e-05
2.89e-05
2.768e-05
2.665e-05
2.575e-05
2.494e-05
2.417e-05
2.344e-05
2.272e-05
2.201e-05
2.131e-05
2.061e-05
1.991e-05
1.922e-05
1.854e-05
1.787e-05
1.721e-05
1.656e-05
1.592e-05
1.529e-05
1.468e-05
1.408e-05
1.349e-05
1.291e-05
1.234e-05
1.179e-05
1.124e-05
1.07e-05
1.018e-05
9.659e-06
9.148e-06
8.644e-06
8.146e-06
7.655e-06
7.169e-06
6.688e-06
6.212e-06
5.74e-06
5.272e-06
4.807e-06
4.346e-06
3.888e-06
3.432e-06
2.978e-06
2.526e-06
2.076e-06
1.626e-06
1.177e-06
7.278e-07
2.602e-07
0.0002753
0.0002765
0.0002775
0.0002784
0.000279
0.0002793
0.0002795
0.0002795
0.0002794
0.0002791
0.0002788
0.0002785
0.0002781
0.0002777
0.0002772
0.0002768
0.0002764
0.0002759
0.0002755
0.000275
0.0002746
0.0002741
0.0002737
0.0002732
0.0002728
0.0002723
0.0002718
0.0002713
0.0002708
0.0002703
0.0002698
0.0002693
0.0002688
0.0002683
0.0002677
0.0002672
0.0002667
0.0002661
0.0002656
0.000265
0.0002645
0.0002639
0.0002634
0.0002629
0.0002623
0.0002618
0.0002613
0.0002607
0.00026
0.0002591
0.000258
0.0002566
0.0002548
0.0002526
0.00025
0.0002472
0.0002446
0.0002418
0.0002364
0.0002286
0.0002154
0.0001929
0.0001521
0.0001406
0.0001331
0.0001244
8.541e-05
6.734e-05
5.821e-05
5.084e-05
4.589e-05
4.277e-05
3.976e-05
3.635e-05
3.322e-05
3.058e-05
2.842e-05
2.671e-05
2.54e-05
2.441e-05
2.366e-05
2.304e-05
2.252e-05
2.202e-05
2.154e-05
2.105e-05
2.055e-05
2.003e-05
1.949e-05
1.894e-05
1.838e-05
1.781e-05
1.723e-05
1.666e-05
1.609e-05
1.552e-05
1.496e-05
1.441e-05
1.386e-05
1.332e-05
1.279e-05
1.226e-05
1.174e-05
1.123e-05
1.073e-05
1.024e-05
9.746e-06
9.263e-06
8.784e-06
8.311e-06
7.842e-06
7.377e-06
6.917e-06
6.46e-06
6.006e-06
5.555e-06
5.107e-06
4.662e-06
4.22e-06
3.779e-06
3.341e-06
2.905e-06
2.471e-06
2.038e-06
1.607e-06
1.178e-06
7.49e-07
2.856e-07
0.0002746
0.0002758
0.0002769
0.0002777
0.0002783
0.0002787
0.0002789
0.000279
0.0002789
0.0002787
0.0002785
0.0002782
0.0002779
0.0002775
0.0002771
0.0002767
0.0002763
0.0002759
0.0002755
0.0002751
0.0002747
0.0002743
0.0002739
0.0002735
0.0002731
0.0002727
0.0002722
0.0002718
0.0002714
0.000271
0.0002705
0.0002701
0.0002697
0.0002692
0.0002688
0.0002684
0.0002679
0.0002675
0.0002671
0.0002667
0.0002663
0.0002659
0.0002656
0.0002653
0.0002651
0.0002648
0.0002646
0.0002644
0.0002642
0.0002638
0.0002633
0.0002625
0.0002613
0.0002597
0.0002579
0.0002561
0.000254
0.000255
0.0002486
0.0001935
0.000172
0.0001589
0.0001255
0.0001348
0.0001429
0.0001489
0.0001153
0.0001082
9.682e-05
4.16e-05
3.369e-05
3.499e-05
3.145e-05
2.843e-05
2.593e-05
2.39e-05
2.231e-05
2.115e-05
2.039e-05
1.993e-05
1.965e-05
1.946e-05
1.931e-05
1.914e-05
1.894e-05
1.869e-05
1.839e-05
1.806e-05
1.768e-05
1.727e-05
1.684e-05
1.639e-05
1.593e-05
1.545e-05
1.497e-05
1.449e-05
1.4e-05
1.352e-05
1.304e-05
1.256e-05
1.208e-05
1.161e-05
1.114e-05
1.068e-05
1.022e-05
9.765e-06
9.312e-06
8.864e-06
8.418e-06
7.975e-06
7.535e-06
7.098e-06
6.663e-06
6.229e-06
5.798e-06
5.369e-06
4.942e-06
4.516e-06
4.092e-06
3.67e-06
3.25e-06
2.831e-06
2.415e-06
2e-06
1.588e-06
1.178e-06
7.699e-07
3.11e-07
0.0002741
0.0002752
0.0002763
0.0002771
0.0002777
0.0002781
0.0002784
0.0002785
0.0002785
0.0002784
0.0002782
0.000278
0.0002777
0.0002774
0.0002771
0.0002767
0.0002763
0.000276
0.0002756
0.0002752
0.0002749
0.0002745
0.0002741
0.0002738
0.0002734
0.000273
0.0002727
0.0002723
0.000272
0.0002716
0.0002713
0.0002709
0.0002705
0.0002702
0.0002699
0.0002695
0.0002692
0.0002689
0.0002686
0.0002683
0.0002681
0.0002679
0.0002678
0.0002677
0.0002676
0.0002677
0.0002678
0.000268
0.0002682
0.0002683
0.0002683
0.000268
0.0002672
0.0002661
0.0002645
0.0002628
0.0002612
0.0002524
0.0002139
0.0001303
0.0001026
-0.0001223
2.597e-05
0.000113
0.0001723
0.0002556
0.0003143
0.0001621
0.0001472
8.217e-05
5.177e-05
2.996e-05
2.427e-05
2.102e-05
1.898e-05
1.749e-05
1.639e-05
1.575e-05
1.553e-05
1.558e-05
1.577e-05
1.601e-05
1.621e-05
1.636e-05
1.642e-05
1.64e-05
1.63e-05
1.614e-05
1.592e-05
1.565e-05
1.534e-05
1.5e-05
1.464e-05
1.426e-05
1.387e-05
1.346e-05
1.305e-05
1.264e-05
1.222e-05
1.181e-05
1.139e-05
1.097e-05
1.055e-05
1.013e-05
9.715e-06
9.299e-06
8.884e-06
8.47e-06
8.057e-06
7.645e-06
7.233e-06
6.822e-06
6.412e-06
6.002e-06
5.594e-06
5.185e-06
4.778e-06
4.372e-06
3.966e-06
3.562e-06
3.159e-06
2.758e-06
2.359e-06
1.962e-06
1.568e-06
1.177e-06
7.902e-07
3.357e-07
0.0002737
0.0002748
0.0002758
0.0002766
0.0002772
0.0002777
0.000278
0.0002781
0.0002782
0.0002781
0.000278
0.0002778
0.0002776
0.0002773
0.000277
0.0002767