/*--------------------------------*- C++ -*----------------------------------*\
  =========                 |
  \\      /  F ield         | OpenFOAM: The Open Source CFD Toolbox
   \\    /   O peration     | Website:  https://openfoam.org
    \\  /    A nd           | Version:  7
     \\/     M anipulation  |
\*---------------------------------------------------------------------------*/
FoamFile
{
    version     2.0;
    format      ascii;
    class       surfaceScalarField;
    location    "719.999473410875453";
    object      phi;
}
// * * * * * * * * * * * * * * * * * * * * * * * * * * * * * * * * * * * * * //

dimensions      [0 3 -1 0 0 0 0];

internalField   nonuniform List<scalar> 
8032
(
6.857e-10
2.518e-10
4.804e-10
2.053e-10
3.48e-10
1.324e-10
2.643e-10
8.372e-11
2.101e-10
5.415e-11
1.738e-10
3.635e-11
1.483e-10
2.548e-11
1.297e-10
1.862e-11
1.156e-10
1.411e-11
1.046e-10
1.099e-11
9.581e-11
8.756e-12
8.872e-11
7.088e-12
8.291e-11
5.807e-12
7.812e-11
4.795e-12
7.414e-11
3.978e-12
7.083e-11
3.306e-12
6.809e-11
2.742e-12
6.583e-11
2.262e-12
6.398e-11
1.847e-12
6.25e-11
1.481e-12
6.135e-11
1.156e-12
6.049e-11
8.601e-13
5.99e-11
5.883e-13
5.956e-11
3.342e-13
5.947e-11
9.303e-14
5.961e-11
-1.393e-13
5.998e-11
-3.664e-13
6.057e-11
-5.913e-13
6.138e-11
-8.166e-13
6.243e-11
-1.045e-12
6.371e-11
-1.278e-12
6.523e-11
-1.518e-12
6.699e-11
-1.767e-12
6.902e-11
-2.025e-12
7.131e-11
-2.294e-12
7.389e-11
-2.575e-12
7.675e-11
-2.866e-12
7.992e-11
-3.17e-12
8.341e-11
-3.484e-12
8.721e-11
-3.807e-12
9.135e-11
-4.138e-12
9.583e-11
-4.474e-12
1.006e-10
-4.811e-12
1.058e-10
-5.145e-12
1.113e-10
-5.47e-12
1.17e-10
-5.781e-12
1.231e-10
-6.07e-12
1.294e-10
-6.329e-12
1.36e-10
-6.549e-12
1.427e-10
-6.721e-12
1.495e-10
-6.834e-12
1.564e-10
-6.879e-12
1.633e-10
-6.846e-12
1.7e-10
-6.726e-12
1.765e-10
-6.512e-12
1.827e-10
-6.198e-12
1.885e-10
-5.781e-12
1.937e-10
-5.261e-12
1.984e-10
-4.641e-12
2.023e-10
-3.929e-12
2.054e-10
-3.136e-12
2.077e-10
-2.278e-12
2.091e-10
-1.373e-12
2.095e-10
-4.417e-13
2.09e-10
4.924e-13
2.076e-10
1.408e-12
2.054e-10
2.283e-12
2.023e-10
3.102e-12
1.984e-10
3.848e-12
1.939e-10
4.513e-12
1.888e-10
5.089e-12
1.832e-10
5.573e-12
1.773e-10
5.963e-12
1.71e-10
6.262e-12
1.645e-10
6.474e-12
1.579e-10
6.603e-12
1.513e-10
6.655e-12
1.446e-10
6.638e-12
1.381e-10
6.559e-12
1.317e-10
6.426e-12
1.254e-10
6.248e-12
1.194e-10
6.032e-12
1.136e-10
5.785e-12
1.081e-10
5.516e-12
1.028e-10
5.231e-12
9.79e-11
4.936e-12
9.327e-11
4.636e-12
8.893e-11
4.335e-12
8.489e-11
4.038e-12
8.115e-11
3.747e-12
7.768e-11
3.466e-12
7.449e-11
3.196e-12
7.155e-11
2.938e-12
6.885e-11
2.693e-12
6.639e-11
2.463e-12
6.414e-11
2.247e-12
6.21e-11
2.045e-12
6.024e-11
1.858e-12
5.856e-11
1.685e-12
5.703e-11
1.524e-12
5.565e-11
1.377e-12
5.441e-11
1.242e-12
5.33e-11
1.118e-12
5.229e-11
1.005e-12
5.139e-11
9.014e-13
5.058e-11
8.077e-13
4.986e-11
7.226e-13
4.921e-11
6.455e-13
4.864e-11
5.758e-13
4.813e-11
5.129e-13
4.767e-11
4.563e-13
4.726e-11
4.055e-13
4.69e-11
3.6e-13
4.658e-11
3.195e-13
4.63e-11
2.837e-13
4.605e-11
2.522e-13
4.582e-11
2.249e-13
4.562e-11
2.018e-13
4.544e-11
1.827e-13
4.527e-11
1.679e-13
4.511e-11
1.578e-13
4.496e-11
1.531e-13
4.48e-11
1.55e-13
4.464e-11
1.662e-13
4.445e-11
1.916e-13
4.421e-11
2.39e-13
4.389e-11
3.175e-13
4.125e-13
9.523e-10
2.37e-10
8.501e-10
3.075e-10
7.275e-10
2.55e-10
6.183e-10
1.929e-10
5.294e-10
1.43e-10
4.594e-10
1.064e-10
4.044e-10
8.046e-11
3.609e-10
6.205e-11
3.263e-10
4.88e-11
2.982e-10
3.904e-11
2.753e-10
3.168e-11
2.564e-10
2.6e-11
2.407e-10
2.152e-11
2.275e-10
1.791e-11
2.166e-10
1.495e-11
2.074e-10
1.248e-11
1.997e-10
1.04e-11
1.934e-10
8.606e-12
1.882e-10
7.045e-12
1.84e-10
5.665e-12
1.807e-10
4.429e-12
1.783e-10
3.305e-12
1.766e-10
2.267e-12
1.757e-10
1.295e-12
1.754e-10
3.722e-13
1.758e-10
-5.177e-13
1.768e-10
-1.387e-12
1.784e-10
-2.247e-12
1.807e-10
-3.108e-12
1.837e-10
-3.979e-12
1.872e-10
-4.867e-12
1.915e-10
-5.778e-12
1.965e-10
-6.719e-12
2.021e-10
-7.694e-12
2.085e-10
-8.706e-12
2.157e-10
-9.758e-12
2.237e-10
-1.085e-11
2.325e-10
-1.198e-11
2.422e-10
-1.314e-11
2.527e-10
-1.434e-11
2.641e-10
-1.556e-11
2.764e-10
-1.679e-11
2.897e-10
-1.802e-11
3.037e-10
-1.923e-11
3.187e-10
-2.041e-11
3.344e-10
-2.153e-11
3.509e-10
-2.256e-11
3.681e-10
-2.347e-11
3.858e-10
-2.424e-11
4.039e-10
-2.483e-11
4.222e-10
-2.52e-11
4.407e-10
-2.532e-11
4.59e-10
-2.515e-11
4.769e-10
-2.467e-11
4.942e-10
-2.384e-11
5.107e-10
-2.266e-11
5.26e-10
-2.111e-11
5.4e-10
-1.919e-11
5.523e-10
-1.692e-11
5.626e-10
-1.432e-11
5.709e-10
-1.144e-11
5.77e-10
-8.321e-12
5.807e-10
-5.04e-12
5.819e-10
-1.667e-12
5.807e-10
1.719e-12
5.77e-10
5.041e-12
5.711e-10
8.226e-12
5.63e-10
1.121e-11
5.529e-10
1.395e-11
5.41e-10
1.639e-11
5.275e-10
1.853e-11
5.128e-10
2.033e-11
4.97e-10
2.18e-11
4.803e-10
2.294e-11
4.63e-10
2.376e-11
4.453e-10
2.429e-11
4.274e-10
2.453e-11
4.096e-10
2.452e-11
3.918e-10
2.427e-11
3.744e-10
2.383e-11
3.575e-10
2.322e-11
3.41e-10
2.246e-11
3.252e-10
2.159e-11
3.101e-10
2.063e-11
2.957e-10
1.961e-11
2.821e-10
1.854e-11
2.693e-10
1.745e-11
2.573e-10
1.635e-11
2.461e-10
1.526e-11
2.357e-10
1.419e-11
2.26e-10
1.315e-11
2.17e-10
1.215e-11
2.088e-10
1.119e-11
2.012e-10
1.028e-11
1.942e-10
9.419e-12
1.879e-10
8.609e-12
1.821e-10
7.852e-12
1.768e-10
7.146e-12
1.72e-10
6.491e-12
1.676e-10
5.885e-12
1.636e-10
5.326e-12
1.601e-10
4.811e-12
1.569e-10
4.34e-12
1.54e-10
3.908e-12
1.513e-10
3.514e-12
1.49e-10
3.155e-12
1.469e-10
2.828e-12
1.45e-10
2.532e-12
1.433e-10
2.264e-12
1.418e-10
2.021e-12
1.405e-10
1.802e-12
1.393e-10
1.606e-12
1.382e-10
1.429e-12
1.372e-10
1.272e-12
1.364e-10
1.133e-12
1.356e-10
1.01e-12
1.35e-10
9.033e-13
1.343e-10
8.123e-13
1.338e-10
7.368e-13
1.333e-10
6.772e-13
1.328e-10
6.344e-13
1.323e-10
6.101e-13
1.319e-10
6.07e-13
1.314e-10
6.294e-13
1.309e-10
6.836e-13
1.304e-10
7.766e-13
1.298e-10
9.072e-13
1.03e-12
9.779e-10
1.966e-10
9.637e-10
3.217e-10
9.013e-10
3.174e-10
8.213e-10
2.73e-10
7.411e-10
2.232e-10
6.682e-10
1.793e-10
6.05e-10
1.437e-10
5.512e-10
1.158e-10
5.059e-10
9.411e-11
4.678e-10
7.717e-11
4.357e-10
6.379e-11
4.086e-10
5.31e-11
3.857e-10
4.442e-11
3.663e-10
3.729e-11
3.499e-10
3.134e-11
3.361e-10
2.632e-11
3.244e-10
2.202e-11
3.148e-10
1.829e-11
3.068e-10
1.501e-11
3.003e-10
1.21e-11
2.953e-10
9.477e-12
2.915e-10
7.079e-12
2.889e-10
4.858e-12
2.875e-10
2.772e-12
2.87e-10
7.856e-13
2.877e-10
-1.132e-12
2.893e-10
-3.006e-12
2.919e-10
-4.861e-12
2.955e-10
-6.718e-12
3.001e-10
-8.593e-12
3.058e-10
-1.05e-11
3.124e-10
-1.246e-11
3.202e-10
-1.448e-11
3.291e-10
-1.657e-11
3.391e-10
-1.873e-11
3.503e-10
-2.097e-11
3.628e-10
-2.33e-11
3.765e-10
-2.57e-11
3.915e-10
-2.817e-11
4.079e-10
-3.07e-11
4.256e-10
-3.327e-11
4.446e-10
-3.586e-11
4.651e-10
-3.844e-11
4.868e-10
-4.098e-11
5.098e-10
-4.343e-11
5.34e-10
-4.575e-11
5.594e-10
-4.788e-11
5.856e-10
-4.976e-11
6.127e-10
-5.133e-11
6.404e-10
-5.251e-11
6.685e-10
-5.323e-11
6.966e-10
-5.343e-11
7.244e-10
-5.302e-11
7.517e-10
-5.196e-11
7.781e-10
-5.018e-11
8.031e-10
-4.766e-11
8.263e-10
-4.437e-11
8.474e-10
-4.032e-11
8.661e-10
-3.554e-11
8.818e-10
-3.008e-11
8.944e-10
-2.404e-11
9.036e-10
-1.751e-11
9.092e-10
-1.064e-11
9.111e-10
-3.586e-12
9.094e-10
3.501e-12
9.039e-10
1.046e-11
8.95e-10
1.714e-11
8.828e-10
2.341e-11
8.676e-10
2.916e-11
8.497e-10
3.433e-11
8.294e-10
3.884e-11
8.07e-10
4.267e-11
7.83e-10
4.581e-11
7.577e-10
4.827e-11
7.314e-10
5.007e-11
7.044e-10
5.123e-11
6.771e-10
5.181e-11
6.498e-10
5.185e-11
6.227e-10
5.14e-11
5.96e-10
5.054e-11
5.699e-10
4.93e-11
5.446e-10
4.776e-11
5.202e-10
4.597e-11
4.969e-10
4.398e-11
4.746e-10
4.185e-11
4.535e-10
3.963e-11
4.336e-10
3.734e-11
4.149e-10
3.504e-11
3.975e-10
3.275e-11
3.811e-10
3.05e-11
3.66e-10
2.83e-11
3.52e-10
2.618e-11
3.39e-10
2.415e-11
3.271e-10
2.221e-11
3.161e-10
2.038e-11
3.061e-10
1.865e-11
2.969e-10
1.703e-11
2.885e-10
1.552e-11
2.809e-10
1.412e-11
2.74e-10
1.282e-11
2.677e-10
1.161e-11
2.62e-10
1.051e-11
2.568e-10
9.49e-12
2.522e-10
8.558e-12
2.48e-10
7.706e-12
2.442e-10
6.928e-12
2.408e-10
6.22e-12
2.378e-10
5.577e-12
2.35e-10
4.994e-12
2.326e-10
4.466e-12
2.304e-10
3.989e-12
2.284e-10
3.56e-12
2.267e-10
3.175e-12
2.251e-10
2.83e-12
2.238e-10
2.525e-12
2.225e-10
2.255e-12
2.214e-10
2.02e-12
2.204e-10
1.818e-12
2.195e-10
1.649e-12
2.186e-10
1.513e-12
2.179e-10
1.411e-12
2.171e-10
1.345e-12
2.164e-10
1.319e-12
2.157e-10
1.335e-12
2.15e-10
1.397e-12
2.143e-10
1.506e-12
2.135e-10
1.646e-12
1.76e-12
9.752e-10
1.589e-10
9.93e-10
3.038e-10
9.729e-10
3.376e-10
9.27e-10
3.188e-10
8.693e-10
2.809e-10
8.088e-10
2.397e-10
7.509e-10
2.017e-10
6.979e-10
1.688e-10
6.506e-10
1.414e-10
6.092e-10
1.187e-10
5.73e-10
9.992e-11
5.417e-10
8.439e-11
5.147e-10
7.144e-11
4.915e-10
6.053e-11
4.716e-10
5.126e-11
4.546e-10
4.331e-11
4.402e-10
3.641e-11
4.281e-10
3.037e-11
4.181e-10
2.501e-11
4.1e-10
2.02e-11
4.036e-10
1.584e-11
3.989e-10
1.183e-11
3.956e-10
8.102e-12
3.938e-10
4.587e-12
3.934e-10
1.229e-12
3.943e-10
-2.02e-12
3.965e-10
-5.201e-12
4e-10
-8.352e-12
4.047e-10
-1.151e-11
4.108e-10
-1.469e-11
4.183e-10
-1.794e-11
4.271e-10
-2.126e-11
4.373e-10
-2.468e-11
4.489e-10
-2.822e-11
4.621e-10
-3.187e-11
4.768e-10
-3.566e-11
4.93e-10
-3.957e-11
5.109e-10
-4.36e-11
5.305e-10
-4.775e-11
5.518e-10
-5.199e-11
5.748e-10
-5.628e-11
5.996e-10
-6.061e-11
6.26e-10
-6.491e-11
6.542e-10
-6.912e-11
6.839e-10
-7.319e-11
7.152e-10
-7.703e-11
7.479e-10
-8.054e-11
7.817e-10
-8.362e-11
8.166e-10
-8.618e-11
8.522e-10
-8.808e-11
8.882e-10
-8.922e-11
9.242e-10
-8.948e-11
9.599e-10
-8.874e-11
9.949e-10
-8.69e-11
1.029e-09
-8.389e-11
1.061e-09
-7.964e-11
1.09e-09
-7.412e-11
1.117e-09
-6.734e-11
1.141e-09
-5.935e-11
1.161e-09
-5.025e-11
1.177e-09
-4.017e-11
1.189e-09
-2.93e-11
1.196e-09
-1.786e-11
1.199e-09
-6.107e-12
1.197e-09
5.698e-12
1.19e-09
1.729e-11
1.179e-09
2.843e-11
1.163e-09
3.889e-11
1.144e-09
4.852e-11
1.121e-09
5.716e-11
1.095e-09
6.473e-11
1.067e-09
7.118e-11
1.036e-09
7.649e-11
1.003e-09
8.067e-11
9.698e-10
8.374e-11
9.353e-10
8.577e-11
9.003e-10
8.682e-11
8.651e-10
8.697e-11
8.302e-10
8.632e-11
7.958e-10
8.495e-11
7.622e-10
8.296e-11
7.295e-10
8.045e-11
6.979e-10
7.752e-11
6.676e-10
7.425e-11
6.388e-10
7.073e-11
6.113e-10
6.704e-11
5.854e-10
6.325e-11
5.611e-10
5.942e-11
5.382e-10
5.56e-11
5.169e-10
5.183e-11
4.97e-10
4.816e-11
4.786e-10
4.46e-11
4.616e-10
4.118e-11
4.459e-10
3.792e-11
4.314e-10
3.483e-11
4.181e-10
3.192e-11
4.06e-10
2.918e-11
3.949e-10
2.663e-11
3.848e-10
2.424e-11
3.755e-10
2.203e-11
3.672e-10
1.999e-11
3.596e-10
1.811e-11
3.527e-10
1.637e-11
3.465e-10
1.478e-11
3.408e-10
1.333e-11
3.358e-10
1.2e-11
3.312e-10
1.078e-11
3.271e-10
9.68e-12
3.234e-10
8.679e-12
3.201e-10
7.772e-12
3.172e-10
6.952e-12
3.145e-10
6.212e-12
3.121e-10
5.548e-12
3.1e-10
4.953e-12
3.081e-10
4.423e-12
3.064e-10
3.955e-12
3.049e-10
3.545e-12
3.035e-10
3.191e-12
3.023e-10
2.892e-12
3.011e-10
2.647e-12
3.001e-10
2.457e-12
2.991e-10
2.323e-12
2.982e-10
2.246e-12
2.973e-10
2.229e-12
2.964e-10
2.271e-12
2.955e-10
2.366e-12
2.947e-10
2.489e-12
2.583e-12
9.668e-10
1.296e-10
9.945e-10
2.761e-10
9.98e-10
3.341e-10
9.783e-10
3.385e-10
9.429e-10
3.163e-10
8.992e-10
2.834e-10
8.526e-10
2.482e-10
8.066e-10
2.148e-10
7.632e-10
1.848e-10
7.233e-10
1.585e-10
6.873e-10
1.359e-10
6.552e-10
1.165e-10
6.269e-10
9.976e-11
6.021e-10
8.535e-11
5.805e-10
7.286e-11
5.618e-10
6.196e-11
5.459e-10
5.236e-11
5.324e-10
4.385e-11
5.212e-10
3.622e-11
5.121e-10
2.932e-11
5.049e-10
2.301e-11
4.995e-10
1.718e-11
4.959e-10
1.171e-11
4.94e-10
6.54e-12
4.936e-10
1.58e-12
4.948e-10
-3.232e-12
4.976e-10
-7.955e-12
5.019e-10
-1.264e-11
5.077e-10
-1.733e-11
5.151e-10
-2.208e-11
5.24e-10
-2.691e-11
5.346e-10
-3.185e-11
5.469e-10
-3.694e-11
5.609e-10
-4.219e-11
5.766e-10
-4.761e-11
5.942e-10
-5.322e-11
6.136e-10
-5.901e-11
6.35e-10
-6.497e-11
6.583e-10
-7.109e-11
6.837e-10
-7.733e-11
7.11e-10
-8.366e-11
7.404e-10
-9.001e-11
7.718e-10
-9.631e-11
8.052e-10
-1.025e-10
8.405e-10
-1.084e-10
8.774e-10
-1.14e-10
9.16e-10
-1.191e-10
9.56e-10
-1.236e-10
9.972e-10
-1.273e-10
1.039e-09
-1.3e-10
1.082e-09
-1.316e-10
1.124e-09
-1.319e-10
1.166e-09
-1.308e-10
1.207e-09
-1.28e-10
1.247e-09
-1.236e-10
1.284e-09
-1.173e-10
1.32e-09
-1.091e-10
1.351e-09
-9.915e-11
1.379e-09
-8.739e-11
1.403e-09
-7.401e-11
1.422e-09
-5.919e-11
1.436e-09
-4.322e-11
1.445e-09
-2.641e-11
1.448e-09
-9.135e-12
1.445e-09
8.216e-12
1.437e-09
2.526e-11
1.424e-09
4.164e-11
1.406e-09
5.703e-11
1.383e-09
7.119e-11
1.356e-09
8.393e-11
1.326e-09
9.511e-11
1.293e-09
1.046e-10
1.256e-09
1.125e-10
1.218e-09
1.187e-10
1.179e-09
1.234e-10
1.138e-09
1.264e-10
1.097e-09
1.281e-10
1.055e-09
1.284e-10
1.014e-09
1.275e-10
9.736e-10
1.256e-10
9.338e-10
1.228e-10
8.951e-10
1.192e-10
8.577e-10
1.149e-10
8.217e-10
1.102e-10
7.874e-10
1.051e-10
7.548e-10
9.967e-11
7.239e-10
9.412e-11
6.948e-10
8.85e-11
6.676e-10
8.289e-11
6.42e-10
7.735e-11
6.183e-10
7.193e-11
5.962e-10
6.668e-11
5.757e-10
6.164e-11
5.568e-10
5.682e-11
5.394e-10
5.224e-11
5.234e-10
4.792e-11
5.087e-10
4.386e-11
4.953e-10
4.005e-11
4.83e-10
3.651e-11
4.719e-10
3.322e-11
4.617e-10
3.017e-11
4.524e-10
2.735e-11
4.441e-10
2.476e-11
4.365e-10
2.238e-11
4.296e-10
2.019e-11
4.234e-10
1.82e-11
4.178e-10
1.638e-11
4.128e-10
1.472e-11
4.082e-10
1.321e-11
4.042e-10
1.184e-11
4.005e-10
1.06e-11
3.972e-10
9.488e-12
3.943e-10
8.483e-12
3.917e-10
7.582e-12
3.893e-10
6.778e-12
3.872e-10
6.065e-12
3.853e-10
5.438e-12
3.836e-10
4.895e-12
3.821e-10
4.431e-12
3.807e-10
4.045e-12
3.794e-10
3.736e-12
3.782e-10
3.505e-12
3.771e-10
3.351e-12
3.761e-10
3.273e-12
3.751e-10
3.267e-12
3.741e-10
3.321e-12
3.732e-10
3.41e-12
3.48e-12
9.592e-10
1.079e-10
9.876e-10
2.477e-10
1.003e-09
3.188e-10
1.001e-09
3.409e-10
9.83e-10
3.338e-10
9.552e-10
3.113e-10
9.214e-10
2.821e-10
8.85e-10
2.512e-10
8.484e-10
2.213e-10
8.132e-10
1.938e-10
7.802e-10
1.689e-10
7.499e-10
1.467e-10
7.225e-10
1.272e-10
6.98e-10
1.098e-10
6.764e-10
9.452e-11
6.574e-10
8.091e-11
6.411e-10
6.875e-11
6.271e-10
5.781e-11
6.154e-10
4.79e-11
6.059e-10
3.885e-11
5.984e-10
3.051e-11
5.928e-10
2.273e-11
5.892e-10
1.54e-11
5.873e-10
8.432e-12
5.871e-10
1.719e-12
5.887e-10
-4.817e-12
5.92e-10
-1.125e-11
5.97e-10
-1.764e-11
6.037e-10
-2.405e-11
6.122e-10
-3.054e-11
6.224e-10
-3.714e-11
6.345e-10
-4.39e-11
6.484e-10
-5.085e-11
6.642e-10
-5.802e-11
6.82e-10
-6.543e-11
7.019e-10
-7.307e-11
7.238e-10
-8.096e-11
7.479e-10
-8.908e-11
7.742e-10
-9.74e-11
8.028e-10
-1.059e-10
8.336e-10
-1.145e-10
8.666e-10
-1.231e-10
9.019e-10
-1.316e-10
9.393e-10
-1.399e-10
9.789e-10
-1.48e-10
1.02e-09
-1.555e-10
1.064e-09
-1.624e-10
1.108e-09
-1.684e-10
1.154e-09
-1.733e-10
1.201e-09
-1.77e-10
1.249e-09
-1.791e-10
1.296e-09
-1.795e-10
1.343e-09
-1.779e-10
1.389e-09
-1.741e-10
1.434e-09
-1.68e-10
1.476e-09
-1.594e-10
1.515e-09
-1.483e-10
1.551e-09
-1.348e-10
1.582e-09
-1.188e-10
1.609e-09
-1.007e-10
1.63e-09
-8.055e-11
1.646e-09
-5.886e-11
1.656e-09
-3.604e-11
1.659e-09
-1.257e-11
1.656e-09
1.1e-11
1.647e-09
3.414e-11
1.633e-09
5.638e-11
1.612e-09
7.729e-11
1.587e-09
9.652e-11
1.557e-09
1.138e-10
1.523e-09
1.29e-10
1.486e-09
1.42e-10
1.446e-09
1.528e-10
1.403e-09
1.613e-10
1.359e-09
1.676e-10
1.313e-09
1.719e-10
1.267e-09
1.742e-10
1.221e-09
1.748e-10
1.175e-09
1.737e-10
1.129e-09
1.712e-10
1.084e-09
1.674e-10
1.041e-09
1.626e-10
9.99e-10
1.569e-10
9.586e-10
1.506e-10
9.2e-10
1.437e-10
8.833e-10
1.364e-10
8.485e-10
1.289e-10
8.157e-10
1.213e-10
7.848e-10
1.137e-10
7.56e-10
1.062e-10
7.291e-10
9.885e-11
7.041e-10
9.171e-11
6.808e-10
8.485e-11
6.594e-10
7.828e-11
6.396e-10
7.204e-11
6.214e-10
6.614e-11
6.046e-10
6.058e-11
5.893e-10
5.538e-11
5.753e-10
5.053e-11
5.625e-10
4.601e-11
5.508e-10
4.183e-11
5.402e-10
3.796e-11
5.306e-10
3.439e-11
5.219e-10
3.111e-11
5.14e-10
2.81e-11
5.068e-10
2.535e-11
5.003e-10
2.284e-11
4.945e-10
2.054e-11
4.893e-10
1.846e-11
4.846e-10
1.656e-11
4.803e-10
1.485e-11
4.765e-10
1.33e-11
4.731e-10
1.19e-11
4.7e-10
1.065e-11
4.673e-10
9.524e-12
4.648e-10
8.527e-12
4.626e-10
7.648e-12
4.606e-10
6.881e-12
4.588e-10
6.221e-12
4.572e-10
5.665e-12
4.557e-10
5.21e-12
4.544e-10
4.854e-12
4.531e-10
4.596e-12
4.52e-10
4.432e-12
4.509e-10
4.354e-12
4.499e-10
4.349e-12
4.489e-10
4.39e-12
4.432e-12
9.536e-10
9.179e-11
9.796e-10
2.218e-10
9.998e-10
2.986e-10
1.008e-09
3.329e-10
1.003e-09
3.383e-10
9.886e-10
3.26e-10
9.666e-10
3.041e-10
9.402e-10
2.776e-10
9.117e-10
2.499e-10
8.828e-10
2.227e-10
8.545e-10
1.971e-10
8.277e-10
1.736e-10
8.028e-10
1.521e-10
7.801e-10
1.326e-10
7.596e-10
1.15e-10
7.415e-10
9.904e-11
7.256e-10
8.46e-11
7.12e-10
7.143e-11
7.006e-10
5.936e-11
6.912e-10
4.823e-11
6.838e-10
3.786e-11
6.784e-10
2.813e-11
6.749e-10
1.891e-11
6.733e-10
1.008e-11
6.735e-10
1.534e-12
6.755e-10
-6.812e-12
6.793e-10
-1.505e-11
6.849e-10
-2.326e-11
6.923e-10
-3.15e-11
7.016e-10
-3.985e-11
7.129e-10
-4.836e-11
7.26e-10
-5.707e-11
7.412e-10
-6.603e-11
7.584e-10
-7.526e-11
7.778e-10
-8.479e-11
7.994e-10
-9.463e-11
8.232e-10
-1.048e-10
8.493e-10
-1.152e-10
8.778e-10
-1.259e-10
9.087e-10
-1.368e-10
9.42e-10
-1.478e-10
9.777e-10
-1.588e-10
1.016e-09
-1.697e-10
1.056e-09
-1.804e-10
1.099e-09
-1.906e-10
1.144e-09
-2.003e-10
1.19e-09
-2.09e-10
1.239e-09
-2.167e-10
1.288e-09
-2.23e-10
1.339e-09
-2.276e-10
1.39e-09
-2.303e-10
1.442e-09
-2.308e-10
1.492e-09
-2.287e-10
1.542e-09
-2.238e-10
1.59e-09
-2.16e-10
1.636e-09
-2.05e-10
1.678e-09
-1.908e-10
1.717e-09
-1.734e-10
1.751e-09
-1.529e-10
1.78e-09
-1.296e-10
1.803e-09
-1.038e-10
1.82e-09
-7.587e-11
1.831e-09
-4.651e-11
1.834e-09
-1.632e-11
1.831e-09
1.4e-11
1.822e-09
4.376e-11
1.806e-09
7.235e-11
1.784e-09
9.921e-11
1.756e-09
1.239e-10
1.724e-09
1.461e-10
1.688e-09
1.656e-10
1.647e-09
1.823e-10
1.604e-09
1.962e-10
1.558e-09
2.072e-10
1.51e-09
2.154e-10
1.461e-09
2.209e-10
1.411e-09
2.24e-10
1.361e-09
2.248e-10
1.311e-09
2.235e-10
1.262e-09
2.204e-10
1.214e-09
2.157e-10
1.167e-09
2.096e-10
1.122e-09
2.024e-10
1.078e-09
1.942e-10
1.036e-09
1.855e-10
9.964e-10
1.762e-10
9.587e-10
1.666e-10
9.231e-10
1.569e-10
8.896e-10
1.472e-10
8.583e-10
1.375e-10
8.29e-10
1.281e-10
8.018e-10
1.189e-10
7.765e-10
1.101e-10
7.531e-10
1.017e-10
7.315e-10
9.364e-11
7.116e-10
8.604e-11
6.933e-10
7.888e-11
6.765e-10
7.216e-11
6.612e-10
6.589e-11
6.471e-10
6.005e-11
6.343e-10
5.463e-11
6.227e-10
4.962e-11
6.12e-10
4.5e-11
6.024e-10
4.074e-11
5.937e-10
3.684e-11
5.858e-10
3.326e-11
5.786e-10
2.998e-11
5.722e-10
2.7e-11
5.664e-10
2.428e-11
5.611e-10
2.181e-11
5.564e-10
1.956e-11
5.522e-10
1.754e-11
5.484e-10
1.571e-11
5.449e-10
1.406e-11
5.419e-10
1.259e-11
5.391e-10
1.128e-11
5.367e-10
1.011e-11
5.344e-10
9.095e-12
5.325e-10
8.212e-12
5.307e-10
7.461e-12
5.29e-10
6.835e-12
5.276e-10
6.332e-12
5.262e-10
5.947e-12
5.25e-10
5.675e-12
5.238e-10
5.506e-12
5.227e-10
5.425e-12
5.217e-10
5.409e-12
5.421e-12
9.498e-10
7.948e-11
9.726e-10
1.99e-10
9.941e-10
2.77e-10
1.008e-09
3.19e-10
1.012e-09
3.34e-10
1.008e-09
3.308e-10
9.956e-10
3.16e-10
9.784e-10
2.948e-10
9.58e-10
2.704e-10
9.357e-10
2.449e-10
9.13e-10
2.199e-10
8.906e-10
1.959e-10
8.692e-10
1.734e-10
8.493e-10
1.525e-10
8.31e-10
1.333e-10
8.145e-10
1.155e-10
7.999e-10
9.916e-11
7.873e-10
8.406e-11
7.766e-10
7.004e-11
7.679e-10
5.697e-11
7.61e-10
4.47e-11
7.561e-10
3.308e-11
7.53e-10
2.199e-11
7.518e-10
1.132e-11
7.524e-10
9.422e-13
7.548e-10
-9.239e-12
7.591e-10
-1.932e-11
7.652e-10
-2.939e-11
7.732e-10
-3.952e-11
7.832e-10
-4.98e-11
7.951e-10
-6.028e-11
8.09e-10
-7.101e-11
8.25e-10
-8.206e-11
8.432e-10
-9.344e-11
8.636e-10
-1.052e-10
8.863e-10
-1.173e-10
9.113e-10
-1.298e-10
9.388e-10
-1.426e-10
9.687e-10
-1.558e-10
1.001e-09
-1.692e-10
1.036e-09
-1.827e-10
1.073e-09
-1.962e-10
1.113e-09
-2.096e-10
1.156e-09
-2.228e-10
1.201e-09
-2.353e-10
1.247e-09
-2.472e-10
1.296e-09
-2.58e-10
1.347e-09
-2.674e-10
1.399e-09
-2.751e-10
1.452e-09
-2.808e-10
1.506e-09
-2.841e-10
1.56e-09
-2.847e-10
1.613e-09
-2.821e-10
1.666e-09
-2.762e-10
1.716e-09
-2.666e-10
1.764e-09
-2.531e-10
1.809e-09
-2.356e-10
1.85e-09
-2.142e-10
1.886e-09
-1.89e-10
1.917e-09
-1.602e-10
1.941e-09
-1.283e-10
1.959e-09
-9.389e-11
1.97e-09
-5.759e-11
1.974e-09
-2.027e-11
1.971e-09
1.721e-11
1.961e-09
5.398e-11
1.944e-09
8.926e-11
1.921e-09
1.224e-10
1.892e-09
1.528e-10
1.858e-09
1.802e-10
1.819e-09
2.042e-10
1.777e-09
2.247e-10
1.731e-09
2.418e-10
1.683e-09
2.553e-10
1.633e-09
2.655e-10
1.582e-09
2.724e-10
1.529e-09
2.762e-10
1.477e-09
2.773e-10
1.425e-09
2.758e-10
1.373e-09
2.72e-10
1.322e-09
2.663e-10
1.273e-09
2.589e-10
1.225e-09
2.5e-10
1.18e-09
2.401e-10
1.136e-09
2.294e-10
1.094e-09
2.18e-10
1.054e-09
2.063e-10
1.017e-09
1.943e-10
9.816e-10
1.824e-10
9.486e-10
1.705e-10
9.177e-10
1.589e-10
8.89e-10
1.477e-10
8.624e-10
1.368e-10
8.377e-10
1.264e-10
8.148e-10
1.165e-10
7.938e-10
1.071e-10
7.744e-10
9.824e-11
7.566e-10
8.994e-11
7.404e-10
8.218e-11
7.255e-10
7.495e-11
7.118e-10
6.824e-11
6.994e-10
6.203e-11
6.882e-10
5.629e-11
6.779e-10
5.101e-11
6.686e-10
4.615e-11
6.601e-10
4.17e-11
6.525e-10
3.763e-11
6.456e-10
3.39e-11
6.393e-10
3.051e-11
6.337e-10
2.743e-11
6.287e-10
2.463e-11
6.241e-10
2.209e-11
6.2e-10
1.98e-11
6.163e-10
1.774e-11
6.13e-10
1.589e-11
6.101e-10
1.424e-11
6.074e-10
1.277e-11
6.05e-10
1.148e-11
6.029e-10
1.035e-11
6.01e-10
9.385e-12
5.992e-10
8.57e-12
5.977e-10
7.9e-12
5.962e-10
7.37e-12
5.949e-10
6.972e-12
5.937e-10
6.697e-12
5.926e-10
6.53e-12
5.916e-10
6.45e-12
6.429e-12
9.472e-10
6.979e-11
9.67e-10
1.792e-10
9.882e-10
2.558e-10
1.005e-09
3.021e-10
1.015e-09
3.24e-10
1.018e-09
3.282e-10
1.014e-09
3.201e-10
1.004e-09
3.041e-10
9.912e-10
2.835e-10
9.755e-10
2.606e-10
9.585e-10
2.369e-10
9.409e-10
2.135e-10
9.236e-10
1.908e-10
9.07e-10
1.692e-10
8.914e-10
1.488e-10
8.772e-10
1.298e-10
8.644e-10
1.119e-10
8.533e-10
9.519e-11
8.438e-10
7.95e-11
8.361e-10
6.472e-11
8.301e-10
5.07e-11
8.258e-10
3.734e-11
8.233e-10
2.449e-11
8.226e-10
1.204e-11
8.237e-10
-1.131e-13
8.265e-10
-1.209e-11
8.312e-10
-2.399e-11
8.377e-10
-3.591e-11
8.461e-10
-4.794e-11
8.565e-10
-6.015e-11
8.688e-10
-7.261e-11
8.832e-10
-8.539e-11
8.997e-10
-9.854e-11
9.183e-10
-1.121e-10
9.392e-10
-1.261e-10
9.625e-10
-1.405e-10
9.881e-10
-1.554e-10
1.016e-09
-1.707e-10
1.047e-09
-1.864e-10
1.08e-09
-2.023e-10
1.116e-09
-2.184e-10
1.154e-09
-2.345e-10
1.195e-09
-2.505e-10
1.238e-09
-2.661e-10
1.284e-09
-2.811e-10
1.332e-09
-2.951e-10
1.382e-09
-3.08e-10
1.433e-09
-3.192e-10
1.487e-09
-3.285e-10
1.541e-09
-3.353e-10
1.597e-09
-3.393e-10
1.652e-09
-3.4e-10
1.707e-09
-3.371e-10
1.761e-09
-3.3e-10
1.813e-09
-3.187e-10
1.862e-09
-3.027e-10
1.909e-09
-2.819e-10
1.951e-09
-2.564e-10
1.988e-09
-2.263e-10
2.02e-09
-1.92e-10
2.045e-09
-1.538e-10
2.064e-09
-1.126e-10
2.075e-09
-6.905e-11
2.079e-09
-2.43e-11
2.076e-09
2.062e-11
2.065e-09
6.465e-11
2.048e-09
1.068e-10
2.024e-09
1.464e-10
1.994e-09
1.826e-10
1.959e-09
2.152e-10
1.919e-09
2.438e-10
1.876e-09
2.683e-10
1.829e-09
2.886e-10
1.779e-09
3.047e-10
1.728e-09
3.169e-10
1.675e-09
3.251e-10
1.622e-09
3.298e-10
1.568e-09
3.311e-10
1.514e-09
3.294e-10
1.462e-09
3.249e-10
1.41e-09
3.181e-10
1.359e-09
3.093e-10
1.31e-09
2.989e-10
1.263e-09
2.871e-10
1.218e-09
2.743e-10
1.176e-09
2.608e-10
1.135e-09
2.469e-10
1.097e-09
2.327e-10
1.061e-09
2.185e-10
1.027e-09
2.044e-10
9.951e-10
1.905e-10
9.656e-10
1.771e-10
9.382e-10
1.642e-10
9.128e-10
1.518e-10
8.894e-10
1.399e-10
8.677e-10
1.287e-10
8.478e-10
1.182e-10
8.295e-10
1.082e-10
8.127e-10
9.897e-11
7.973e-10
9.033e-11
7.833e-10
8.229e-11
7.705e-10
7.485e-11
7.588e-10
6.797e-11
7.481e-10
6.164e-11
7.385e-10
5.581e-11
7.297e-10
5.046e-11
7.218e-10
4.556e-11
7.146e-10
4.109e-11
7.081e-10
3.7e-11
7.023e-10
3.329e-11
6.97e-10
2.991e-11
6.922e-10
2.685e-11
6.879e-10
2.408e-11
6.841e-10
2.158e-11
6.807e-10
1.934e-11
6.776e-10
1.733e-11
6.748e-10
1.555e-11
6.723e-10
1.397e-11
6.701e-10
1.258e-11
6.681e-10
1.139e-11
6.663e-10
1.037e-11
6.646e-10
9.518e-12
6.632e-10
8.829e-12
6.619e-10
8.294e-12
6.607e-10
7.903e-12
6.595e-10
7.641e-12
6.585e-10
7.493e-12
7.437e-12
9.454e-10
6.191e-11
9.626e-10
1.62e-10
9.827e-10
2.357e-10
1.001e-09
2.839e-10
1.014e-09
3.105e-10
1.022e-09
3.204e-10
1.024e-09
3.179e-10
1.021e-09
3.069e-10
1.015e-09
2.903e-10
1.005e-09
2.703e-10
9.934e-10
2.485e-10
9.807e-10
2.262e-10
9.676e-10
2.039e-10
9.545e-10
1.822e-10
9.421e-10
1.613e-10
9.304e-10
1.414e-10
9.199e-10
1.225e-10
9.106e-10
1.045e-10
9.026e-10
8.745e-11
8.961e-10
7.12e-11
8.912e-10
5.567e-11
8.878e-10
4.073e-11
8.86e-10
2.627e-11
8.858e-10
1.218e-11
8.874e-10
-1.652e-12
8.906e-10
-1.534e-11
8.956e-10
-2.899e-11
9.024e-10
-4.27e-11
9.11e-10
-5.656e-11
9.215e-10
-7.066e-11
9.34e-10
-8.507e-11
9.485e-10
-9.986e-11
9.65e-10
-1.151e-10
9.837e-10
-1.308e-10
1.005e-09
-1.47e-10
1.028e-09
-1.638e-10
1.053e-09
-1.81e-10
1.081e-09
-1.987e-10
1.112e-09
-2.169e-10
1.145e-09
-2.353e-10
1.181e-09
-2.54e-10
1.219e-09
-2.727e-10
1.26e-09
-2.912e-10
1.303e-09
-3.093e-10
1.348e-09
-3.267e-10
1.396e-09
-3.431e-10
1.446e-09
-3.58e-10
1.498e-09
-3.711e-10
1.552e-09
-3.819e-10
1.606e-09
-3.899e-10
1.662e-09
-3.947e-10
1.717e-09
-3.956e-10
1.773e-09
-3.923e-10
1.827e-09
-3.843e-10
1.879e-09
-3.712e-10
1.93e-09
-3.527e-10
1.976e-09
-3.287e-10
2.019e-09
-2.992e-10
2.057e-09
-2.642e-10
2.089e-09
-2.242e-10
2.115e-09
-1.797e-10
2.134e-09
-1.315e-10
2.145e-09
-8.062e-11
2.149e-09
-2.828e-11
2.146e-09
2.424e-11
2.135e-09
7.564e-11
2.117e-09
1.248e-10
2.093e-09
1.708e-10
2.062e-09
2.129e-10
2.027e-09
2.506e-10
1.987e-09
2.838e-10
1.943e-09
3.121e-10
1.896e-09
3.356e-10
1.847e-09
3.543e-10
1.795e-09
3.684e-10
1.742e-09
3.78e-10
1.689e-09
3.834e-10
1.635e-09
3.85e-10
1.581e-09
3.83e-10
1.528e-09
3.779e-10
1.476e-09
3.701e-10
1.425e-09
3.599e-10
1.377e-09
3.478e-10
1.329e-09
3.342e-10
1.284e-09
3.194e-10
1.242e-09
3.037e-10
1.201e-09
2.875e-10
1.163e-09
2.711e-10
1.126e-09
2.546e-10
1.093e-09
2.382e-10
1.061e-09
2.222e-10
1.031e-09
2.066e-10
1.004e-09
1.916e-10
9.786e-10
1.772e-10
9.551e-10
1.635e-10
9.334e-10
1.504e-10
9.134e-10
1.382e-10
8.95e-10
1.266e-10
8.781e-10
1.158e-10
8.626e-10
1.058e-10
8.485e-10
9.643e-11
8.356e-10
8.776e-11
8.238e-10
7.975e-11
8.131e-10
7.236e-11
8.033e-10
6.556e-11
7.945e-10
5.931e-11
7.865e-10
5.359e-11
7.792e-10
4.836e-11
7.726e-10
4.358e-11
7.667e-10
3.923e-11
7.613e-10
3.527e-11
7.565e-10
3.168e-11
7.521e-10
2.843e-11
7.482e-10
2.549e-11
7.447e-10
2.285e-11
7.416e-10
2.048e-11
7.387e-10
1.837e-11
7.362e-10
1.65e-11
7.339e-10
1.485e-11
7.319e-10
1.342e-11
7.301e-10
1.219e-11
7.285e-10
1.115e-11
7.27e-10
1.029e-11
7.257e-10
9.612e-12
7.245e-10
9.097e-12
7.234e-10
8.736e-12
7.224e-10
8.517e-12
8.425e-12
9.441e-10
5.534e-11
9.592e-10
1.469e-10
9.78e-10
2.169e-10
9.965e-10
2.654e-10
1.012e-09
2.95e-10
1.023e-09
3.091e-10
1.03e-09
3.112e-10
1.032e-09
3.046e-10
1.031e-09
2.917e-10
1.027e-09
2.747e-10
1.02e-09
2.552e-10
1.012e-09
2.343e-10
1.003e-09
2.129e-10
9.934e-10
1.916e-10
9.841e-10
1.706e-10
9.752e-10
1.503e-10
9.67e-10
1.307e-10
9.597e-10
1.118e-10
9.534e-10
9.37e-11
9.484e-10
7.627e-11
9.446e-10
5.945e-11
9.422e-10
4.316e-11
9.412e-10
2.728e-11
9.416e-10
1.171e-11
9.436e-10
-3.658e-12
9.472e-10
-1.893e-11
9.524e-10
-3.421e-11
9.593e-10
-4.96e-11
9.68e-10
-6.519e-11
9.784e-10
-8.109e-11
9.907e-10
-9.736e-11
1.005e-09
-1.141e-10
1.021e-09
-1.313e-10
1.039e-09
-1.491e-10
1.06e-09
-1.675e-10
1.083e-09
-1.864e-10
1.107e-09
-2.06e-10
1.135e-09
-2.26e-10
1.165e-09
-2.466e-10
1.197e-09
-2.675e-10
1.231e-09
-2.887e-10
1.269e-09
-3.099e-10
1.308e-09
-3.31e-10
1.351e-09
-3.515e-10
1.395e-09
-3.713e-10
1.442e-09
-3.9e-10
1.491e-09
-4.07e-10
1.542e-09
-4.22e-10
1.594e-09
-4.343e-10
1.648e-09
-4.436e-10
1.702e-09
-4.491e-10
1.757e-09
-4.503e-10
1.811e-09
-4.467e-10
1.865e-09
-4.377e-10
1.917e-09
-4.23e-10
1.966e-09
-4.022e-10
2.012e-09
-3.75e-10
2.055e-09
-3.415e-10
2.092e-09
-3.017e-10
2.124e-09
-2.561e-10
2.15e-09
-2.053e-10
2.169e-09
-1.503e-10
2.18e-09
-9.201e-11
2.184e-09
-3.205e-11
2.18e-09
2.805e-11
2.169e-09
8.678e-11
2.151e-09
1.428e-10
2.127e-09
1.95e-10
2.097e-09
2.428e-10
2.062e-09
2.855e-10
2.022e-09
3.23e-10
1.979e-09
3.551e-10
1.933e-09
3.817e-10
1.885e-09
4.029e-10
1.834e-09
4.189e-10
1.782e-09
4.298e-10
1.73e-09
4.36e-10
1.677e-09
4.378e-10
1.624e-09
4.356e-10
1.572e-09
4.299e-10
1.522e-09
4.21e-10
1.472e-09
4.094e-10
1.424e-09
3.957e-10
1.378e-09
3.802e-10
1.334e-09
3.634e-10
1.292e-09
3.456e-10
1.252e-09
3.273e-10
1.215e-09
3.086e-10
1.179e-09
2.899e-10
1.146e-09
2.713e-10
1.115e-09
2.531e-10
1.087e-09
2.355e-10
1.06e-09
2.184e-10
1.035e-09
2.02e-10
1.012e-09
1.865e-10
9.907e-10
1.717e-10
9.711e-10
1.577e-10
9.531e-10
1.446e-10
9.365e-10
1.324e-10
9.214e-10
1.209e-10
9.075e-10
1.103e-10
8.948e-10
1.004e-10
8.832e-10
9.132e-11
8.727e-10
8.29e-11
8.631e-10
7.515e-11
8.544e-10
6.803e-11
8.465e-10
6.15e-11
8.393e-10
5.553e-11
8.328e-10
5.007e-11
8.269e-10
4.51e-11
8.216e-10
4.057e-11
8.168e-10
3.646e-11
8.125e-10
3.274e-11
8.087e-10
2.937e-11
8.052e-10
2.633e-11
8.02e-10
2.361e-11
7.992e-10
2.117e-11
7.967e-10
1.901e-11
7.945e-10
1.709e-11
7.925e-10
1.542e-11
7.907e-10
1.398e-11
7.891e-10
1.275e-11
7.877e-10
1.172e-11
7.864e-10
1.089e-11
7.852e-10
1.025e-11
7.842e-10
9.793e-12
7.832e-10
9.502e-12
9.374e-12
9.431e-10
4.974e-11
9.565e-10
1.335e-10
9.74e-10
1.994e-10
9.922e-10
2.471e-10
1.009e-09
2.783e-10
1.023e-09
2.954e-10
1.033e-09
3.012e-10
1.039e-09
2.982e-10
1.042e-09
2.887e-10
1.042e-09
2.746e-10
1.04e-09
2.574e-10
1.036e-09
2.383e-10
1.031e-09
2.181e-10
1.025e-09
1.974e-10
1.019e-09
1.768e-10
1.012e-09
1.564e-10
1.007e-09
1.365e-10
1.001e-09
1.17e-10
9.969e-10
9.817e-11
9.933e-10
7.984e-11
9.908e-10
6.2e-11
9.894e-10
4.458e-11
9.891e-10
2.749e-11
9.902e-10
1.063e-11
9.926e-10
-6.083e-12
9.965e-10
-2.277e-11
1.002e-09
-3.952e-11
1.009e-09
-5.645e-11
1.017e-09
-7.364e-11
1.027e-09
-9.12e-11
1.039e-09
-1.092e-10
1.053e-09
-1.277e-10
1.068e-09
-1.468e-10
1.086e-09
-1.665e-10
1.105e-09
-1.869e-10
1.127e-09
-2.08e-10
1.15e-09
-2.297e-10
1.176e-09
-2.52e-10
1.205e-09
-2.749e-10
1.235e-09
-2.982e-10
1.268e-09
-3.217e-10
1.304e-09
-3.454e-10
1.342e-09
-3.688e-10
1.382e-09
-3.918e-10
1.425e-09
-4.139e-10
1.469e-09
-4.347e-10
1.516e-09
-4.538e-10
1.565e-09
-4.706e-10
1.615e-09
-4.845e-10
1.666e-09
-4.949e-10
1.719e-09
-5.012e-10
1.771e-09
-5.027e-10
1.823e-09
-4.989e-10
1.874e-09
-4.891e-10
1.924e-09