/*--------------------------------*- C++ -*----------------------------------*\
  =========                 |
  \\      /  F ield         | OpenFOAM: The Open Source CFD Toolbox
   \\    /   O peration     | Website:  https://openfoam.org
    \\  /    A nd           | Version:  7
     \\/     M anipulation  |
\*---------------------------------------------------------------------------*/
FoamFile
{
    version     2.0;
    format      ascii;
    class       volVectorField;
    location    "719.999473410875453";
    object      U;
}
// * * * * * * * * * * * * * * * * * * * * * * * * * * * * * * * * * * * * * //

dimensions      [0 1 -1 0 0 0 0];

internalField   nonuniform List<vector> 
4096
(
(0.001039 0.0001611 0)
(0.0007463 0.0001314 0)
(0.0005302 8.474e-05 0)
(0.0003919 5.358e-05 0)
(0.0003036 3.466e-05 0)
(0.0002457 2.327e-05 0)
(0.0002061 1.631e-05 0)
(0.0001779 1.192e-05 0)
(0.0001569 9.028e-06 0)
(0.0001409 7.036e-06 0)
(0.0001282 5.604e-06 0)
(0.0001181 4.537e-06 0)
(0.0001098 3.716e-06 0)
(0.0001031 3.069e-06 0)
(9.745e-05 2.546e-06 0)
(9.278e-05 2.116e-06 0)
(8.891e-05 1.755e-06 0)
(8.571e-05 1.448e-06 0)
(8.308e-05 1.182e-06 0)
(8.095e-05 9.482e-07 0)
(7.926e-05 7.395e-07 0)
(7.797e-05 5.505e-07 0)
(7.705e-05 3.765e-07 0)
(7.646e-05 2.139e-07 0)
(7.618e-05 5.954e-08 0)
(7.621e-05 -8.916e-08 0)
(7.654e-05 -2.345e-07 0)
(7.715e-05 -3.784e-07 0)
(7.805e-05 -5.226e-07 0)
(7.924e-05 -6.688e-07 0)
(8.073e-05 -8.181e-07 0)
(8.252e-05 -9.718e-07 0)
(8.462e-05 -1.131e-06 0)
(8.705e-05 -1.296e-06 0)
(8.981e-05 -1.468e-06 0)
(9.293e-05 -1.648e-06 0)
(9.641e-05 -1.835e-06 0)
(0.0001003 -2.029e-06 0)
(0.0001045 -2.23e-06 0)
(0.0001092 -2.437e-06 0)
(0.0001143 -2.648e-06 0)
(0.0001198 -2.863e-06 0)
(0.0001257 -3.079e-06 0)
(0.0001321 -3.293e-06 0)
(0.0001389 -3.501e-06 0)
(0.0001461 -3.7e-06 0)
(0.0001537 -3.885e-06 0)
(0.0001616 -4.051e-06 0)
(0.0001699 -4.191e-06 0)
(0.0001784 -4.301e-06 0)
(0.000187 -4.374e-06 0)
(0.0001958 -4.403e-06 0)
(0.0002046 -4.381e-06 0)
(0.0002133 -4.305e-06 0)
(0.0002218 -4.168e-06 0)
(0.0002299 -3.967e-06 0)
(0.0002376 -3.7e-06 0)
(0.0002446 -3.367e-06 0)
(0.000251 -2.97e-06 0)
(0.0002564 -2.515e-06 0)
(0.000261 -2.007e-06 0)
(0.0002644 -1.458e-06 0)
(0.0002668 -8.785e-07 0)
(0.0002679 -2.827e-07 0)
(0.0002679 3.152e-07 0)
(0.0002667 9.009e-07 0)
(0.0002643 1.461e-06 0)
(0.0002609 1.985e-06 0)
(0.0002564 2.463e-06 0)
(0.0002511 2.888e-06 0)
(0.0002449 3.257e-06 0)
(0.0002381 3.566e-06 0)
(0.0002307 3.816e-06 0)
(0.0002229 4.008e-06 0)
(0.0002147 4.143e-06 0)
(0.0002064 4.226e-06 0)
(0.0001979 4.259e-06 0)
(0.0001894 4.248e-06 0)
(0.0001809 4.198e-06 0)
(0.0001726 4.113e-06 0)
(0.0001645 3.999e-06 0)
(0.0001567 3.86e-06 0)
(0.0001491 3.703e-06 0)
(0.0001419 3.531e-06 0)
(0.000135 3.348e-06 0)
(0.0001285 3.159e-06 0)
(0.0001223 2.967e-06 0)
(0.0001166 2.774e-06 0)
(0.0001112 2.584e-06 0)
(0.0001063 2.398e-06 0)
(0.0001016 2.218e-06 0)
(9.739e-05 2.045e-06 0)
(9.346e-05 1.88e-06 0)
(8.986e-05 1.724e-06 0)
(8.656e-05 1.576e-06 0)
(8.354e-05 1.438e-06 0)
(8.08e-05 1.309e-06 0)
(7.83e-05 1.189e-06 0)
(7.603e-05 1.078e-06 0)
(7.398e-05 9.756e-07 0)
(7.212e-05 8.812e-07 0)
(7.044e-05 7.946e-07 0)
(6.893e-05 7.153e-07 0)
(6.758e-05 6.429e-07 0)
(6.636e-05 5.769e-07 0)
(6.526e-05 5.169e-07 0)
(6.428e-05 4.624e-07 0)
(6.341e-05 4.131e-07 0)
(6.263e-05 3.685e-07 0)
(6.193e-05 3.282e-07 0)
(6.131e-05 2.92e-07 0)
(6.076e-05 2.595e-07 0)
(6.027e-05 2.304e-07 0)
(5.983e-05 2.045e-07 0)
(5.945e-05 1.816e-07 0)
(5.91e-05 1.614e-07 0)
(5.88e-05 1.44e-07 0)
(5.852e-05 1.291e-07 0)
(5.828e-05 1.169e-07 0)
(5.805e-05 1.075e-07 0)
(5.785e-05 1.01e-07 0)
(5.765e-05 9.796e-08 0)
(5.745e-05 9.921e-08 0)
(5.724e-05 1.064e-07 0)
(5.701e-05 1.226e-07 0)
(5.674e-05 1.529e-07 0)
(5.638e-05 2.032e-07 0)
(5.592e-05 2.64e-07 0)
(0.001209 0.0003128 0)
(0.001154 0.0003282 0)
(0.00101 0.000248 0)
(0.0008613 0.000177 0)
(0.0007345 0.0001262 0)
(0.0006328 9.138e-05 0)
(0.0005528 6.781e-05 0)
(0.0004898 5.163e-05 0)
(0.0004398 4.026e-05 0)
(0.0003997 3.202e-05 0)
(0.000367 2.588e-05 0)
(0.0003403 2.118e-05 0)
(0.0003181 1.749e-05 0)
(0.0002996 1.453e-05 0)
(0.0002842 1.211e-05 0)
(0.0002713 1.011e-05 0)
(0.0002606 8.409e-06 0)
(0.0002516 6.955e-06 0)
(0.0002442 5.691e-06 0)
(0.0002382 4.574e-06 0)
(0.0002334 3.574e-06 0)
(0.0002298 2.665e-06 0)
(0.0002271 1.827e-06 0)
(0.0002255 1.043e-06 0)
(0.0002247 2.977e-07 0)
(0.0002247 -4.205e-07 0)
(0.0002256 -1.122e-06 0)
(0.0002273 -1.817e-06 0)
(0.0002299 -2.512e-06 0)
(0.0002332 -3.215e-06 0)
(0.0002374 -3.933e-06 0)
(0.0002424 -4.67e-06 0)
(0.0002483 -5.431e-06 0)
(0.0002551 -6.221e-06 0)
(0.0002628 -7.04e-06 0)
(0.0002715 -7.893e-06 0)
(0.0002812 -8.778e-06 0)
(0.000292 -9.695e-06 0)
(0.0003038 -1.064e-05 0)
(0.0003167 -1.161e-05 0)
(0.0003308 -1.261e-05 0)
(0.000346 -1.361e-05 0)
(0.0003623 -1.461e-05 0)
(0.0003798 -1.56e-05 0)
(0.0003984 -1.656e-05 0)
(0.000418 -1.748e-05 0)
(0.0004386 -1.832e-05 0)
(0.0004602 -1.907e-05 0)
(0.0004825 -1.971e-05 0)
(0.0005054 -2.019e-05 0)
(0.0005287 -2.05e-05 0)
(0.0005523 -2.06e-05 0)
(0.0005758 -2.048e-05 0)
(0.000599 -2.009e-05 0)
(0.0006215 -1.943e-05 0)
(0.0006432 -1.847e-05 0)
(0.0006635 -1.721e-05 0)
(0.0006822 -1.565e-05 0)
(0.000699 -1.38e-05 0)
(0.0007135 -1.168e-05 0)
(0.0007255 -9.327e-06 0)
(0.0007347 -6.783e-06 0)
(0.0007409 -4.104e-06 0)
(0.000744 -1.349e-06 0)
(0.000744 1.416e-06 0)
(0.0007409 4.127e-06 0)
(0.0007348 6.726e-06 0)
(0.0007258 9.161e-06 0)
(0.0007141 1.139e-05 0)
(0.0007001 1.338e-05 0)
(0.0006839 1.511e-05 0)
(0.0006658 1.658e-05 0)
(0.0006462 1.777e-05 0)
(0.0006254 1.869e-05 0)
(0.0006037 1.935e-05 0)
(0.0005813 1.977e-05 0)
(0.0005586 1.996e-05 0)
(0.0005357 1.994e-05 0)
(0.0005129 1.973e-05 0)
(0.0004904 1.937e-05 0)
(0.0004684 1.886e-05 0)
(0.000447 1.824e-05 0)
(0.0004264 1.752e-05 0)
(0.0004066 1.673e-05 0)
(0.0003877 1.59e-05 0)
(0.0003698 1.502e-05 0)
(0.0003529 1.413e-05 0)
(0.0003371 1.324e-05 0)
(0.0003222 1.235e-05 0)
(0.0003083 1.148e-05 0)
(0.0002954 1.063e-05 0)
(0.0002835 9.82e-06 0)
(0.0002725 9.042e-06 0)
(0.0002624 8.303e-06 0)
(0.0002531 7.604e-06 0)
(0.0002445 6.948e-06 0)
(0.0002367 6.334e-06 0)
(0.0002296 5.763e-06 0)
(0.0002232 5.232e-06 0)
(0.0002173 4.742e-06 0)
(0.000212 4.29e-06 0)
(0.0002072 3.874e-06 0)
(0.0002028 3.493e-06 0)
(0.0001989 3.144e-06 0)
(0.0001954 2.826e-06 0)
(0.0001922 2.536e-06 0)
(0.0001894 2.272e-06 0)
(0.0001868 2.034e-06 0)
(0.0001845 1.817e-06 0)
(0.0001825 1.622e-06 0)
(0.0001806 1.445e-06 0)
(0.000179 1.287e-06 0)
(0.0001776 1.145e-06 0)
(0.0001763 1.019e-06 0)
(0.0001751 9.065e-07 0)
(0.0001741 8.078e-07 0)
(0.0001732 7.221e-07 0)
(0.0001723 6.49e-07 0)
(0.0001716 5.885e-07 0)
(0.0001709 5.409e-07 0)
(0.0001703 5.07e-07 0)
(0.0001697 4.884e-07 0)
(0.0001691 4.877e-07 0)
(0.0001685 5.092e-07 0)
(0.0001679 5.601e-07 0)
(0.0001673 6.499e-07 0)
(0.0001665 7.838e-07 0)
(0.0001658 9.235e-07 0)
(0.001226 0.0002775 0)
(0.001243 0.0004027 0)
(0.001194 0.0003664 0)
(0.001102 0.0002982 0)
(0.0009999 0.0002344 0)
(0.000902 0.0001829 0)
(0.0008148 0.0001435 0)
(0.00074 0.0001138 0)
(0.0006765 9.146e-05 0)
(0.0006231 7.437e-05 0)
(0.0005782 6.11e-05 0)
(0.0005403 5.062e-05 0)
(0.0005083 4.22e-05 0)
(0.0004812 3.533e-05 0)
(0.0004583 2.963e-05 0)
(0.000439 2.483e-05 0)
(0.0004227 2.074e-05 0)
(0.0004091 1.721e-05 0)
(0.0003978 1.412e-05 0)
(0.0003886 1.137e-05 0)
(0.0003812 8.9e-06 0)
(0.0003756 6.645e-06 0)
(0.0003715 4.56e-06 0)
(0.0003689 2.603e-06 0)
(0.0003677 7.41e-07 0)
(0.0003678 -1.055e-06 0)
(0.0003692 -2.812e-06 0)
(0.0003719 -4.55e-06 0)
(0.0003759 -6.289e-06 0)
(0.0003812 -8.046e-06 0)
(0.0003878 -9.837e-06 0)
(0.0003956 -1.167e-05 0)
(0.0004049 -1.357e-05 0)
(0.0004155 -1.553e-05 0)
(0.0004276 -1.756e-05 0)
(0.0004412 -1.967e-05 0)
(0.0004564 -2.185e-05 0)
(0.0004731 -2.411e-05 0)
(0.0004915 -2.644e-05 0)
(0.0005116 -2.882e-05 0)
(0.0005334 -3.125e-05 0)
(0.0005569 -3.369e-05 0)
(0.0005822 -3.613e-05 0)
(0.0006092 -3.854e-05 0)
(0.0006378 -4.086e-05 0)
(0.0006681 -4.306e-05 0)
(0.0006998 -4.508e-05 0)
(0.0007328 -4.687e-05 0)
(0.000767 -4.837e-05 0)
(0.000802 -4.95e-05 0)
(0.0008377 -5.02e-05 0)
(0.0008736 -5.039e-05 0)
(0.0009094 -5.003e-05 0)
(0.0009447 -4.904e-05 0)
(0.0009791 -4.738e-05 0)
(0.001012 -4.5e-05 0)
(0.001043 -4.191e-05 0)
(0.001071 -3.809e-05 0)
(0.001097 -3.357e-05 0)
(0.001119 -2.842e-05 0)
(0.001137 -2.27e-05 0)
(0.001151 -1.653e-05 0)
(0.00116 -1.004e-05 0)
(0.001165 -3.362e-06 0)
(0.001165 3.341e-06 0)
(0.001161 9.919e-06 0)
(0.001151 1.623e-05 0)
(0.001138 2.216e-05 0)
(0.00112 2.759e-05 0)
(0.001099 3.246e-05 0)
(0.001075 3.671e-05 0)
(0.001047 4.032e-05 0)
(0.001018 4.327e-05 0)
(0.000986 4.558e-05 0)
(0.000953 4.725e-05 0)
(0.0009189 4.833e-05 0)
(0.0008842 4.886e-05 0)
(0.0008493 4.887e-05 0)
(0.0008144 4.843e-05 0)
(0.0007799 4.76e-05 0)
(0.0007462 4.641e-05 0)
(0.0007133 4.494e-05 0)
(0.0006815 4.324e-05 0)
(0.0006509 4.135e-05 0)
(0.0006218 3.933e-05 0)
(0.000594 3.722e-05 0)
(0.0005678 3.507e-05 0)
(0.0005431 3.289e-05 0)
(0.0005199 3.073e-05 0)
(0.0004983 2.86e-05 0)
(0.0004782 2.653e-05 0)
(0.0004595 2.453e-05 0)
(0.0004422 2.262e-05 0)
(0.0004263 2.079e-05 0)
(0.0004116 1.907e-05 0)
(0.0003982 1.745e-05 0)
(0.0003859 1.593e-05 0)
(0.0003747 1.451e-05 0)
(0.0003644 1.319e-05 0)
(0.0003551 1.197e-05 0)
(0.0003466 1.084e-05 0)
(0.000339 9.804e-06 0)
(0.000332 8.851e-06 0)
(0.0003257 7.978e-06 0)
(0.0003201 7.181e-06 0)
(0.000315 6.453e-06 0)
(0.0003104 5.791e-06 0)
(0.0003063 5.19e-06 0)
(0.0003026 4.645e-06 0)
(0.0002993 4.151e-06 0)
(0.0002963 3.706e-06 0)
(0.0002937 3.306e-06 0)
(0.0002913 2.947e-06 0)
(0.0002892 2.626e-06 0)
(0.0002873 2.341e-06 0)
(0.0002856 2.089e-06 0)
(0.0002841 1.871e-06 0)
(0.0002827 1.683e-06 0)
(0.0002815 1.527e-06 0)
(0.0002804 1.401e-06 0)
(0.0002794 1.309e-06 0)
(0.0002784 1.251e-06 0)
(0.0002775 1.232e-06 0)
(0.0002766 1.257e-06 0)
(0.0002757 1.332e-06 0)
(0.0002747 1.461e-06 0)
(0.0002738 1.634e-06 0)
(0.0002728 1.786e-06 0)
(0.001224 0.0002275 0)
(0.00126 0.0004003 0)
(0.001258 0.0004192 0)
(0.001216 0.0003787 0)
(0.00115 0.0003227 0)
(0.001074 0.0002682 0)
(0.0009982 0.000221 0)
(0.0009272 0.0001822 0)
(0.0008631 0.0001507 0)
(0.0008063 0.0001253 0)
(0.0007566 0.0001048 0)
(0.0007135 8.799e-05 0)
(0.0006761 7.415e-05 0)
(0.000644 6.26e-05 0)
(0.0006163 5.287e-05 0)
(0.0005927 4.456e-05 0)
(0.0005726 3.739e-05 0)
(0.0005557 3.114e-05 0)
(0.0005416 2.561e-05 0)
(0.00053 2.067e-05 0)
(0.0005207 1.62e-05 0)
(0.0005136 1.21e-05 0)
(0.0005085 8.294e-06 0)
(0.0005053 4.709e-06 0)
(0.0005038 1.289e-06 0)
(0.0005041 -2.017e-06 0)
(0.0005061 -5.253e-06 0)
(0.0005097 -8.457e-06 0)
(0.000515 -1.166e-05 0)
(0.000522 -1.49e-05 0)
(0.0005306 -1.82e-05 0)
(0.000541 -2.158e-05 0)
(0.0005532 -2.506e-05 0)
(0.0005672 -2.866e-05 0)
(0.000583 -3.239e-05 0)
(0.0006008 -3.624e-05 0)
(0.0006207 -4.023e-05 0)
(0.0006425 -4.435e-05 0)
(0.0006665 -4.859e-05 0)
(0.0006927 -5.292e-05 0)
(0.000721 -5.731e-05 0)
(0.0007516 -6.174e-05 0)
(0.0007844 -6.614e-05 0)
(0.0008193 -7.047e-05 0)
(0.0008564 -7.464e-05 0)
(0.0008955 -7.858e-05 0)
(0.0009364 -8.219e-05 0)
(0.000979 -8.537e-05 0)
(0.001023 -8.801e-05 0)
(0.001068 -8.998e-05 0)
(0.001114 -9.117e-05 0)
(0.00116 -9.146e-05 0)
(0.001206 -9.073e-05 0)
(0.001251 -8.887e-05 0)
(0.001295 -8.58e-05 0)
(0.001337 -8.147e-05 0)
(0.001377 -7.583e-05 0)
(0.001413 -6.89e-05 0)
(0.001445 -6.073e-05 0)
(0.001474 -5.141e-05 0)
(0.001497 -4.109e-05 0)
(0.001515 -2.996e-05 0)
(0.001527 -1.824e-05 0)
(0.001533 -6.203e-06 0)
(0.001533 5.887e-06 0)
(0.001527 1.776e-05 0)
(0.001516 2.916e-05 0)
(0.001499 3.987e-05 0)
(0.001476 4.971e-05 0)
(0.001449 5.855e-05 0)
(0.001418 6.628e-05 0)
(0.001383 7.287e-05 0)
(0.001346 7.827e-05 0)
(0.001305 8.252e-05 0)
(0.001263 8.564e-05 0)
(0.001219 8.768e-05 0)
(0.001175 8.872e-05 0)
(0.00113 8.885e-05 0)
(0.001085 8.814e-05 0)
(0.001041 8.671e-05 0)
(0.0009971 8.465e-05 0)
(0.0009546 8.205e-05 0)
(0.0009135 7.903e-05 0)
(0.000874 7.567e-05 0)
(0.0008361 7.206e-05 0)
(0.0008001 6.827e-05 0)
(0.0007659 6.438e-05 0)
(0.0007338 6.046e-05 0)
(0.0007035 5.654e-05 0)
(0.0006753 5.269e-05 0)
(0.0006489 4.893e-05 0)
(0.0006244 4.53e-05 0)
(0.0006017 4.181e-05 0)
(0.0005808 3.849e-05 0)
(0.0005614 3.534e-05 0)
(0.0005437 3.237e-05 0)
(0.0005274 2.958e-05 0)
(0.0005126 2.698e-05 0)
(0.000499 2.455e-05 0)
(0.0004866 2.231e-05 0)
(0.0004753 2.023e-05 0)
(0.0004651 1.831e-05 0)
(0.0004558 1.655e-05 0)
(0.0004475 1.494e-05 0)
(0.0004399 1.346e-05 0)
(0.000433 1.211e-05 0)
(0.0004269 1.088e-05 0)
(0.0004213 9.765e-06 0)
(0.0004163 8.75e-06 0)
(0.0004119 7.832e-06 0)
(0.0004078 7.002e-06 0)
(0.0004043 6.254e-06 0)
(0.000401 5.582e-06 0)
(0.0003982 4.981e-06 0)
(0.0003956 4.447e-06 0)
(0.0003933 3.974e-06 0)
(0.0003912 3.561e-06 0)
(0.0003894 3.206e-06 0)
(0.0003877 2.906e-06 0)
(0.0003862 2.662e-06 0)
(0.0003848 2.475e-06 0)
(0.0003835 2.347e-06 0)
(0.0003823 2.282e-06 0)
(0.0003811 2.281e-06 0)
(0.00038 2.348e-06 0)
(0.0003789 2.478e-06 0)
(0.0003778 2.646e-06 0)
(0.0003767 2.78e-06 0)
(0.001219 0.0001847 0)
(0.001255 0.0003712 0)
(0.001275 0.0004299 0)
(0.001265 0.0004207 0)
(0.00123 0.0003823 0)
(0.001179 0.0003348 0)
(0.001121 0.0002879 0)
(0.001062 0.0002455 0)
(0.001005 0.0002087 0)
(0.0009513 0.0001774 0)
(0.0009028 0.0001509 0)
(0.0008592 0.0001285 0)
(0.0008206 0.0001096 0)
(0.0007865 9.336e-05 0)
(0.0007568 7.944e-05 0)
(0.0007311 6.737e-05 0)
(0.0007089 5.682e-05 0)
(0.0006901 4.75e-05 0)
(0.0006743 3.919e-05 0)
(0.0006613 3.17e-05 0)
(0.0006508 2.487e-05 0)
(0.0006428 1.856e-05 0)
(0.0006371 1.268e-05 0)
(0.0006335 7.121e-06 0)
(0.0006321 1.798e-06 0)
(0.0006326 -3.361e-06 0)
(0.0006351 -8.42e-06 0)
(0.0006396 -1.344e-05 0)
(0.0006461 -1.846e-05 0)
(0.0006546 -2.353e-05 0)
(0.000665 -2.87e-05 0)
(0.0006776 -3.399e-05 0)
(0.0006922 -3.944e-05 0)
(0.000709 -4.506e-05 0)
(0.000728 -5.087e-05 0)
(0.0007493 -5.688e-05 0)
(0.000773 -6.309e-05 0)
(0.0007991 -6.949e-05 0)
(0.0008277 -7.606e-05 0)
(0.0008589 -8.277e-05 0)
(0.0008926 -8.956e-05 0)
(0.0009289 -9.639e-05 0)
(0.0009679 -0.0001032 0)
(0.001009 -0.0001098 0)
(0.001053 -0.0001162 0)
(0.001099 -0.0001223 0)
(0.001148 -0.0001278 0)
(0.001198 -0.0001326 0)
(0.00125 -0.0001366 0)
(0.001303 -0.0001396 0)
(0.001357 -0.0001414 0)
(0.001412 -0.0001417 0)
(0.001466 -0.0001405 0)
(0.001519 -0.0001376 0)
(0.001571 -0.0001328 0)
(0.00162 -0.000126 0)
(0.001667 -0.0001173 0)
(0.001709 -0.0001066 0)
(0.001748 -9.392e-05 0)
(0.001781 -7.952e-05 0)
(0.001808 -6.359e-05 0)
(0.001829 -4.641e-05 0)
(0.001844 -2.833e-05 0)
(0.001851 -9.755e-06 0)
(0.001851 8.905e-06 0)
(0.001845 2.723e-05 0)
(0.001831 4.484e-05 0)
(0.001811 6.139e-05 0)
(0.001785 7.661e-05 0)
(0.001753 9.03e-05 0)
(0.001717 0.0001023 0)
(0.001676 0.0001125 0)
(0.001631 0.000121 0)
(0.001584 0.0001276 0)
(0.001534 0.0001325 0)
(0.001483 0.0001358 0)
(0.00143 0.0001375 0)
(0.001378 0.0001378 0)
(0.001325 0.0001369 0)
(0.001272 0.0001348 0)
(0.001221 0.0001317 0)
(0.00117 0.0001278 0)
(0.001122 0.0001232 0)
(0.001075 0.000118 0)
(0.00103 0.0001125 0)
(0.000987 0.0001067 0)
(0.0009464 0.0001007 0)
(0.000908 9.467e-05 0)
(0.0008719 8.863e-05 0)
(0.0008381 8.268e-05 0)
(0.0008066 7.686e-05 0)
(0.0007772 7.122e-05 0)
(0.00075 6.58e-05 0)
(0.0007248 6.063e-05 0)
(0.0007016 5.573e-05 0)
(0.0006802 5.11e-05 0)
(0.0006606 4.674e-05 0)
(0.0006426 4.267e-05 0)
(0.0006262 3.888e-05 0)
(0.0006111 3.536e-05 0)
(0.0005975 3.21e-05 0)
(0.000585 2.909e-05 0)
(0.0005738 2.632e-05 0)
(0.0005635 2.378e-05 0)
(0.0005543 2.145e-05 0)
(0.0005459 1.932e-05 0)
(0.0005384 1.738e-05 0)
(0.0005316 1.561e-05 0)
(0.0005254 1.401e-05 0)
(0.0005199 1.255e-05 0)
(0.000515 1.124e-05 0)
(0.0005106 1.005e-05 0)
(0.0005066 8.979e-06 0)
(0.000503 8.022e-06 0)
(0.0004998 7.168e-06 0)
(0.000497 6.413e-06 0)
(0.0004944 5.749e-06 0)
(0.0004921 5.175e-06 0)
(0.00049 4.686e-06 0)
(0.0004882 4.283e-06 0)
(0.0004864 3.964e-06 0)
(0.0004849 3.73e-06 0)
(0.0004834 3.582e-06 0)
(0.000482 3.522e-06 0)
(0.0004807 3.545e-06 0)
(0.0004795 3.64e-06 0)
(0.0004783 3.775e-06 0)
(0.0004771 3.881e-06 0)
(0.001214 0.000152 0)
(0.001246 0.0003353 0)
(0.001274 0.0004178 0)
(0.001282 0.0004349 0)
(0.001269 0.0004161 0)
(0.00124 0.0003806 0)
(0.001201 0.0003394 0)
(0.001156 0.0002982 0)
(0.001109 0.0002599 0)
(0.001063 0.0002255 0)
(0.00102 0.0001951 0)
(0.0009793 0.0001685 0)
(0.0009424 0.0001452 0)
(0.0009092 0.0001249 0)
(0.0008796 0.0001071 0)
(0.0008536 9.143e-05 0)
(0.000831 7.751e-05 0)
(0.0008116 6.506e-05 0)
(0.0007952 5.384e-05 0)
(0.0007816 4.363e-05 0)
(0.0007707 3.425e-05 0)
(0.0007624 2.554e-05 0)
(0.0007565 1.736e-05 0)
(0.0007529 9.582e-06 0)
(0.0007516 2.111e-06 0)
(0.0007525 -5.151e-06 0)
(0.0007557 -1.229e-05 0)
(0.000761 -1.938e-05 0)
(0.0007685 -2.649e-05 0)
(0.0007782 -3.367e-05 0)
(0.0007901 -4.099e-05 0)
(0.0008044 -4.848e-05 0)
(0.000821 -5.619e-05 0)
(0.0008401 -6.413e-05 0)
(0.0008616 -7.234e-05 0)
(0.0008857 -8.083e-05 0)
(0.0009125 -8.958e-05 0)
(0.0009419 -9.859e-05 0)
(0.0009742 -0.0001078 0)
(0.001009 -0.0001173 0)
(0.001047 -0.0001268 0)
(0.001088 -0.0001364 0)
(0.001132 -0.0001459 0)
(0.001178 -0.0001552 0)
(0.001228 -0.0001641 0)
(0.001279 -0.0001725 0)
(0.001334 -0.0001802 0)
(0.00139 -0.0001869 0)
(0.001448 -0.0001924 0)
(0.001508 -0.0001965 0)
(0.001568 -0.0001989 0)
(0.001629 -0.0001993 0)
(0.001689 -0.0001975 0)
(0.001749 -0.0001934 0)
(0.001807 -0.0001866 0)
(0.001862 -0.0001771 0)
(0.001914 -0.0001648 0)
(0.001962 -0.0001497 0)
(0.002005 -0.000132 0)
(0.002042 -0.0001118 0)
(0.002073 -8.944e-05 0)
(0.002097 -6.533e-05 0)
(0.002113 -3.996e-05 0)
(0.002121 -1.389e-05 0)
(0.002122 1.23e-05 0)
(0.002114 3.802e-05 0)
(0.002099 6.273e-05 0)
(0.002077 8.597e-05 0)
(0.002048 0.0001073 0)
(0.002012 0.0001266 0)
(0.001971 0.0001434 0)
(0.001926 0.0001579 0)
(0.001876 0.0001698 0)
(0.001823 0.0001792 0)
(0.001768 0.0001862 0)
(0.00171 0.0001909 0)
(0.001652 0.0001935 0)
(0.001592 0.000194 0)
(0.001533 0.0001928 0)
(0.001474 0.0001899 0)
(0.001417 0.0001857 0)
(0.00136 0.0001803 0)
(0.001306 0.000174 0)
(0.001253 0.0001669 0)
(0.001202 0.0001592 0)
(0.001154 0.0001511 0)
(0.001108 0.0001427 0)
(0.001065 0.0001343 0)
(0.001024 0.0001258 0)
(0.0009861 0.0001175 0)
(0.0009504 0.0001093 0)
(0.0009172 0.0001014 0)
(0.0008863 9.375e-05 0)
(0.0008577 8.646e-05 0)
(0.0008313 7.954e-05 0)
(0.000807 7.299e-05 0)
(0.0007847 6.684e-05 0)
(0.0007641 6.108e-05 0)
(0.0007454 5.57e-05 0)
(0.0007282 5.071e-05 0)
(0.0007125 4.607e-05 0)
(0.0006983 4.18e-05 0)
(0.0006853 3.786e-05 0)
(0.0006736 3.423e-05 0)
(0.0006629 3.091e-05 0)
(0.0006533 2.787e-05 0)
(0.0006446 2.51e-05 0)
(0.0006367 2.257e-05 0)
(0.0006296 2.027e-05 0)
(0.0006232 1.818e-05 0)
(0.0006175 1.629e-05 0)
(0.0006124 1.458e-05 0)
(0.0006077 1.304e-05 0)
(0.0006036 1.167e-05 0)
(0.0005999 1.043e-05 0)
(0.0005965 9.339e-06 0)
(0.0005935 8.375e-06 0)
(0.0005909 7.536e-06 0)
(0.0005884 6.817e-06 0)
(0.0005863 6.214e-06 0)
(0.0005843 5.726e-06 0)
(0.0005825 5.35e-06 0)
(0.0005808 5.086e-06 0)
(0.0005793 4.931e-06 0)
(0.0005778 4.878e-06 0)
(0.0005765 4.909e-06 0)
(0.0005752 4.992e-06 0)
(0.000574 5.064e-06 0)
(0.00121 0.0001278 0)
(0.001237 0.0003005 0)
(0.001267 0.0003951 0)
(0.001285 0.0004312 0)
(0.001287 0.0004301 0)
(0.001275 0.0004079 0)
(0.001251 0.0003751 0)
(0.00122 0.0003384 0)
(0.001185 0.0003016 0)
(0.001148 0.0002665 0)
(0.001112 0.0002343 0)
(0.001077 0.000205 0)
(0.001044 0.0001787 0)
(0.001013 0.0001552 0)
(0.0009854 0.0001341 0)
(0.0009607 0.0001152 0)
(0.000939 9.814e-05 0)
(0.0009201 8.272e-05 0)
(0.0009041 6.865e-05 0)
(0.0008907 5.573e-05 0)
(0.00088 4.375e-05 0)
(0.0008718 3.255e-05 0)
(0.0008661 2.196e-05 0)
(0.0008629 1.184e-05 0)
(0.0008619 2.082e-06 0)
(0.0008633 -7.443e-06 0)
(0.000867 -1.683e-05 0)
(0.0008731 -2.617e-05 0)
(0.0008814 -3.555e-05 0)
(0.0008921 -4.505e-05 0)
(0.0009053 -5.472e-05 0)
(0.0009209 -6.462e-05 0)
(0.000939 -7.48e-05 0)
(0.0009598 -8.53e-05 0)
(0.0009832 -9.614e-05 0)
(0.001009 -0.0001073 0)
(0.001038 -0.0001189 0)
(0.00107 -0.0001307 0)
(0.001105 -0.0001429 0)
(0.001143 -0.0001553 0)
(0.001184 -0.0001678 0)
(0.001229 -0.0001804 0)
(0.001276 -0.0001928 0)
(0.001326 -0.000205 0)
(0.001379 -0.0002167 0)
(0.001435 -0.0002277 0)
(0.001494 -0.0002377 0)
(0.001555 -0.0002465 0)
(0.001617 -0.0002537 0)
(0.001681 -0.000259 0)
(0.001747 -0.000262 0)
(0.001812 -0.0002626 0)
(0.001878 -0.0002602 0)
(0.001942 -0.0002547 0)
(0.002005 -0.0002457 0)
(0.002065 -0.0002332 0)
(0.002121 -0.0002171 0)
(0.002173 -0.0001973 0)
(0.002219 -0.0001739 0)
(0.00226 -0.0001474 0)
(0.002293 -0.000118 0)
(0.002319 -8.623e-05 0)
(0.002336 -5.283e-05 0)
(0.002346 -1.849e-05 0)
(0.002346 1.6e-05 0)
(0.002338 4.986e-05 0)
(0.002322 8.239e-05 0)
(0.002297 0.000113 0)
(0.002266 0.0001411 0)
(0.002228 0.0001664 0)
(0.002183 0.0001886 0)
(0.002134 0.0002076 0)
(0.002081 0.0002233 0)
(0.002023 0.0002358 0)
(0.001964 0.0002451 0)
(0.001902 0.0002514 0)
(0.001838 0.0002549 0)
(0.001774 0.0002557 0)
(0.001711 0.0002542 0)
(0.001647 0.0002506 0)
(0.001585 0.0002452 0)
(0.001524 0.0002382 0)
(0.001465 0.0002299 0)
(0.001408 0.0002207 0)
(0.001353 0.0002106 0)
(0.001301 0.0002001 0)
(0.001251 0.0001891 0)
(0.001204 0.0001781 0)
(0.00116 0.000167 0)
(0.001119 0.000156 0)
(0.00108 0.0001452 0)
(0.001044 0.0001348 0)
(0.00101 0.0001248 0)
(0.0009789 0.0001152 0)
(0.0009501 0.000106 0)
(0.0009236 9.739e-05 0)
(0.0008991 8.925e-05 0)
(0.0008767 8.163e-05 0)
(0.0008561 7.451e-05 0)
(0.0008373 6.788e-05 0)
(0.0008201 6.173e-05 0)
(0.0008045 5.605e-05 0)
(0.0007902 5.081e-05 0)
(0.0007773 4.599e-05 0)
(0.0007655 4.156e-05 0)
(0.0007549 3.751e-05 0)
(0.0007452 3.38e-05 0)
(0.0007365 3.043e-05 0)
(0.0007287 2.735e-05 0)
(0.0007216 2.456e-05 0)
(0.0007152 2.202e-05 0)
(0.0007095 1.973e-05 0)
(0.0007043 1.767e-05 0)
(0.0006997 1.581e-05 0)
(0.0006956 1.415e-05 0)
(0.0006918 1.267e-05 0)
(0.0006885 1.137e-05 0)
(0.0006855 1.022e-05 0)
(0.0006828 9.237e-06 0)
(0.0006804 8.4e-06 0)
(0.0006782 7.709e-06 0)
(0.0006762 7.16e-06 0)
(0.0006744 6.748e-06 0)
(0.0006727 6.468e-06 0)
(0.0006712 6.31e-06 0)
(0.0006698 6.255e-06 0)
(0.0006684 6.271e-06 0)
(0.0006672 6.306e-06 0)
(0.001208 0.0001096 0)
(0.00123 0.0002693 0)
(0.001259 0.0003684 0)
(0.001281 0.0004172 0)
(0.001293 0.0004303 0)
(0.001293 0.0004204 0)
(0.001282 0.0003969 0)
(0.001263 0.0003663 0)
(0.001239 0.0003329 0)
(0.001212 0.0002993 0)
(0.001183 0.0002669 0)
(0.001154 0.0002365 0)
(0.001126 0.0002083 0)
(0.0011 0.0001825 0)
(0.001075 0.0001589 0)
(0.001053 0.0001373 0)
(0.001033 0.0001176 0)
(0.001016 9.951e-05 0)
(0.001001 8.282e-05 0)
(0.0009885 6.733e-05 0)
(0.0009785 5.284e-05 0)
(0.000971 3.917e-05 0)
(0.0009658 2.618e-05 0)
(0.0009631 1.369e-05 0)
(0.0009626 1.585e-06 0)
(0.0009646 -1.027e-05 0)
(0.0009689 -2.2e-05 0)
(0.0009755 -3.369e-05 0)
(0.0009846 -4.546e-05 0)
(0.0009961 -5.738e-05 0)
(0.00101 -6.953e-05 0)
(0.001027 -8.197e-05 0)
(0.001046 -9.477e-05 0)
(0.001068 -0.000108 0)
(0.001092 -0.0001216 0)
(0.00112 -0.0001356 0)
(0.00115 -0.0001501 0)
(0.001184 -0.000165 0)
(0.001221 -0.0001803 0)
(0.001261 -0.0001958 0)
(0.001304 -0.0002115 0)
(0.00135 -0.0002272 0)
(0.0014 -0.0002428 0)
(0.001452 -0.000258 0)
(0.001508 -0.0002726 0)
(0.001567 -0.0002864 0)
(0.001628 -0.0002989 0)
(0.001692 -0.0003098 0)
(0.001757 -0.0003188 0)
(0.001825 -0.0003254 0)
(0.001893 -0.0003293 0)
(0.001962 -0.0003299 0)
(0.002031 -0.0003269 0)
(0.002099 -0.00032 0)
(0.002165 -0.0003088 0)
(0.002228 -0.0002932 0)
(0.002287 -0.0002729 0)
(0.002342 -0.0002481 0)
(0.002391 -0.0002189 0)
(0.002434 -0.0001855 0)
(0.002469 -0.0001485 0)
(0.002496 -0.0001086 0)
(0.002515 -6.662e-05 0)
(0.002525 -2.342e-05 0)
(0.002525 1.997e-05 0)
(0.002517 6.256e-05 0)
(0.002499 0.0001034 0)
(0.002474 0.0001418 0)
(0.00244 0.0001771 0)
(0.0024 0.0002088 0)
(0.002354 0.0002367 0)
(0.002302 0.0002605 0)
(0.002245 0.0002803 0)
(0.002185 0.000296 0)
(0.002123 0.0003077 0)
(0.002058 0.0003157 0)
(0.001991 0.0003202 0)
(0.001924 0.0003213 0)
(0.001857 0.0003196 0)
(0.001791 0.0003151 0)
(0.001725 0.0003084 0)
(0.001661 0.0002998 0)
(0.001599 0.0002895 0)
(0.001539 0.000278 0)
(0.001482 0.0002655 0)
(0.001427 0.0002523 0)
(0.001375 0.0002386 0)
(0.001325 0.0002248 0)
(0.001279 0.0002109 0)
(0.001235 0.0001972 0)
(0.001194 0.0001837 0)
(0.001156 0.0001706 0)
(0.001121 0.000158 0)
(0.001088 0.000146 0)
(0.001058 0.0001345 0)
(0.00103 0.0001236 0)
(0.001004 0.0001134 0)
(0.0009799 0.0001037 0)
(0.0009581 9.476e-05 0)
(0.0009381 8.64e-05 0)
(0.0009199 7.864e-05 0)
(0.0009032 7.146e-05 0)
(0.0008881 6.482e-05 0)
(0.0008743 5.872e-05 0)
(0.0008617 5.311e-05 0)
(0.0008504 4.797e-05 0)
(0.0008401 4.327e-05 0)
(0.0008308 3.898e-05 0)
(0.0008223 3.507e-05 0)
(0.0008148 3.151e-05 0)
(0.0008079 2.828e-05 0)
(0.0008018 2.536e-05 0)
(0.0007962 2.273e-05 0)
(0.0007912 2.035e-05 0)
(0.0007868 1.823e-05 0)
(0.0007828 1.633e-05 0)
(0.0007792 1.465e-05 0)
(0.000776 1.317e-05 0)
(0.0007731 1.188e-05 0)
(0.0007705 1.078e-05 0)
(0.0007681 9.859e-06 0)
(0.000766 9.109e-06 0)
(0.0007641 8.523e-06 0)
(0.0007623 8.094e-06 0)
(0.0007608 7.81e-06 0)
(0.0007593 7.651e-06 0)
(0.0007579 7.59e-06 0)
(0.0007566 7.584e-06 0)
(0.001206 9.553e-05 0)
(0.001225 0.0002421 0)
(0.001251 0.000341 0)
(0.001276 0.0003974 0)
(0.001293 0.0004211 0)
(0.001301 0.0004217 0)
(0.0013 0.0004071 0)
(0.001291 0.0003833 0)
(0.001277 0.0003545 0)
(0.001259 0.0003236 0)
(0.001238 0.0002924 0)
(0.001216 0.000262 0)
(0.001193 0.0002331 0)
(0.001172 0.0002059 0)
(0.001151 0.0001805 0)
(0.001132 0.000157 0)
(0.001115 0.0001351 0)
(0.001099 0.0001147 0)
(0.001086 9.571e-05 0)
(0.001075 7.788e-05 0)
(0.001066 6.106e-05 0)
(0.00106 4.507e-05 0)
(0.001055 2.975e-05 0)
(0.001053 1.495e-05 0)
(0.001054 5.306e-07 0)
(0.001056 -1.365e-05 0)
(0.001061 -2.772e-05 0)
(0.001068 -4.179e-05 0)
(0.001078 -5.597e-05 0)
(0.00109 -7.036e-05 0)
(0.001104 -8.505e-05 0)
(0.001121 -0.0001001 0)
(0.001141 -0.0001156 0)
(0.001164 -0.0001315 0)
(0.001189 -0.000148 0)
(0.001217 -0.000165 0)
(0.001248 -0.0001825 0)
(0.001283 -0.0002005 0)
(0.00132 -0.000219 0)
(0.001361 -0.0002377 0)
(0.001405 -0.0002567 0)
(0.001452 -0.0002757 0)
(0.001503 -0.0002945 0)
(0.001557 -0.0003128 0)
(0.001614 -0.0003305 0)
(0.001674 -0.0003471 0)
(0.001736 -0.0003622 0)
(0.001802 -0.0003754 0)
(0.001869 -0.0003863 0)
(0.001938 -0.0003943 0)
(0.002008 -0.000399 0)
(0.002079 -0.0003998 0)
(0.00215 -0.0003963 0)
(0.002219 -0.000388 0)
(0.002287 -0.0003745 0)
(0.002352 -0.0003557 0)
(0.002413 -0.0003312 0)
(0.00247 -0.0003012 0)
(0.002521 -0.0002658 0)
(0.002565 -0.0002254 0)
(0.002602 -0.0001806 0)
(0.00263 -0.0001321 0)
(0.002649 -8.105e-05 0)
(0.002659 -2.852e-05 0)
(0.00266 2.421e-05 0)
(0.002651 7.592e-05 0)
(0.002632 0.0001255 0)
(0.002606 0.000172 0)
(0.002571 0.0002147 0)
(0.00253 0.000253 0)
(0.002482 0.0002867 0)
(0.002429 0.0003155 0)
(0.002371 0.0003394 0)
(0.002309 0.0003584 0)
(0.002245 0.0003727 0)
(0.002178 0.0003824 0)
(0.00211 0.0003879 0)
(0.002041 0.0003894 0)
(0.001973 0.0003873 0)
(0.001905 0.0003821 0)
(0.001838 0.000374 0)
(0.001772 0.0003636 0)
(0.001709 0.0003513 0)
(0.001647 0.0003374 0)
(0.001588 0.0003224 0)
(0.001532 0.0003065 0)
(0.001479 0.00029 0)
(0.001428 0.0002733 0)
(0.001381 0.0002565 0)
(0.001336 0.0002399 0)
(0.001294 0.0002237 0)
(0.001255 0.0002079 0)
(0.001218 0.0001926 0)
(0.001185 0.000178 0)
(0.001153 0.0001641 0)
(0.001125 0.0001509 0)
(0.001098 0.0001385 0)
(0.001073 0.0001268 0)
(0.001051 0.0001159 0)
(0.00103 0.0001058 0)
(0.001012 9.634e-05 0)
(0.0009944 8.76e-05 0)
(0.0009787 7.953e-05 0)
(0.0009644 7.209e-05 0)
(0.0009514 6.525e-05 0)
(0.0009397 5.898e-05 0)
(0.000929 5.324e-05 0)
(0.0009193 4.799e-05 0)
(0.0009105 4.321e-05 0)
(0.0009026 3.886e-05 0)
(0.0008955 3.49e-05 0)
(0.0008891 3.132e-05 0)
(0.0008833 2.808e-05 0)
(0.0008781 2.517e-05 0)
(0.0008734 2.255e-05 0)
(0.0008693 2.02e-05 0)
(0.0008655 1.812e-05 0)
(0.0008621 1.629e-05 0)
(0.0008591 1.468e-05 0)
(0.0008564 1.329e-05 0)
(0.000854 1.212e-05 0)
(0.0008518 1.115e-05 0)
(0.0008498 1.037e-05 0)
(0.000848 9.771e-06 0)
(0.0008464 9.344e-06 0)
(0.0008449 9.07e-06 0)
(0.0008435 8.924e-06 0)
(0.0008422 8.874e-06 0)
(0.001205 8.428e-05 0)
(0.001221 0.0002184 0)
(0.001245 0.0003146 0)
(0.001269 0.000375 0)
(0.00129 0.0004061 0)
(0.001303 0.0004151 0)
(0.00131 0.0004083 0)
(0.001309 0.000391 0)
(0.001303 0.0003672 0)
(0.001293 0.0003398 0)
(0.001279 0.0003107 0)
(0.001263 0.0002814 0)
(0.001247 0.0002526 0)
(0.00123 0.0002249 0)
(0.001214 0.0001985 0)
(0.001198 0.0001735 0)
(0.001184 0.00015 0)
(0.001171 0.0001278 0)
(0.00116 0.0001068 0)
(0.001151 8.699e-05 0)
(0.001144 6.808e-05 0)
(0.001139 4.996e-05 0)
(0.001135 3.249e-05 0)
(0.001134 1.551e-05 0)
(0.001135 -1.129e-06 0)
(0.001138 -1.756e-05 0)
(0.001143 -3.391e-05 0)
(0.001151 -5.031e-05 0)
(0.001161 -6.688e-05 0)
(0.001173 -8.371e-05 0)
(0.001188 -0.0001009 0)
(0.001205 -0.0001186 0)
(0.001225 -0.0001367 0)
(0.001247 -0.0001555 0)
(0.001273 -0.0001748 0)
(0.001301 -0.0001948 0)
(0.001332 -0.0002153 0)
(0.001366 -0.0002364 0)
(0.001404 -0.0002581 0)
(0.001444 -0.0002801 0)
(0.001488 -0.0003023 0)
(0.001536 -0.0003246 0)
(0.001586 -0.0003467 0)
(0.00164 -0.0003682 0)
(0.001697 -0.000389 0)
(0.001757 -0.0004085 0)
(0.001819 -0.0004263 0)
(0.001885 -0.0004418 0)
(0.001952 -0.0004547 0)
(0.002021 -0.0004642 0)
(0.002092 -0.0004697 0)
(0.002163 -0.0004708 0)
(0.002234 -0.0004668 0)
(0.002304 -0.0004572 0)
(0.002372 -0.0004415 0)
(0.002438 -0.0004194 0)
(0.0025 -0.0003908 0)
(0.002557 -0.0003556 0)
(0.002609 -0.0003139 0)
(0.002653 -0.0002663 0)
(0.002691 -0.0002134 0)
(0.002719 -0.0001562 0)
(0.002739 -9.579e-05 0)
(0.002749 -3.365e-05 0)
(0.002749 2.871e-05 0)
(0.00274 8.979e-05 0)
(0.002721 0.0001482 0)
(0.002694 0.000203 0)
(0.002659 0.0002531 0)
(0.002617 0.0002981 0)
(0.002569 0.0003377 0)
(0.002515 0.0003714 0)
(0.002457 0.0003995 0)
(0.002395 0.0004218 0)
(0.002331 0.0004386 0)
(0.002264 0.00045 0)
(0.002196 0.0004565 0)
(0.002127 0.0004583 0)
(0.002058 0.0004559 0)
(0.00199 0.0004498 0)
(0.001923 0.0004405 0)
(0.001857 0.0004283 0)
(0.001793 0.0004139 0)
(0.001732 0.0003976 0)
(0.001673 0.00038 0)