/*--------------------------------*- C++ -*----------------------------------*\
  =========                 |
  \\      /  F ield         | OpenFOAM: The Open Source CFD Toolbox
   \\    /   O peration     | Website:  https://openfoam.org
    \\  /    A nd           | Version:  7
     \\/     M anipulation  |
\*---------------------------------------------------------------------------*/
FoamFile
{
    version     2.0;
    format      ascii;
    class       volScalarField;
    location    "719.999473410875453";
    object      Y.K;
}
// * * * * * * * * * * * * * * * * * * * * * * * * * * * * * * * * * * * * * //

dimensions      [0 0 0 0 0 0 0];

internalField   nonuniform List<scalar> 
4096
(
1.581e-68
-8.532e-70
2.025e-67
-1.181e-67
-1.54e-68
2.998e-68
-1.412e-68
-5.005e-69
3.046e-68
-2.649e-67
4.118e-66
-6.355e-65
9.612e-64
-1.292e-62
1.701e-61
-2.079e-60
2.414e-59
-2.697e-58
2.798e-57
-2.819e-56
2.695e-55
-2.436e-54
2.086e-53
-1.661e-52
1.22e-51
-7.678e-51
4.112e-50
-1.675e-49
-2.294e-50
1.02e-47
-1.601e-46
1.784e-45
-1.659e-44
1.393e-43
-1.061e-42
7.247e-42
-4.215e-41
1.966e-40
-5.627e-40
-3.651e-39
7.05e-38
-7.217e-37
5.885e-36
-4.032e-35
2.464e-34
-1.325e-33
6.468e-33
-2.852e-32
1.158e-31
-4.089e-31
1.497e-30
-2.317e-30
8.895e-30
1.673e-28
1.476e-28
7.633e-27
1.438e-26
2.401e-25
9.495e-25
3.171e-24
2.419e-23
1.097e-22
8.619e-22
2.747e-21
9.667e-21
1.187e-19
1.615e-18
4.858e-18
1.085e-17
2.155e-17
4.016e-17
7.171e-17
1.239e-16
2.079e-16
3.403e-16
5.438e-16
8.5e-16
1.301e-15
1.953e-15
2.875e-15
4.16e-15
5.917e-15
8.283e-15
1.142e-14
1.553e-14
2.083e-14
2.759e-14
3.612e-14
4.677e-14
5.994e-14
7.607e-14
9.569e-14
1.194e-13
1.477e-13
1.815e-13
2.215e-13
2.686e-13
3.238e-13
3.883e-13
4.631e-13
5.497e-13
6.496e-13
7.644e-13
8.959e-13
1.046e-12
1.217e-12
1.412e-12
1.633e-12
1.883e-12
2.165e-12
2.482e-12
2.839e-12
3.24e-12
3.69e-12
4.192e-12
4.753e-12
5.379e-12
6.075e-12
6.85e-12
7.708e-12
8.66e-12
9.711e-12
1.087e-11
1.213e-11
1.35e-11
1.493e-11
1.633e-11
1.742e-11
3.716e-67
-2.111e-66
2.405e-66
-3.372e-67
-1.572e-66
1.262e-66
-1.117e-67
-2.559e-67
1.886e-66
-1.514e-65
2.256e-64
-3.572e-63
5.28e-62
-7.312e-61
9.498e-60
-1.161e-58
1.341e-57
-1.47e-56
1.533e-55
-1.525e-54
1.446e-53
-1.304e-52
1.111e-51
-8.833e-51
6.472e-50
-4.093e-49
2.228e-48
-9.65e-48
6.572e-48
4.604e-46
-7.801e-45
8.822e-44
-8.363e-43
7.053e-42
-5.406e-41
3.679e-40
-2.17e-39
1.039e-38
-3.517e-38
-1.183e-37
3.097e-36
-3.331e-35
2.7e-34
-1.857e-33
1.141e-32
-6.125e-32
2.99e-31
-1.315e-30
5.426e-30
-1.904e-29
7.078e-29
-8.738e-29
4.873e-28
8.053e-27
1.59e-26
3.516e-25
1.075e-24
1.198e-23
4.669e-23
1.663e-22
1.092e-21
4.862e-21
3.277e-20
1.038e-19
2.961e-19
1.723e-18
4.918e-18
1.088e-17
2.163e-17
4.041e-17
7.222e-17
1.246e-16
2.085e-16
3.396e-16
5.394e-16
8.371e-16
1.271e-15
1.893e-15
2.765e-15
3.968e-15
5.6e-15
7.784e-15
1.066e-14
1.441e-14
1.922e-14
2.534e-14
3.305e-14
4.265e-14
5.45e-14
6.902e-14
8.667e-14
1.08e-13
1.335e-13
1.64e-13
2.001e-13
2.427e-13
2.926e-13
3.51e-13
4.19e-13
4.977e-13
5.887e-13
6.934e-13
8.136e-13
9.512e-13
1.108e-12
1.287e-12
1.49e-12
1.72e-12
1.98e-12
2.273e-12
2.603e-12
2.975e-12
3.391e-12
3.858e-12
4.379e-12
4.962e-12
5.61e-12
6.333e-12
7.135e-12
8.025e-12
9.011e-12
1.01e-11
1.13e-11
1.262e-11
1.406e-11
1.561e-11
1.721e-11
1.871e-11
-8.597e-66
5.977e-65
-1.483e-64
1.933e-64
-1.276e-64
2.029e-65
2.268e-65
-4.587e-66
1.165e-64
-8.26e-64
1.204e-62
-1.909e-61
2.818e-60
-3.888e-59
5.022e-58
-6.098e-57
6.992e-56
-7.606e-55
7.878e-54
-7.786e-53
7.344e-52
-6.593e-51
5.602e-50
-4.452e-49
3.269e-48
-2.091e-47
1.175e-46
-5.551e-46
1.019e-45
1.603e-44
-3.328e-43
3.94e-42
-3.811e-41
3.257e-40
-2.534e-39
1.75e-38
-1.063e-37
5.306e-37
-2.316e-36
-3.35e-37
1.058e-34
-1.291e-33
1.092e-32
-7.657e-32
4.795e-31
-2.583e-30
1.268e-29
-5.6e-29
2.346e-28
-8.133e-28
3.168e-27
-2.061e-27
2.774e-26
3.655e-25
1.43e-24
1.506e-23
7.33e-23
6.065e-22
2.31e-21
8.539e-21
4.918e-20
1.955e-19
1.018e-18
3.042e-18
7.118e-18
1.508e-17
2.997e-17
5.672e-17
1.029e-16
1.797e-16
3.032e-16
4.955e-16
7.863e-16
1.214e-15
1.827e-15
2.686e-15
3.863e-15
5.445e-15
7.533e-15
1.025e-14
1.372e-14
1.812e-14
2.362e-14
3.043e-14
3.878e-14
4.896e-14
6.127e-14
7.607e-14
9.377e-14
1.148e-13
1.398e-13
1.692e-13
2.037e-13
2.442e-13
2.914e-13
3.463e-13
4.099e-13
4.835e-13
5.682e-13
6.657e-13
7.774e-13
9.053e-13
1.051e-12
1.217e-12
1.406e-12
1.62e-12
1.862e-12
2.135e-12
2.443e-12
2.79e-12
3.18e-12
3.616e-12
4.105e-12
4.651e-12
5.261e-12
5.94e-12
6.696e-12
7.535e-12
8.466e-12
9.497e-12
1.064e-11
1.19e-11
1.328e-11
1.481e-11
1.648e-11
1.83e-11
2.028e-11
2.247e-11
1.419e-64
-1.127e-63
3.921e-63
-8.226e-63
1.091e-62
-9.056e-63
4.174e-63
-6.38e-64
7.427e-63
-4.287e-62
6.089e-61
-9.646e-60
1.416e-58
-1.938e-57
2.48e-56
-2.978e-55
3.376e-54
-3.633e-53
3.725e-52
-3.649e-51
3.417e-50
-3.052e-49
2.587e-48
-2.059e-47
1.521e-46
-9.922e-46
5.834e-45
-2.872e-44
9.532e-44
2.412e-43
-1.129e-41
1.486e-40
-1.502e-39
1.319e-38
-1.056e-37
7.489e-37
-4.741e-36
2.483e-35
-1.448e-34
2.452e-34
1.927e-33
-3.799e-32
3.6e-31
-2.641e-30
1.726e-29
-9.398e-29
4.681e-28
-2.092e-27
9.06e-27
-3.057e-26
1.268e-25
7.121e-26
1.607e-24
1.447e-23
9.508e-23
7.654e-22
4.038e-21
2.859e-20
1.091e-19
3.67e-19
1.704e-18
5.244e-18
1.289e-17
2.869e-17
5.978e-17
1.18e-16
2.222e-16
4.003e-16
6.924e-16
1.153e-15
1.852e-15
2.877e-15
4.333e-15
6.34e-15
9.035e-15
1.256e-14
1.708e-14
2.275e-14
2.976e-14
3.826e-14
4.847e-14
6.059e-14
7.484e-14
9.15e-14
1.108e-13
1.332e-13
1.59e-13
1.887e-13
2.227e-13
2.618e-13
3.065e-13
3.577e-13
4.162e-13
4.831e-13
5.594e-13
6.464e-13
7.455e-13
8.584e-13
9.867e-13
1.132e-12
1.298e-12
1.485e-12
1.696e-12
1.936e-12
2.205e-12
2.509e-12
2.851e-12
3.235e-12
3.665e-12
4.147e-12
4.687e-12
5.289e-12
5.96e-12
6.708e-12
7.539e-12
8.462e-12
9.486e-12
1.062e-11
1.187e-11
1.326e-11
1.478e-11
1.646e-11
1.83e-11
2.033e-11
2.254e-11
2.496e-11
2.762e-11
3.093e-11
-2.037e-63
1.758e-62
-7.58e-62
2.129e-61
-4.062e-61
5.326e-61
-4.553e-61
2.102e-61
3.961e-61
-2.083e-60
2.935e-59
-4.618e-58
6.698e-57
-9.03e-56
1.136e-54
-1.34e-53
1.493e-52
-1.58e-51
1.597e-50
-1.545e-49
1.432e-48
-1.27e-47
1.074e-46
-8.57e-46
6.395e-45
-4.28e-44
2.647e-43
-1.443e-42
6.742e-42
-1.599e-41
-2.422e-40
4.34e-39
-4.843e-38
4.476e-37
-3.769e-36
2.781e-35
-1.846e-34
1.078e-33
-6.064e-33
2.125e-32
-3.788e-32
-5.435e-31
8.476e-30
-7.008e-29
5.047e-28
-2.813e-27
1.44e-26
-6.606e-26
3.066e-25
-9.629e-25
4.275e-24
8.266e-24
9.576e-23
7.711e-22
5.398e-21
3.761e-20
1.956e-19
1.039e-18
3.639e-18
1.024e-17
2.604e-17
6.172e-17
1.376e-16
2.9e-16
5.795e-16
1.1e-15
1.988e-15
3.433e-15
5.674e-15
9.006e-15
1.376e-14
2.029e-14
2.895e-14
4.008e-14
5.398e-14
7.088e-14
9.098e-14
1.144e-13
1.412e-13
1.715e-13
2.053e-13
2.428e-13
2.842e-13
3.296e-13
3.794e-13
4.341e-13
4.943e-13
5.605e-13
6.337e-13
7.147e-13
8.048e-13
9.05e-13
1.017e-12
1.142e-12
1.282e-12
1.439e-12
1.615e-12
1.813e-12
2.036e-12
2.285e-12
2.566e-12
2.88e-12
3.233e-12
3.629e-12
4.072e-12
4.568e-12
5.123e-12
5.742e-12
6.433e-12
7.203e-12
8.059e-12
9.012e-12
1.007e-11
1.124e-11
1.254e-11
1.398e-11
1.556e-11
1.731e-11
1.924e-11
2.136e-11
2.369e-11
2.624e-11
2.903e-11
3.208e-11
3.541e-11
3.904e-11
4.302e-11
4.833e-11
2.705e-62
-2.467e-61
1.235e-60
-4.275e-60
1.055e-59
-1.878e-59
2.316e-59
-1.599e-59
1.624e-59
-7.916e-59
1.343e-57
-2.09e-56
2.964e-55
-3.896e-54
4.768e-53
-5.474e-52
5.941e-51
-6.139e-50
6.074e-49
-5.774e-48
5.28e-47
-4.641e-46
3.908e-45
-3.13e-44
2.365e-43
-1.631e-42
1.064e-41
-6.419e-41
3.456e-40
-1.757e-39
1.046e-39
7.316e-38
-1.14e-36
1.173e-35
-1.087e-34
8.504e-34
-5.96e-33
3.866e-32
-2.25e-31
1.112e-30
-5.071e-30
9.961e-30
5.509e-29
-1.048e-27
1.048e-26
-6.326e-26
3.44e-25
-1.679e-24
9.082e-24
-2.337e-23
1.122e-22
7.243e-22
5.091e-21
4.25e-20
2.549e-19
1.461e-18
5.632e-18
1.763e-17
4.985e-17
1.309e-16
3.217e-16
7.421e-16
1.61e-15
3.295e-15
6.366e-15
1.164e-14
2.021e-14
3.338e-14
5.263e-14
7.946e-14
1.152e-13
1.609e-13
2.171e-13
2.839e-13
3.606e-13
4.465e-13
5.401e-13
6.399e-13
7.447e-13
8.531e-13
9.645e-13
1.078e-12
1.195e-12
1.314e-12
1.438e-12
1.566e-12
1.7e-12
1.843e-12
1.996e-12
2.161e-12
2.34e-12
2.537e-12
2.754e-12
2.993e-12
3.259e-12
3.555e-12
3.885e-12
4.252e-12
4.663e-12
5.122e-12
5.634e-12
6.206e-12
6.844e-12
7.556e-12
8.35e-12
9.234e-12
1.022e-11
1.131e-11
1.253e-11
1.388e-11
1.537e-11
1.703e-11
1.886e-11
2.088e-11
2.311e-11
2.557e-11
2.828e-11
3.125e-11
3.451e-11
3.809e-11
4.2e-11
4.627e-11
5.092e-11
5.599e-11
6.15e-11
6.747e-11
7.397e-11
8.306e-11
-3.422e-61
3.238e-60
-1.809e-59
7.352e-59
-2.22e-58
5.019e-58
-8.195e-58
8.309e-58
8.184e-58
-5.422e-57
6.152e-56
-8.882e-55
1.212e-53
-1.53e-52
1.797e-51
-1.982e-50
2.072e-49
-2.071e-48
1.991e-47
-1.848e-46
1.659e-45
-1.44e-44
1.206e-43
-9.691e-43
7.42e-42
-5.289e-41
3.632e-40
-2.387e-39
1.413e-38
-9.539e-38
3.677e-37
-6.372e-37
-9.822e-36
1.837e-34
-2.225e-33
1.956e-32
-1.453e-31
1.045e-30
-6.948e-30
4.157e-29
-2.263e-28
1.102e-27
-3.287e-27
2.981e-27
4.985e-26
-4.714e-25
4.419e-24
-2.882e-23
2.253e-22
-2.712e-22
3.981e-21
3.469e-20
2.582e-19
1.684e-18
7.314e-18
2.602e-17
8.369e-17
2.492e-16
6.904e-16
1.784e-15
4.307e-15
9.722e-15
2.055e-14
4.077e-14
7.603e-14
1.337e-13
2.222e-13
3.503e-13
5.257e-13
7.533e-13
1.034e-12
1.366e-12
1.739e-12
2.144e-12
2.566e-12
2.992e-12
3.407e-12
3.8e-12
4.165e-12
4.499e-12
4.803e-12
5.077e-12
5.326e-12
5.557e-12
5.777e-12
5.993e-12
6.21e-12
6.437e-12
6.679e-12
6.945e-12
7.241e-12
7.57e-12
7.941e-12
8.359e-12
8.831e-12
9.364e-12
9.966e-12
1.064e-11
1.141e-11
1.226e-11
1.322e-11
1.429e-11
1.549e-11
1.682e-11
1.831e-11
1.997e-11
2.181e-11
2.385e-11
2.611e-11
2.862e-11
3.138e-11
3.444e-11
3.78e-11
4.151e-11
4.559e-11
5.007e-11
5.498e-11
6.037e-11
6.625e-11
7.268e-11
7.969e-11
8.731e-11
9.56e-11
1.046e-10
1.143e-10
1.248e-10
1.362e-10
1.525e-10
4.173e-60
-4.046e-59
2.457e-58
-1.136e-57
4.053e-57
-1.121e-56
2.342e-56
-3.254e-56
4.052e-56
-9.955e-56
2.248e-54
-3.432e-53
4.46e-52
-5.305e-51
5.869e-50
-6.116e-49
6.076e-48
-5.807e-47
5.374e-46
-4.837e-45
4.241e-44
-3.623e-43
3.011e-42
-2.424e-41
1.881e-40
-1.386e-39
9.989e-39
-6.99e-38
4.702e-37
-3e-36
1.749e-35
-9.854e-35
3.778e-34
-3.215e-34
-1.282e-32
1.793e-31
-1.887e-30
1.759e-29
-1.416e-28
9.972e-28
-6.654e-27
3.503e-26
-1.584e-25
7.03e-25
-2.984e-24
1.135e-23
-5.718e-24
-9.133e-23
3.04e-21
4.832e-21
1.661e-19
1.429e-18
7.272e-18
3.017e-17
1.128e-16
3.888e-16
1.241e-15
3.673e-15
1.009e-14
2.573e-14
6.097e-14
1.344e-13
2.762e-13
5.299e-13
9.512e-13
1.603e-12
2.545e-12
3.821e-12
5.443e-12
7.388e-12
9.589e-12
1.195e-11
1.434e-11
1.665e-11
1.874e-11
2.058e-11
2.202e-11
2.31e-11
2.386e-11
2.432e-11
2.455e-11
2.452e-11
2.439e-11
2.417e-11
2.391e-11
2.364e-11
2.34e-11
2.323e-11
2.31e-11
2.312e-11
2.322e-11
2.344e-11
2.378e-11
2.426e-11
2.489e-11
2.569e-11
2.665e-11
2.778e-11
2.911e-11
3.065e-11
3.24e-11
3.44e-11
3.665e-11
3.919e-11
4.203e-11
4.52e-11
4.873e-11
5.266e-11
5.7e-11
6.181e-11
6.712e-11
7.298e-11
7.942e-11
8.65e-11
9.427e-11
1.028e-10
1.121e-10
1.222e-10
1.333e-10
1.454e-10
1.585e-10
1.728e-10
1.882e-10
2.049e-10
2.229e-10
2.422e-10
2.629e-10
2.935e-10
-4.905e-59
4.835e-58
-3.135e-57
1.612e-56
-6.635e-56
2.193e-55
-5.683e-55
1.05e-54
1.995e-55
-9.066e-54
1.015e-52
-1.212e-51
1.416e-50
-1.54e-49
1.564e-48
-1.508e-47
1.4e-46
-1.264e-45
1.115e-44
-9.657e-44
8.223e-43
-6.884e-42
5.661e-41
-4.56e-40
3.583e-39
-2.733e-38
2.057e-37
-1.521e-36
1.098e-35
-7.703e-35
5.213e-34
-3.381e-33
2.052e-32
-1.139e-31
5.881e-31
-2.201e-30
2.59e-30
5.461e-29
-7.789e-28
6.741e-27
-5.122e-26
3.533e-25
-2.236e-24
1.379e-23
-7.476e-23
5.043e-22
-1.359e-21
5.496e-21
5.559e-20
5.773e-19
4.69e-18
2.519e-17
1.129e-16
4.592e-16
1.72e-15
5.946e-15
1.898e-14
5.59e-14
1.52e-13
3.818e-13
8.865e-13
1.905e-12
3.793e-12
7.015e-12
1.209e-11
1.947e-11
2.945e-11
4.198e-11
5.663e-11
7.266e-11
8.898e-11
1.045e-10
1.18e-10
1.289e-10
1.361e-10
1.412e-10
1.411e-10
1.396e-10
1.362e-10
1.313e-10
1.253e-10
1.187e-10
1.121e-10
1.056e-10
9.953e-11
9.397e-11
8.902e-11
8.471e-11
8.105e-11
7.803e-11
7.563e-11
7.382e-11
7.261e-11
7.18e-11
7.183e-11
7.22e-11
7.303e-11
7.442e-11
7.633e-11
7.876e-11
8.173e-11
8.526e-11
8.937e-11
9.411e-11
9.95e-11
1.056e-10
1.124e-10
1.201e-10
1.286e-10
1.38e-10
1.484e-10
1.599e-10
1.726e-10
1.864e-10
2.016e-10
2.183e-10
2.364e-10
2.562e-10
2.777e-10
3.011e-10
3.265e-10
3.539e-10
3.835e-10
4.155e-10
4.499e-10
4.868e-10
5.258e-10
5.847e-10
5.51e-58
-5.484e-57
3.748e-56
-2.11e-55
9.855e-55
-3.833e-54
1.227e-53
-3.103e-53
6.559e-53
-1.976e-52
2.561e-51
-3.304e-50
3.538e-49
-3.384e-48
3.041e-47
-2.643e-46
2.253e-45
-1.897e-44
1.582e-43
-1.309e-42
1.076e-41
-8.782e-41
7.117e-40
-5.718e-39
4.541e-38
-3.601e-37
2.833e-36
-2.203e-35
1.688e-34
-1.271e-33
9.365e-33
-6.756e-32
4.668e-31
-3.122e-30
1.984e-29
-1.202e-28
6.917e-28
-3.751e-27
1.85e-26
-9.594e-26
4.948e-25
-1.02e-24
-1.397e-25
2.611e-23
-2.235e-22
3.618e-21
-6.704e-23
2.162e-19
2.33e-18
1.49e-17
7.938e-17
3.841e-16
1.711e-15
7.018e-15
2.649e-14
9.192e-14
2.929e-13
8.573e-13
2.303e-12
5.684e-12
1.289e-11
2.691e-11
5.178e-11
9.205e-11
1.517e-10
2.329e-10
3.344e-10
4.515e-10
5.753e-10
6.969e-10
8.039e-10
8.885e-10
9.423e-10
9.662e-10
9.568e-10
9.294e-10
8.838e-10
8.254e-10
7.599e-10
6.921e-10
6.256e-10
5.628e-10
5.054e-10
4.539e-10
4.086e-10
3.693e-10
3.356e-10
3.07e-10
2.83e-10
2.63e-10
2.466e-10
2.333e-10
2.227e-10
2.145e-10
2.086e-10
2.047e-10
2.021e-10
2.021e-10
2.032e-10
2.057e-10
2.097e-10
2.151e-10
2.221e-10
2.305e-10
2.404e-10
2.519e-10
2.651e-10
2.8e-10
2.967e-10
3.153e-10
3.36e-10
3.589e-10
3.841e-10
4.118e-10
4.421e-10
4.753e-10
5.114e-10
5.508e-10
5.935e-10
6.398e-10
6.899e-10
7.44e-10
8.023e-10
8.65e-10
9.322e-10
1.004e-09
1.08e-09
1.196e-09
-5.802e-57
5.798e-56
-4.133e-55
2.516e-54
-1.315e-53
5.921e-53
-2.269e-52
6.951e-52
-7.745e-52
-6.43e-51
8.563e-50
-7.484e-49
5.83e-48
-4.405e-47
3.329e-46
-2.561e-45
1.998e-44
-1.57e-43
1.234e-42
-9.688e-42
7.593e-41
-5.952e-40
4.677e-39
-3.692e-38
2.925e-37
-2.319e-36
1.843e-35
-1.46e-34
1.141e-33
-8.792e-33
6.658e-32
-4.943e-31
3.574e-30
-2.536e-29
1.743e-28
-1.171e-27
7.614e-27
-4.782e-26
2.895e-25
-1.683e-24
9.407e-24
-5.037e-23
2.569e-22
-1.211e-21
7.056e-21
2.514e-20
4.969e-19
5.297e-18
3.651e-17
2.142e-16
1.147e-15
5.651e-15
2.558e-14
1.062e-13
4.036e-13
1.403e-12
4.457e-12
1.293e-11
3.423e-11
8.277e-11
1.829e-10
3.696e-10
6.848e-10
1.166e-09
1.831e-09
2.668e-09
3.627e-09
4.627e-09
5.554e-09
6.357e-09
6.878e-09
7.142e-09
7.066e-09
6.82e-09
6.402e-09
5.861e-09
5.257e-09
4.638e-09
4.041e-09
3.489e-09
2.996e-09
2.566e-09
2.198e-09
1.887e-09
1.628e-09
1.413e-09
1.235e-09
1.09e-09
9.706e-10
8.733e-10
7.941e-10
7.3e-10
6.783e-10
6.372e-10
6.049e-10
5.802e-10
5.619e-10
5.497e-10
5.421e-10
5.401e-10
5.42e-10
5.477e-10
5.573e-10
5.708e-10
5.88e-10
6.089e-10
6.336e-10
6.622e-10
6.949e-10
7.318e-10
7.73e-10
8.189e-10
8.696e-10
9.254e-10
9.867e-10
1.054e-09
1.127e-09
1.206e-09
1.292e-09
1.385e-09
1.486e-09
1.594e-09
1.711e-09
1.836e-09
1.97e-09
2.114e-09
2.263e-09
2.493e-09
5.558e-56
-5.54e-55
4.082e-54
-2.659e-53
1.54e-52
-8.023e-52
3.797e-51
-1.649e-50
6.618e-50
-2.467e-49
8.659e-49
-3.072e-48
1.384e-47
-9.68e-47
9.005e-46
-8.746e-45
7.957e-44
-6.703e-43
5.251e-42
-3.842e-41
2.628e-40
-1.676e-39
9.882e-39
-5.293e-38
2.502e-37
-1.077e-36
5.279e-36
-3.348e-35
2.33e-34
-1.999e-33
1.925e-32
-1.863e-31
1.753e-30
-1.543e-29
1.298e-28
-1.027e-27
7.731e-27
-5.547e-26
3.805e-25
-2.469e-24
1.576e-23
-9.405e-23
5.673e-22
-2.081e-21
9.455e-20
1.326e-18
1.092e-17
7.676e-17
4.948e-16
2.942e-15
1.61e-14
8.081e-14
3.712e-13
1.556e-12
5.946e-12
2.066e-11
6.525e-11
1.871e-10
4.867e-10
1.149e-09
2.464e-09
4.804e-09
8.535e-09
1.385e-08
2.065e-08
2.848e-08
3.655e-08
4.392e-08
4.963e-08
5.385e-08
5.377e-08
5.237e-08
4.928e-08
4.487e-08
3.971e-08
3.432e-08
2.911e-08
2.434e-08
2.013e-08
1.654e-08
1.354e-08
1.108e-08
9.089e-09
7.489e-09
6.212e-09
5.196e-09
4.388e-09
3.746e-09
3.234e-09
2.826e-09
2.501e-09
2.24e-09
2.032e-09
1.866e-09
1.734e-09
1.63e-09
1.549e-09
1.489e-09
1.445e-09
1.416e-09
1.397e-09
1.397e-09
1.403e-09
1.419e-09
1.445e-09
1.48e-09
1.525e-09
1.579e-09
1.642e-09
1.714e-09
1.796e-09
1.888e-09
1.99e-09
2.103e-09
2.228e-09
2.364e-09
2.513e-09
2.675e-09
2.85e-09
3.04e-09
3.245e-09
3.465e-09
3.701e-09
3.954e-09
4.225e-09
4.514e-09
4.812e-09
5.278e-09
-4.557e-55
4.526e-54
-3.415e-53
2.337e-52
-1.455e-51
8.318e-51
-4.404e-50
2.179e-49
-1.013e-48
4.409e-48
-1.736e-47
5.103e-47
4.014e-47
-2.212e-45
2.698e-44
-2.618e-43
2.248e-42
-1.785e-41
1.335e-40
-9.475e-40
6.398e-39
-4.104e-38
2.481e-37
-1.39e-36
6.924e-36
-2.941e-35
1.03e-34
-2.084e-34
-2.62e-33
4.652e-32
-4.978e-31
4.494e-30
-3.697e-29
2.853e-28
-2.095e-27
1.473e-26
-9.952e-26
6.474e-25
-4.045e-24
2.468e-23
-1.359e-22
7.857e-22
-3.104e-21
1.221e-19
1.868e-18
1.692e-17
1.323e-16
9.511e-16
6.308e-15
3.848e-14
2.151e-13
1.099e-12
5.11e-12
2.158e-11
8.263e-11
2.862e-10
8.954e-10
2.528e-09
6.438e-09
1.478e-08
3.062e-08
5.733e-08
9.725e-08
1.499e-07
2.112e-07
2.746e-07
3.318e-07
3.748e-07
4.014e-07
3.975e-07
3.805e-07
3.502e-07
3.106e-07
2.67e-07
2.235e-07
1.831e-07
1.475e-07
1.173e-07
9.254e-08
7.265e-08
5.697e-08
4.475e-08
3.53e-08
2.804e-08
2.247e-08
1.819e-08
1.489e-08
1.235e-08
1.038e-08
8.84e-09
7.635e-09
6.687e-09
5.938e-09
5.345e-09
4.875e-09
4.503e-09
4.211e-09
3.984e-09
3.811e-09
3.683e-09
3.594e-09
3.539e-09
3.514e-09
3.521e-09
3.55e-09
3.601e-09
3.676e-09
3.772e-09
3.89e-09
4.03e-09
4.192e-09
4.376e-09
4.582e-09
4.812e-09
5.066e-09
5.345e-09
5.649e-09
5.981e-09
6.341e-09
6.73e-09
7.149e-09
7.6e-09
8.083e-09
8.599e-09
9.15e-09
9.738e-09
1.034e-08
1.129e-08
3.2e-54
-3.149e-53
2.417e-52
-1.725e-51
1.145e-50
-7.11e-50
4.16e-49
-2.322e-48
1.262e-47
-6.908e-47
3.941e-46
-2.548e-45
1.58e-44
-1.175e-43
8.846e-43
-6.648e-42
4.917e-41
-3.554e-40
2.505e-39
-1.721e-38
1.153e-37
-7.55e-37
4.834e-36
-3.038e-35
1.881e-34
-1.164e-33
7.523e-33
-4.761e-32
3.026e-31
-1.926e-30
1.23e-29
-7.852e-29
4.991e-28
-3.148e-27
1.964e-26
-1.207e-25
7.282e-25
-4.297e-24
2.486e-23
-1.355e-22
8.647e-22
-3.658e-21
1.279e-19
2.155e-18
2.148e-17
1.866e-16
1.495e-15
1.106e-14
7.533e-14
4.702e-13
2.678e-12
1.387e-11
6.507e-11
2.759e-10
1.054e-09
3.624e-09
1.118e-08
3.095e-08
7.672e-08
1.703e-07
3.391e-07
6.065e-07
9.773e-07
1.423e-06
1.888e-06
2.31e-06
2.626e-06
2.8e-06
2.756e-06
2.609e-06
2.363e-06
2.055e-06
1.726e-06
1.408e-06
1.12e-06
8.745e-07
6.727e-07
5.121e-07
3.874e-07
2.923e-07
2.207e-07
1.673e-07
1.276e-07
9.819e-08
7.636e-08
6.01e-08
4.794e-08
3.878e-08
3.184e-08
2.654e-08
2.246e-08
1.93e-08
1.683e-08
1.49e-08
1.337e-08
1.217e-08
1.122e-08
1.048e-08
9.901e-09
9.457e-09
9.128e-09
8.894e-09
8.747e-09
8.661e-09
8.671e-09
8.725e-09
8.833e-09
8.996e-09
9.21e-09
9.475e-09
9.79e-09
1.015e-08
1.057e-08
1.104e-08
1.155e-08
1.212e-08
1.275e-08
1.343e-08
1.417e-08
1.497e-08
1.584e-08
1.676e-08
1.776e-08
1.882e-08
1.994e-08
2.115e-08
2.238e-08
2.432e-08
-1.744e-53
1.695e-52
-1.315e-51
9.769e-51
-6.904e-50
4.616e-49
-2.893e-48
1.676e-47
-8.735e-47
3.82e-46
-1.146e-45
-5.198e-45
8.266e-44
-8.971e-43
8.063e-42
-6.498e-41
4.892e-40
-3.509e-39
2.42e-38
-1.614e-37
1.042e-36
-6.503e-36
3.905e-35
-2.228e-34
1.208e-33
-6.004e-33
3.604e-32
-1.579e-31
3.444e-31
6.642e-31
-2.018e-29
2.203e-28
-1.903e-27
1.464e-26
-1.045e-25
7.052e-25
-4.54e-24
2.806e-23
-1.656e-22
9.877e-22
-3.602e-21
1.054e-19
1.992e-18
2.193e-17
2.114e-16
1.884e-15
1.555e-14
1.182e-13
8.242e-13
5.244e-12
3.03e-11
1.584e-10
7.463e-10
3.159e-09
1.198e-08
4.061e-08
1.228e-07
3.306e-07
7.916e-07
1.687e-06
3.206e-06
5.445e-06
8.295e-06
1.137e-05
1.417e-05
1.631e-05
1.75e-05
1.72e-05
1.62e-05
1.454e-05
1.25e-05
1.034e-05
8.278e-06
6.452e-06
4.919e-06
3.687e-06
2.728e-06
2.001e-06
1.462e-06
1.067e-06
7.806e-07
5.744e-07
4.261e-07
3.194e-07
2.423e-07
1.864e-07
1.455e-07
1.154e-07
9.294e-08
7.611e-08
6.335e-08
5.359e-08
4.607e-08
4.022e-08
3.564e-08
3.205e-08
2.921e-08
2.698e-08
2.523e-08
2.387e-08
2.283e-08
2.205e-08
2.15e-08
2.115e-08
2.094e-08
2.097e-08
2.109e-08
2.133e-08
2.17e-08
2.219e-08
2.279e-08
2.351e-08
2.434e-08
2.528e-08
2.633e-08
2.75e-08
2.879e-08
3.019e-08
3.172e-08
3.337e-08
3.515e-08
3.706e-08
3.911e-08
4.13e-08
4.362e-08
4.609e-08
4.86e-08
5.258e-08
6.253e-53
-5.148e-52
3.827e-51
-3.101e-50
2.627e-49
-2.236e-48
1.863e-47
-1.501e-46
1.167e-45
-8.775e-45
6.402e-44
-4.558e-43
3.176e-42
-2.178e-41
1.473e-40
-9.856e-40
6.534e-39
-4.3e-38
2.812e-37
-1.829e-36
1.183e-35
-7.617e-35
4.878e-34
-3.106e-33
1.966e-32
-1.236e-31
7.707e-31
-4.765e-30
2.918e-29
-1.768e-28
1.059e-27
-6.267e-27
3.657e-26
-2.102e-25
1.189e-24
-6.604e-24
3.602e-23
-1.914e-22
1.026e-21
-4.624e-21
4.818e-20
1.405e-18
1.772e-17
1.9e-16
1.88e-15
1.725e-14
1.462e-13
1.138e-12
8.083e-12
5.216e-11
3.041e-10
1.595e-09
7.492e-09
3.141e-08
1.172e-07
3.88e-07
1.137e-06
2.946e-06
6.741e-06
1.365e-05
2.457e-05
3.936e-05
5.644e-05
7.251e-05
8.513e-05
9.313e-05
9.183e-05
8.671e-05
7.787e-05
6.675e-05
5.494e-05
4.365e-05
3.367e-05
2.533e-05
1.868e-05
1.356e-05
9.739e-06
6.943e-06
4.935e-06
3.51e-06
2.506e-06
1.802e-06
1.308e-06
9.608e-07
7.152e-07
5.404e-07
4.149e-07
3.239e-07
2.572e-07
2.077e-07
1.707e-07
1.427e-07
1.213e-07
1.048e-07
9.196e-08
8.191e-08
7.401e-08
6.778e-08
6.287e-08
5.903e-08
5.604e-08
5.376e-08
5.207e-08
5.089e-08
5.015e-08
4.975e-08
4.983e-08
5.015e-08
5.074e-08
5.161e-08
5.275e-08
5.415e-08
5.58e-08
5.769e-08
5.983e-08
6.222e-08
6.486e-08
6.775e-08
7.09e-08
7.431e-08
7.799e-08
8.193e-08
8.616e-08
9.066e-08
9.544e-08
1.005e-07
1.057e-07
1.139e-07
6.792e-52
-6.607e-51
5.205e-50
-3.954e-49
2.885e-48
-2.028e-47
1.379e-46
-9.112e-46
5.889e-45
-3.742e-44
2.352e-43
-1.469e-42
9.152e-42
-5.706e-41
3.567e-40
-2.237e-39
1.409e-38
-8.903e-38
5.648e-37
-3.597e-36
2.3e-35
-1.477e-34
9.544e-34
-6.211e-33
4.019e-32
-2.587e-31
1.656e-30
-1.054e-29
6.654e-29
-4.168e-28
2.588e-27
-1.59e-26
9.668e-26
-5.807e-25
3.442e-24
-2.011e-23
1.159e-22
-6.461e-22
3.924e-21
-1.648e-20
5.221e-19
1.086e-17
1.342e-16
1.471e-15
1.496e-14
1.408e-13
1.22e-12
9.667e-12
6.961e-11
4.527e-10
2.644e-09
1.38e-08
6.399e-08
2.629e-07
9.528e-07
3.039e-06
8.509e-06
2.089e-05
4.502e-05
8.556e-05
0.0001442
0.0002163
0.0002906
0.0003497
0.0003967
0.000395
0.0003778
0.0003432
0.000297
0.0002463
0.0001968
0.0001523
0.0001146
8.431e-05
6.084e-05
4.326e-05
3.044e-05
2.129e-05
1.485e-05
1.037e-05
7.28e-06
5.151e-06
3.682e-06
2.666e-06
1.958e-06
1.461e-06
1.109e-06
8.561e-07
6.729e-07
5.385e-07
4.386e-07
3.636e-07
3.067e-07
2.63e-07
2.292e-07
2.028e-07
1.821e-07
1.658e-07
1.529e-07
1.427e-07
1.348e-07
1.286e-07
1.239e-07
1.205e-07
1.182e-07
1.168e-07
1.162e-07
1.166e-07
1.175e-07
1.19e-07
1.211e-07
1.238e-07
1.27e-07
1.309e-07
1.352e-07
1.401e-07
1.455e-07
1.514e-07
1.579e-07
1.649e-07
1.725e-07
1.807e-07
1.894e-07
1.987e-07
2.085e-07
2.19e-07
2.295e-07
2.464e-07
-1.861e-51
1.813e-50
-1.433e-49
1.095e-48
-8.05e-48
5.7e-47
-3.893e-46
2.568e-45
-1.64e-44
1.017e-43
-6.138e-43
3.622e-42
-2.099e-41
1.202e-40
-6.854e-40
3.926e-39
-2.284e-38
1.363e-37
-8.412e-37
5.392e-36
-3.583e-35
2.453e-34
-1.717e-33
1.215e-32
-8.445e-32
5.761e-31
-3.868e-30
2.558e-29
-1.669e-28
1.075e-27
-6.835e-27
4.292e-26
-2.663e-25
1.631e-24
-9.868e-24
5.897e-23
-3.457e-22
2.101e-21
-7.726e-21
2.461e-19
5.578e-18
7.484e-17
8.997e-16
1.008e-14
1.05e-13
1.009e-12
8.894e-12
7.136e-11
5.173e-10
3.366e-09
1.952e-08
1.003e-07
4.537e-07
1.8e-06
6.239e-06
1.883e-05
4.944e-05
0.0001129
0.0002257
0.0003964
0.0006179
0.0008602
0.001078
0.001239
0.001302
0.001267
0.001175
0.001039
0.0008816
0.0007202
0.0005685
0.0004354
0.0003248
0.0002368
0.0001693
0.0001193
8.315e-05
5.757e-05
3.976e-05
2.75e-05
1.912e-05
1.34e-05
9.496e-06
6.818e-06
4.969e-06
3.681e-06
2.775e-06
2.129e-06
1.664e-06
1.324e-06
1.073e-06
8.856e-07
7.436e-07
6.35e-07
5.511e-07
4.857e-07
4.344e-07
3.94e-07
3.621e-07
3.368e-07
3.169e-07
3.014e-07
2.894e-07
2.805e-07
2.741e-07
2.701e-07
2.674e-07
2.675e-07
2.687e-07
2.713e-07
2.752e-07
2.804e-07
2.868e-07
2.944e-07
3.032e-07
3.131e-07
3.242e-07
3.364e-07
3.498e-07
3.643e-07
3.799e-07
3.967e-07
4.147e-07
4.338e-07
4.54e-07
4.756e-07
4.972e-07
5.319e-07
6.036e-51
-5.488e-50
4.194e-49
-3.22e-48
2.461e-47
-1.863e-46
1.392e-45
-1.024e-44
7.393e-44
-5.239e-43
3.643e-42
-2.488e-41
1.671e-40
-1.105e-39
7.213e-39
-4.65e-38
2.967e-37
-1.876e-36
1.176e-35
-7.329e-35
4.537e-34
-2.794e-33
1.711e-32
-1.042e-31
6.305e-31
-3.791e-30
2.266e-29
-1.347e-28
7.958e-28
-4.676e-27
2.733e-26
-1.588e-25
9.175e-25
-5.272e-24
3.013e-23
-1.707e-22
9.898e-22
-4.394e-21
6.8e-20
2.179e-18
3.265e-17
4.299e-16
5.281e-15
6.052e-14
6.427e-13
6.279e-12
5.599e-11
4.521e-10
3.277e-09
2.115e-08
1.206e-07
6.027e-07
2.623e-06
9.891e-06
3.217e-05
9.005e-05
0.0002174
0.0004546
0.0008316
0.001326
0.001889
0.002435
0.002856
0.003132
0.003109
0.002975
0.002722
0.002395
0.002035
0.00167
0.001327
0.001023
0.0007676
0.0005625
0.0004038
0.0002851
0.0001989
0.0001376
9.492e-05
6.552e-05
4.544e-05
3.177e-05
2.245e-05
1.608e-05
1.169e-05
8.644e-06
6.503e-06
4.982e-06
3.887e-06
3.089e-06
2.501e-06
2.061e-06
1.728e-06
1.474e-06
1.278e-06
1.125e-06
1.004e-06
9.097e-07
8.346e-07
7.75e-07
7.28e-07
6.91e-07
6.623e-07
6.406e-07
6.247e-07
6.14e-07
6.073e-07
6.05e-07
6.065e-07
6.108e-07
6.181e-07
6.281e-07
6.409e-07
6.562e-07
6.74e-07
6.943e-07
7.17e-07
7.42e-07
7.694e-07
7.993e-07
8.315e-07
8.66e-07
9.03e-07
9.423e-07
9.839e-07
1.028e-06
1.072e-06
1.143e-06
1.61e-50
-1.575e-49
1.261e-48
-9.847e-48
7.456e-47
-5.477e-46
3.907e-45
-2.71e-44
1.833e-43
-1.211e-42
7.844e-42
-4.996e-41
3.14e-40
-1.954e-39
1.208e-38
-7.448e-38
4.59e-37
-2.835e-36
1.759e-35
-1.098e-34
6.897e-34
-4.363e-33
2.781e-32
-1.777e-31
1.13e-30
-7.131e-30
4.474e-29
-2.791e-28
1.731e-27
-1.069e-26
6.566e-26
-4.017e-25
2.447e-24
-1.485e-23
8.989e-23
-5.392e-22
3.388e-21
-1.284e-20
4.312e-19
1.083e-17
1.611e-16
2.161e-15
2.709e-14
3.161e-13
3.409e-12
3.368e-11
3.024e-10
2.442e-09
1.758e-08
1.116e-07
6.192e-07
2.974e-06
1.227e-05
4.32e-05
0.0001294
0.0003298
0.0007201
0.001364
0.002263
0.003233
0.004197
0.005166
0.005671
0.005752
0.005617
0.005332
0.004908
0.004391
0.003794
0.003166
0.002559
0.002009
0.001535
0.001143
0.0008324
0.0005947
0.0004189
0.0002922
0.0002028
0.0001408
9.804e-05
6.88e-05
4.879e-05
3.505e-05
2.556e-05
1.895e-05
1.43e-05
1.098e-05
8.588e-06
6.842e-06
5.551e-06
4.584e-06
3.851e-06
3.29e-06
2.856e-06
2.517e-06
2.25e-06
2.039e-06
1.872e-06
1.739e-06
1.633e-06
1.549e-06
1.484e-06
1.435e-06
1.398e-06
1.372e-06
1.356e-06
1.348e-06
1.35e-06
1.357e-06
1.371e-06
1.391e-06
1.416e-06
1.447e-06
1.484e-06
1.525e-06
1.571e-06
1.623e-06
1.679e-06
1.74e-06
1.807e-06
1.878e-06
1.954e-06
2.034e-06
2.12e-06
2.21e-06
2.3e-06
2.446e-06
-3.663e-50
3.384e-49
-2.611e-48
2.011e-47
-1.531e-46
1.151e-45
-8.522e-45
6.203e-44
-4.435e-43
3.114e-42
-2.147e-41
1.455e-40
-9.703e-40
6.371e-39
-4.125e-38
2.637e-37
-1.667e-36
1.043e-35
-6.469e-35
3.982e-34
-2.434e-33
1.479e-32
-8.945e-32
5.379e-31
-3.215e-30
1.913e-29
-1.134e-28
6.701e-28
-3.951e-27
2.325e-26
-1.367e-25
8.035e-25
-4.724e-24
2.781e-23
-1.635e-22
9.937e-22
-4.496e-21
8.823e-20
2.944e-18
4.792e-17
6.961e-16
9.484e-15
1.209e-13
1.432e-12
1.561e-11
1.554e-10
1.398e-09
1.123e-08
7.975e-08
4.943e-07
2.643e-06
1.206e-05
4.647e-05
0.0001504
0.0004079
0.0009334
0.001824
0.003135
0.004705
0.006095
0.007269
0.009967
0.01041
0.01037
0.01038
0.01032
0.009419
0.007187
0.006039
0.005125
0.004239
0.003408
0.002665
0.002029
0.001507
0.001096
0.0007846
0.0005553
0.0003905
0.0002741
0.0001929
0.0001367
9.777e-05
7.082e-05
5.206e-05
3.888e-05
2.954e-05
2.284e-05
1.798e-05
1.441e-05
1.176e-05
9.759e-06
8.239e-06
7.069e-06
6.161e-06
5.448e-06
4.886e-06
4.44e-06
4.085e-06
3.801e-06
3.576e-06
3.397e-06
3.257e-06
3.15e-06
3.07e-06
3.013e-06
2.979e-06
2.957e-06
2.961e-06
2.975e-06
3.002e-06
3.041e-06
3.093e-06
3.157e-06
3.231e-06
3.316e-06
3.411e-06
3.517e-06
3.633e-06
3.759e-06
3.894e-06
4.04e-06
4.195e-06
4.36e-06
4.534e-06
4.719e-06
4.903e-06
5.198e-06
-6.185e-50
6.038e-49
-4.857e-48
3.834e-47
-2.951e-46
2.213e-45
-1.618e-44
1.154e-43
-8.039e-43
5.48e-42
-3.662e-41
2.405e-40
-1.556e-39
9.944e-39
-6.291e-38
3.949e-37
-2.465e-36
1.533e-35
-9.516e-35
5.904e-34
-3.667e-33
2.281e-32
-1.424e-31
8.883e-31
-5.52e-30
3.415e-29
-2.105e-28
1.295e-27
-7.951e-27
4.879e-26
-2.995e-25
1.841e-24
-1.134e-23
7.017e-23
-4.335e-22
2.838e-21
-1.074e-20
4.018e-19
1.099e-17
1.781e-16
2.625e-15
3.632e-14
4.693e-13
5.619e-12
6.177e-11
6.17e-10
5.537e-09
4.408e-08
3.072e-07
1.846e-06
9.437e-06
4.045e-05
0.0001438
0.0004218
0.001025
0.002094
0.003659
0.005814
0.007922
0.01029
0.0102
0.01174
0.01124
0.01266
0.01094
0.01089
0.01309
0.0103
0.01029
0.00835
0.006456
0.005223
0.004156
0.003227
0.002445
0.001815
0.001324
0.0009547
0.000683
0.0004872
0.0003482
0.0002502
0.0001815
0.0001332
9.91e-05
7.488e-05
5.752e-05
4.495e-05
3.574e-05
2.891e-05
2.38e-05
1.992e-05
1.694e-05
1.464e-05
1.284e-05
1.142e-05
1.029e-05
9.397e-06
8.68e-06
8.106e-06
7.648e-06
7.285e-06
7.001e-06
6.782e-06
6.619e-06
6.503e-06
6.432e-06
6.39e-06
6.398e-06
6.428e-06
6.484e-06
6.567e-06
6.675e-06
6.806e-06
6.96e-06
7.135e-06
7.332e-06
7.549e-06
7.787e-06
8.045e-06
8.323e-06
8.62e-06
8.936e-06
9.272e-06
9.625e-06
9.998e-06
1.037e-05
1.096e-05
1.066e-49
-9.819e-49
7.567e-48
-5.824e-47
4.439e-46
-3.341e-45
2.478e-44
-1.808e-43
1.297e-42
-9.14e-42
6.328e-41
-4.305e-40
2.879e-39
-1.895e-38
1.228e-37
-7.851e-37
4.953e-36
-3.089e-35
1.906e-34
-1.165e-33
7.064e-33
-4.254e-32
2.547e-31
-1.515e-30
8.964e-30
-5.292e-29
3.12e-28
-1.839e-27
1.085e-26
-6.413e-26
3.805e-25
-2.268e-24
1.36e-23
-8.197e-23
5.126e-22
-2.344e-21
5.994e-20
2.09e-18
3.673e-17
5.812e-16
8.667e-15
1.214e-13
1.586e-12
1.916e-11
2.116e-10
2.116e-09
1.889e-08
1.484e-07
1.011e-06
5.863e-06
2.846e-05
0.0001137
0.0003691
0.0009719
0.002105
0.003875
0.006175
0.009506
0.009877
0.01102
0.01011
0.01005
0.009976
0.009971
0.009973
0.00998
0.01018
0.01022
0.01228
0.01021
0.01015
0.007532
0.005985
0.004726
0.003644
0.002753
0.002047
0.001504
0.001097
0.0007978
0.0005809
0.0004252
0.0003138
0.0002342
0.0001771
0.0001359
0.000106
8.399e-05
6.767e-05
5.543e-05
4.616e-05
3.906e-05
3.356e-05
2.927e-05
2.589e-05
2.32e-05
2.107e-05
1.935e-05
1.798e-05
1.687e-05
1.599e-05
1.529e-05
1.474e-05
1.432e-05
1.401e-05