/*--------------------------------*- C++ -*----------------------------------*\
  =========                 |
  \\      /  F ield         | OpenFOAM: The Open Source CFD Toolbox
   \\    /   O peration     | Website:  https://openfoam.org
    \\  /    A nd           | Version:  7
     \\/     M anipulation  |
\*---------------------------------------------------------------------------*/
FoamFile
{
    version     2.0;
    format      ascii;
    class       volScalarField;
    location    "1859.99947342884707";
    object      p;
}
// * * * * * * * * * * * * * * * * * * * * * * * * * * * * * * * * * * * * * //

dimensions      [0 2 -2 0 0 0 0];

internalField   nonuniform List<scalar> 
4096
(
0.0005791
0.0004082
0.000324
0.0002818
0.0002584
0.0002445
0.0002356
0.0002295
0.0002251
0.0002219
0.0002193
0.0002173
0.0002156
0.0002143
0.0002131
0.0002121
0.0002112
0.0002104
0.0002097
0.000209
0.0002084
0.0002078
0.0002073
0.0002068
0.0002063
0.0002058
0.0002053
0.0002048
0.0002044
0.0002039
0.0002034
0.0002029
0.0002024
0.0002019
0.0002013
0.0002008
0.0002001
0.0001995
0.0001988
0.000198
0.0001971
0.0001961
0.0001951
0.0001938
0.0001925
0.0001909
0.0001892
0.0001873
0.0001851
0.0001826
0.0001799
0.0001768
0.0001734
0.0001697
0.0001656
0.0001611
0.0001563
0.0001512
0.0001457
0.00014
0.000134
0.0001277
0.0001214
0.0001149
0.0001084
0.000102
9.557e-05
8.933e-05
8.327e-05
7.744e-05
7.187e-05
6.659e-05
6.161e-05
5.695e-05
5.262e-05
4.861e-05
4.493e-05
4.156e-05
3.849e-05
3.571e-05
3.32e-05
3.093e-05
2.891e-05
2.709e-05
2.546e-05
2.401e-05
2.271e-05
2.154e-05
2.049e-05
1.955e-05
1.869e-05
1.79e-05
1.718e-05
1.652e-05
1.59e-05
1.531e-05
1.476e-05
1.423e-05
1.372e-05
1.323e-05
1.274e-05
1.227e-05
1.18e-05
1.134e-05
1.088e-05
1.042e-05
9.959e-06
9.5e-06
9.041e-06
8.58e-06
8.117e-06
7.652e-06
7.185e-06
6.715e-06
6.243e-06
5.767e-06
5.288e-06
4.807e-06
4.322e-06
3.835e-06
3.344e-06
2.852e-06
2.359e-06
1.867e-06
1.378e-06
8.992e-07
4.436e-07
8.605e-08
0.0004346
0.0003709
0.0003211
0.0002891
0.0002681
0.0002538
0.0002438
0.0002365
0.000231
0.0002267
0.0002234
0.0002207
0.0002186
0.0002167
0.0002152
0.0002139
0.0002127
0.0002117
0.0002108
0.0002099
0.0002092
0.0002084
0.0002078
0.0002071
0.0002065
0.0002059
0.0002053
0.0002047
0.0002041
0.0002036
0.000203
0.0002024
0.0002018
0.0002011
0.0002005
0.0001998
0.000199
0.0001983
0.0001974
0.0001965
0.0001955
0.0001944
0.0001932
0.0001919
0.0001904
0.0001887
0.0001869
0.0001849
0.0001826
0.0001801
0.0001773
0.0001742
0.0001709
0.0001672
0.0001632
0.0001589
0.0001542
0.0001492
0.000144
0.0001385
0.0001327
0.0001268
0.0001208
0.0001146
0.0001085
0.0001023
9.624e-05
9.03e-05
8.451e-05
7.894e-05
7.359e-05
6.851e-05
6.37e-05
5.917e-05
5.495e-05
5.102e-05
4.738e-05
4.403e-05
4.096e-05
3.815e-05
3.56e-05
3.328e-05
3.118e-05
2.928e-05
2.756e-05
2.601e-05
2.46e-05
2.333e-05
2.217e-05
2.112e-05
2.016e-05
1.927e-05
1.845e-05
1.769e-05
1.698e-05
1.631e-05
1.567e-05
1.506e-05
1.448e-05
1.392e-05
1.337e-05
1.284e-05
1.232e-05
1.18e-05
1.13e-05
1.08e-05
1.03e-05
9.807e-06
9.316e-06
8.826e-06
8.337e-06
7.849e-06
7.361e-06
6.872e-06
6.383e-06
5.892e-06
5.401e-06
4.908e-06
4.414e-06
3.919e-06
3.423e-06
2.926e-06
2.43e-06
1.936e-06
1.446e-06
9.642e-07
4.976e-07
1.084e-07
0.0003512
0.0003295
0.000304
0.0002833
0.0002678
0.0002561
0.0002471
0.00024
0.0002345
0.00023
0.0002264
0.0002234
0.0002209
0.0002188
0.000217
0.0002154
0.000214
0.0002128
0.0002117
0.0002107
0.0002098
0.000209
0.0002082
0.0002074
0.0002067
0.000206
0.0002053
0.0002046
0.0002039
0.0002032
0.0002025
0.0002018
0.0002011
0.0002004
0.0001996
0.0001988
0.000198
0.0001971
0.0001961
0.0001951
0.000194
0.0001928
0.0001915
0.00019
0.0001884
0.0001867
0.0001848
0.0001827
0.0001804
0.0001778
0.000175
0.000172
0.0001686
0.000165
0.0001611
0.0001568
0.0001523
0.0001475
0.0001425
0.0001372
0.0001317
0.000126
0.0001202
0.0001144
0.0001085
0.0001026
9.68e-05
9.112e-05
8.558e-05
8.023e-05
7.509e-05
7.018e-05
6.553e-05
6.114e-05
5.701e-05
5.316e-05
4.958e-05
4.626e-05
4.32e-05
4.038e-05
3.78e-05
3.543e-05
3.328e-05
3.131e-05
2.951e-05
2.788e-05
2.639e-05
2.502e-05
2.377e-05
2.262e-05
2.157e-05
2.059e-05
1.968e-05
1.883e-05
1.803e-05
1.727e-05
1.656e-05
1.588e-05
1.523e-05
1.46e-05
1.399e-05
1.341e-05
1.283e-05
1.227e-05
1.172e-05
1.118e-05
1.064e-05
1.012e-05
9.595e-06
9.077e-06
8.562e-06
8.051e-06
7.541e-06
7.034e-06
6.528e-06
6.022e-06
5.518e-06
5.014e-06
4.51e-06
4.006e-06
3.503e-06
3e-06
2.498e-06
1.998e-06
1.502e-06
1.01e-06
5.26e-07
1.12e-07
0.0003064
0.0002994
0.0002861
0.0002729
0.000262
0.0002532
0.0002461
0.0002402
0.0002353
0.0002312
0.0002277
0.0002248
0.0002222
0.0002201
0.0002181
0.0002165
0.000215
0.0002137
0.0002125
0.0002113
0.0002103
0.0002094
0.0002085
0.0002076
0.0002068
0.000206
0.0002052
0.0002044
0.0002037
0.0002029
0.0002021
0.0002014
0.0002006
0.0001997
0.0001989
0.000198
0.000197
0.0001961
0.000195
0.0001939
0.0001927
0.0001914
0.00019
0.0001885
0.0001868
0.000185
0.000183
0.0001809
0.0001785
0.0001759
0.0001731
0.0001701
0.0001668
0.0001632
0.0001594
0.0001552
0.0001508
0.0001462
0.0001413
0.0001362
0.0001308
0.0001254
0.0001198
0.0001141
0.0001085
0.0001028
9.721e-05
9.173e-05
8.638e-05
8.122e-05
7.624e-05
7.149e-05
6.697e-05
6.269e-05
5.866e-05
5.488e-05
5.135e-05
4.807e-05
4.502e-05
4.221e-05
3.962e-05
3.723e-05
3.503e-05
3.302e-05
3.117e-05
2.947e-05
2.792e-05
2.648e-05
2.516e-05
2.393e-05
2.28e-05
2.174e-05
2.076e-05
1.984e-05
1.897e-05
1.814e-05
1.736e-05
1.662e-05
1.591e-05
1.522e-05
1.456e-05
1.393e-05
1.331e-05
1.27e-05
1.211e-05
1.153e-05
1.096e-05
1.041e-05
9.855e-06
9.311e-06
8.773e-06
8.24e-06
7.712e-06
7.187e-06
6.665e-06
6.146e-06
5.629e-06
5.113e-06
4.6e-06
4.087e-06
3.576e-06
3.066e-06
2.557e-06
2.049e-06
1.543e-06
1.04e-06
5.389e-07
1.091e-07
0.0002795
0.0002785
0.0002716
0.000263
0.0002552
0.0002486
0.0002431
0.0002384
0.0002344
0.0002309
0.0002278
0.0002251
0.0002227
0.0002206
0.0002187
0.0002171
0.0002155
0.0002142
0.0002129
0.0002117
0.0002107
0.0002096
0.0002087
0.0002077
0.0002069
0.000206
0.0002051
0.0002043
0.0002035
0.0002026
0.0002018
0.0002009
0.0002001
0.0001992
0.0001982
0.0001973
0.0001962
0.0001952
0.000194
0.0001928
0.0001916
0.0001902
0.0001887
0.0001872
0.0001854
0.0001836
0.0001816
0.0001794
0.000177
0.0001745
0.0001717
0.0001686
0.0001654
0.0001618
0.0001581
0.000154
0.0001497
0.0001452
0.0001404
0.0001354
0.0001302
0.0001249
0.0001194
0.0001139
0.0001084
0.0001029
9.749e-05
9.216e-05
8.697e-05
8.195e-05
7.711e-05
7.248e-05
6.807e-05
6.389e-05
5.994e-05
5.622e-05
5.275e-05
4.95e-05
4.648e-05
4.368e-05
4.109e-05
3.869e-05
3.647e-05
3.443e-05
3.255e-05
3.081e-05
2.92e-05
2.771e-05
2.633e-05
2.505e-05
2.386e-05
2.274e-05
2.169e-05
2.071e-05
1.978e-05
1.89e-05
1.807e-05
1.727e-05
1.651e-05
1.578e-05
1.507e-05
1.439e-05
1.373e-05
1.309e-05
1.246e-05
1.185e-05
1.125e-05
1.067e-05
1.009e-05
9.524e-06
8.965e-06
8.412e-06
7.866e-06
7.326e-06
6.79e-06
6.258e-06
5.73e-06
5.204e-06
4.681e-06
4.16e-06
3.641e-06
3.123e-06
2.606e-06
2.091e-06
1.576e-06
1.061e-06
5.467e-07
1.057e-07
0.0002622
0.0002637
0.0002603
0.0002547
0.000249
0.0002439
0.0002396
0.0002358
0.0002325
0.0002296
0.000227
0.0002246
0.0002225
0.0002206
0.0002188
0.0002172
0.0002157
0.0002144
0.0002131
0.0002119
0.0002108
0.0002098
0.0002088
0.0002078
0.0002069
0.0002059
0.000205
0.0002041
0.0002033
0.0002024
0.0002015
0.0002005
0.0001996
0.0001987
0.0001977
0.0001966
0.0001956
0.0001944
0.0001932
0.000192
0.0001907
0.0001892
0.0001877
0.0001861
0.0001844
0.0001825
0.0001804
0.0001782
0.0001759
0.0001733
0.0001705
0.0001675
0.0001643
0.0001608
0.0001571
0.0001531
0.0001489
0.0001444
0.0001397
0.0001348
0.0001297
0.0001245
0.0001192
0.0001138
0.0001083
0.000103
9.765e-05
9.244e-05
8.737e-05
8.246e-05
7.773e-05
7.32e-05
6.888e-05
6.477e-05
6.089e-05
5.724e-05
5.381e-05
5.06e-05
4.761e-05
4.483e-05
4.224e-05
3.984e-05
3.762e-05
3.556e-05
3.365e-05
3.188e-05
3.024e-05
2.872e-05
2.73e-05
2.597e-05
2.473e-05
2.357e-05
2.248e-05
2.145e-05
2.047e-05
1.955e-05
1.867e-05
1.783e-05
1.702e-05
1.625e-05
1.551e-05
1.479e-05
1.409e-05
1.342e-05
1.276e-05
1.213e-05
1.15e-05
1.089e-05
1.03e-05
9.709e-06
9.131e-06
8.563e-06
8.002e-06
7.447e-06
6.899e-06
6.356e-06
5.818e-06
5.283e-06
4.752e-06
4.223e-06
3.697e-06
3.172e-06
2.648e-06
2.125e-06
1.602e-06
1.079e-06
5.53e-07
1.033e-07
0.0002503
0.0002527
0.0002514
0.0002478
0.0002436
0.0002396
0.0002361
0.0002331
0.0002304
0.0002279
0.0002257
0.0002237
0.0002218
0.0002201
0.0002185
0.000217
0.0002156
0.0002143
0.0002131
0.0002119
0.0002108
0.0002098
0.0002087
0.0002078
0.0002068
0.0002059
0.0002049
0.000204
0.0002031
0.0002021
0.0002012
0.0002002
0.0001992
0.0001982
0.0001972
0.0001961
0.000195
0.0001938
0.0001926
0.0001913
0.0001899
0.0001885
0.0001869
0.0001853
0.0001835
0.0001816
0.0001796
0.0001774
0.000175
0.0001724
0.0001697
0.0001667
0.0001635
0.0001601
0.0001564
0.0001525
0.0001483
0.0001439
0.0001392
0.0001344
0.0001294
0.0001242
0.0001189
0.0001136
0.0001083
0.000103
9.772e-05
9.259e-05
8.761e-05
8.278e-05
7.813e-05
7.367e-05
6.942e-05
6.538e-05
6.156e-05
5.796e-05
5.457e-05
5.14e-05
4.843e-05
4.567e-05
4.309e-05
4.07e-05
3.848e-05
3.642e-05
3.45e-05
3.272e-05
3.106e-05
2.951e-05
2.806e-05
2.671e-05
2.544e-05
2.424e-05
2.311e-05
2.204e-05
2.103e-05
2.007e-05
1.916e-05
1.828e-05
1.744e-05
1.664e-05
1.586e-05
1.512e-05
1.439e-05
1.369e-05
1.302e-05
1.235e-05
1.171e-05
1.108e-05
1.047e-05
9.862e-06
9.27e-06
8.687e-06
8.114e-06
7.548e-06
6.99e-06
6.438e-06
5.891e-06
5.349e-06
4.811e-06
4.276e-06
3.743e-06
3.212e-06
2.683e-06
2.154e-06
1.624e-06
1.093e-06
5.591e-07
1.022e-07
0.0002417
0.0002444
0.0002443
0.0002421
0.000239
0.0002359
0.000233
0.0002304
0.0002282
0.0002261
0.0002242
0.0002225
0.0002209
0.0002193
0.0002179
0.0002166
0.0002153
0.0002141
0.0002129
0.0002118
0.0002107
0.0002097
0.0002086
0.0002077
0.0002067
0.0002057
0.0002048
0.0002038
0.0002029
0.0002019
0.000201
0.0002
0.000199
0.0001979
0.0001969
0.0001957
0.0001946
0.0001934
0.0001921
0.0001908
0.0001894
0.0001879
0.0001864
0.0001847
0.0001829
0.000181
0.0001789
0.0001767
0.0001744
0.0001718
0.0001691
0.0001662
0.000163
0.0001596
0.0001559
0.0001521
0.0001479
0.0001436
0.000139
0.0001341
0.0001291
0.000124
0.0001188
0.0001135
0.0001082
0.0001029
9.77e-05
9.262e-05
8.769e-05
8.292e-05
7.833e-05
7.393e-05
6.973e-05
6.574e-05
6.196e-05
5.84e-05
5.505e-05
5.19e-05
4.897e-05
4.622e-05
4.367e-05
4.129e-05
3.908e-05
3.702e-05
3.511e-05
3.332e-05
3.165e-05
3.009e-05
2.863e-05
2.725e-05
2.596e-05
2.474e-05
2.359e-05
2.25e-05
2.146e-05
2.047e-05
1.953e-05
1.863e-05
1.777e-05
1.694e-05
1.614e-05
1.537e-05
1.463e-05
1.391e-05
1.321e-05
1.253e-05
1.187e-05
1.123e-05
1.06e-05
9.98e-06
9.376e-06
8.783e-06
8.2e-06
7.626e-06
7.06e-06
6.5e-06
5.947e-06
5.399e-06
4.856e-06
4.316e-06
3.779e-06
3.244e-06
2.71e-06
2.177e-06
1.643e-06
1.106e-06
5.655e-07
1.028e-07
0.0002352
0.0002379
0.0002384
0.0002372
0.000235
0.0002326
0.0002302
0.000228
0.0002261
0.0002243
0.0002227
0.0002212
0.0002198
0.0002185
0.0002172
0.000216
0.0002148
0.0002137
0.0002126
0.0002115
0.0002105
0.0002095
0.0002085
0.0002075
0.0002065
0.0002056
0.0002046
0.0002037
0.0002027
0.0002018
0.0002008
0.0001998
0.0001987
0.0001977
0.0001966
0.0001955
0.0001943
0.0001931
0.0001918
0.0001905
0.0001891
0.0001876
0.000186
0.0001843
0.0001825
0.0001806
0.0001786
0.0001764
0.000174
0.0001715
0.0001688
0.0001659
0.0001627
0.0001594
0.0001558
0.0001519
0.0001478
0.0001434
0.0001388
0.000134
0.000129
0.0001239
0.0001186
0.0001133
0.000108
0.0001028
9.759e-05
9.254e-05
8.763e-05
8.29e-05
7.834e-05
7.398e-05
6.982e-05
6.586e-05
6.211e-05
5.858e-05
5.525e-05
5.214e-05
4.923e-05
4.651e-05
4.398e-05
4.162e-05
3.942e-05
3.738e-05
3.547e-05
3.369e-05
3.202e-05
3.046e-05
2.9e-05
2.761e-05
2.631e-05
2.508e-05
2.391e-05
2.281e-05
2.175e-05
2.075e-05
1.979e-05
1.887e-05
1.799e-05
1.715e-05
1.633e-05
1.555e-05
1.479e-05
1.406e-05
1.334e-05
1.265e-05
1.198e-05
1.133e-05
1.069e-05
1.006e-05
9.449e-06
8.849e-06
8.259e-06
7.679e-06
7.107e-06
6.543e-06
5.985e-06
5.434e-06
4.887e-06
4.344e-06
3.804e-06
3.267e-06
2.73e-06
2.194e-06
1.657e-06
1.117e-06
5.726e-07
1.053e-07
0.0002301
0.0002326
0.0002336
0.000233
0.0002316
0.0002297
0.0002277
0.0002259
0.0002242
0.0002227
0.0002212
0.0002199
0.0002187
0.0002175
0.0002164
0.0002153
0.0002142
0.0002132
0.0002121
0.0002112
0.0002102
0.0002092
0.0002083
0.0002073
0.0002064
0.0002054
0.0002045
0.0002036
0.0002026
0.0002016
0.0002006
0.0001996
0.0001986
0.0001976
0.0001965
0.0001953
0.0001941
0.0001929
0.0001916
0.0001903
0.0001889
0.0001874
0.0001858
0.0001842
0.0001824
0.0001805
0.0001785
0.0001763
0.000174
0.0001715
0.0001688
0.0001659
0.0001628
0.0001594
0.0001558
0.000152
0.0001479
0.0001435
0.0001389
0.0001341
0.000129
0.0001238
0.0001185
0.0001132
0.0001079
0.0001026
9.739e-05
9.234e-05
8.744e-05
8.272e-05
7.818e-05
7.383e-05
6.969e-05
6.575e-05
6.202e-05
5.85e-05
5.52e-05
5.21e-05
4.922e-05
4.653e-05
4.402e-05
4.169e-05
3.952e-05
3.749e-05
3.56e-05
3.384e-05
3.218e-05
3.063e-05
2.917e-05
2.779e-05
2.649e-05
2.526e-05
2.409e-05
2.298e-05
2.192e-05
2.09e-05
1.994e-05
1.901e-05
1.812e-05
1.726e-05
1.644e-05
1.565e-05
1.488e-05
1.414e-05
1.342e-05
1.272e-05
1.204e-05
1.138e-05
1.073e-05
1.01e-05
9.487e-06
8.882e-06
8.289e-06
7.705e-06
7.131e-06
6.564e-06
6.005e-06
5.451e-06
4.903e-06
4.359e-06
3.818e-06
3.28e-06
2.743e-06
2.206e-06
1.668e-06
1.127e-06
5.807e-07
1.096e-07
0.0002261
0.0002284
0.0002296
0.0002295
0.0002285
0.0002271
0.0002255
0.000224
0.0002225
0.0002212
0.0002199
0.0002187
0.0002176
0.0002166
0.0002155
0.0002145
0.0002136
0.0002126
0.0002117
0.0002108
0.0002098
0.0002089
0.000208
0.0002071
0.0002062
0.0002053
0.0002044
0.0002035
0.0002025
0.0002016
0.0002006
0.0001996
0.0001986
0.0001975
0.0001964
0.0001953
0.0001941
0.0001929
0.0001916
0.0001903
0.0001889
0.0001874
0.0001859
0.0001842
0.0001825
0.0001806
0.0001786
0.0001765
0.0001742
0.0001717
0.000169
0.0001661
0.000163
0.0001597
0.0001561
0.0001523
0.0001481
0.0001437
0.0001391
0.0001342
0.0001291
0.0001239
0.0001185
0.0001131
0.0001077
0.0001023
9.71e-05
9.203e-05
8.711e-05
8.238e-05
7.783e-05
7.348e-05
6.933e-05
6.539e-05
6.167e-05
5.816e-05
5.487e-05
5.18e-05
4.894e-05
4.627e-05
4.38e-05
4.15e-05
3.936e-05
3.737e-05
3.551e-05
3.377e-05
3.214e-05
3.06e-05
2.916e-05
2.78e-05
2.65e-05
2.528e-05
2.411e-05
2.3e-05
2.195e-05
2.093e-05
1.997e-05
1.904e-05
1.815e-05
1.729e-05
1.646e-05
1.567e-05
1.49e-05
1.415e-05
1.343e-05
1.273e-05
1.205e-05
1.138e-05
1.074e-05
1.011e-05
9.488e-06
8.883e-06
8.289e-06
7.705e-06
7.13e-06
6.564e-06
6.005e-06
5.452e-06
4.904e-06
4.361e-06
3.821e-06
3.284e-06
2.748e-06
2.213e-06
1.676e-06
1.135e-06
5.898e-07
1.16e-07
0.0002227
0.0002249
0.0002262
0.0002264
0.0002258
0.0002248
0.0002236
0.0002223
0.000221
0.0002198
0.0002187
0.0002176
0.0002166
0.0002157
0.0002147
0.0002138
0.000213
0.0002121
0.0002112
0.0002104
0.0002095
0.0002086
0.0002078
0.0002069
0.0002061
0.0002052
0.0002043
0.0002034
0.0002025
0.0002015
0.0002006
0.0001996
0.0001986
0.0001975
0.0001965
0.0001954
0.0001942
0.000193
0.0001918
0.0001905
0.0001891
0.0001876
0.0001861
0.0001845
0.0001828
0.0001809
0.000179
0.0001769
0.0001746
0.0001722
0.0001695
0.0001667
0.0001636
0.0001603
0.0001567
0.0001528
0.0001486
0.0001442
0.0001395
0.0001345
0.0001293
0.000124
0.0001185
0.0001129
0.0001074
0.000102
9.672e-05
9.159e-05
8.664e-05
8.187e-05
7.73e-05
7.292e-05
6.875e-05
6.479e-05
6.105e-05
5.755e-05
5.427e-05
5.122e-05
4.838e-05
4.575e-05
4.331e-05
4.105e-05
3.896e-05
3.701e-05
3.519e-05
3.348e-05
3.189e-05
3.038e-05
2.896e-05
2.762e-05
2.635e-05
2.514e-05
2.399e-05
2.29e-05
2.185e-05
2.084e-05
1.988e-05
1.896e-05
1.808e-05
1.722e-05
1.64e-05
1.561e-05
1.484e-05
1.41e-05
1.338e-05
1.268e-05
1.2e-05
1.134e-05
1.07e-05
1.007e-05
9.454e-06
8.851e-06
8.259e-06
7.678e-06
7.106e-06
6.542e-06
5.985e-06
5.435e-06
4.89e-06
4.35e-06
3.813e-06
3.279e-06
2.746e-06
2.214e-06
1.68e-06
1.143e-06
6e-07
1.244e-07
0.00022
0.000222
0.0002233
0.0002237
0.0002235
0.0002228
0.0002218
0.0002207
0.0002197
0.0002186
0.0002176
0.0002166
0.0002157
0.0002148
0.000214
0.0002132
0.0002124
0.0002116
0.0002108
0.00021
0.0002092
0.0002084
0.0002076
0.0002067
0.0002059
0.0002051
0.0002042
0.0002033
0.0002025
0.0002016
0.0002006
0.0001997
0.0001987
0.0001977
0.0001966
0.0001956
0.0001944
0.0001933
0.000192
0.0001908
0.0001894
0.000188
0.0001865
0.000185
0.0001833
0.0001815
0.0001796
0.0001775
0.0001753
0.0001729
0.0001703
0.0001675
0.0001644
0.0001611
0.0001575
0.0001536
0.0001494
0.0001449
0.0001401
0.000135
0.0001297
0.0001242
0.0001185
0.0001128
0.0001072
0.0001016
9.624e-05
9.103e-05
8.601e-05
8.118e-05
7.655e-05
7.212e-05
6.79e-05
6.391e-05
6.016e-05
5.664e-05
5.337e-05
5.034e-05
4.753e-05
4.494e-05
4.256e-05
4.035e-05
3.83e-05
3.641e-05
3.464e-05
3.298e-05
3.143e-05
2.997e-05
2.859e-05
2.728e-05
2.604e-05
2.486e-05
2.373e-05
2.265e-05
2.163e-05
2.064e-05
1.969e-05
1.878e-05
1.791e-05
1.707e-05
1.626e-05
1.547e-05
1.472e-05
1.398e-05
1.327e-05
1.258e-05
1.191e-05
1.126e-05
1.062e-05
9.995e-06
9.385e-06
8.787e-06
8.201e-06
7.625e-06
7.058e-06
6.499e-06
5.947e-06
5.402e-06
4.862e-06
4.327e-06
3.795e-06
3.265e-06
2.738e-06
2.21e-06
1.681e-06
1.149e-06
6.115e-07
1.348e-07
0.0002177
0.0002195
0.0002208
0.0002214
0.0002214
0.0002209
0.0002202
0.0002193
0.0002184
0.0002175
0.0002166
0.0002157
0.0002149
0.0002141
0.0002133
0.0002126
0.0002118
0.0002111
0.0002104
0.0002096
0.0002089
0.0002081
0.0002074
0.0002066
0.0002058
0.000205
0.0002042
0.0002034
0.0002025
0.0002016
0.0002007
0.0001998
0.0001989
0.0001979
0.0001969
0.0001959
0.0001948
0.0001937
0.0001925
0.0001912
0.0001899
0.0001886
0.0001872
0.0001856
0.000184
0.0001823
0.0001805
0.0001785
0.0001763
0.000174
0.0001714
0.0001687
0.0001656
0.0001623
0.0001587
0.0001547
0.0001505
0.0001459
0.000141
0.0001357
0.0001302
0.0001245
0.0001186
0.0001127
0.0001069
0.0001012
9.564e-05
9.032e-05
8.519e-05
8.027e-05
7.555e-05
7.104e-05
6.676e-05
6.272e-05
5.893e-05
5.541e-05
5.215e-05
4.914e-05
4.638e-05
4.384e-05
4.152e-05
3.938e-05
3.74e-05
3.557e-05
3.387e-05
3.228e-05
3.078e-05
2.937e-05
2.804e-05
2.677e-05
2.557e-05
2.443e-05
2.333e-05
2.229e-05
2.128e-05
2.032e-05
1.94e-05
1.851e-05
1.766e-05
1.683e-05
1.604e-05
1.527e-05
1.453e-05
1.381e-05
1.311e-05
1.243e-05
1.177e-05
1.112e-05
1.05e-05
9.883e-06
9.282e-06
8.693e-06
8.115e-06
7.547e-06
6.987e-06
6.436e-06
5.891e-06
5.353e-06
4.82e-06
4.291e-06
3.766e-06
3.243e-06
2.722e-06
2.201e-06
1.679e-06
1.154e-06
6.24e-07
1.472e-07
0.0002157
0.0002174
0.0002187
0.0002194
0.0002195
0.0002193
0.0002188
0.0002181
0.0002173
0.0002165
0.0002157
0.0002149
0.0002142
0.0002135
0.0002127
0.000212
0.0002114
0.0002107
0.00021
0.0002093
0.0002086
0.0002079
0.0002072
0.0002065
0.0002057
0.000205
0.0002042
0.0002034
0.0002026
0.0002018
0.0002009
0.0002001
0.0001992
0.0001982
0.0001973
0.0001963
0.0001952
0.0001942
0.000193
0.0001919
0.0001906
0.0001893
0.000188
0.0001865
0.000185
0.0001833
0.0001816
0.0001797
0.0001776
0.0001754
0.0001729
0.0001702
0.0001672
0.0001639
0.0001603
0.0001563
0.0001519
0.0001472
0.0001421
0.0001367
0.0001309
0.0001249
0.0001188
0.0001126
0.0001065
0.0001006
9.49e-05
8.941e-05
8.415e-05
7.909e-05
7.425e-05
6.964e-05
6.527e-05
6.117e-05
5.734e-05
5.381e-05
5.056e-05
4.76e-05
4.489e-05
4.243e-05
4.018e-05
3.813e-05
3.624e-05
3.45e-05
3.288e-05
3.136e-05
2.994e-05
2.859e-05
2.732e-05
2.611e-05
2.496e-05
2.386e-05
2.28e-05
2.18e-05
2.083e-05
1.99e-05
1.9e-05
1.814e-05
1.732e-05
1.652e-05
1.574e-05
1.5e-05
1.427e-05
1.357e-05
1.289e-05
1.223e-05
1.158e-05
1.095e-05
1.034e-05
9.736e-06
9.148e-06
8.57e-06
8.003e-06
7.445e-06
6.895e-06
6.353e-06
5.818e-06
5.289e-06
4.764e-06
4.244e-06
3.727e-06
3.213e-06
2.7e-06
2.187e-06
1.674e-06
1.158e-06
6.376e-07
1.614e-07
0.000214
0.0002156
0.0002169
0.0002176
0.0002179
0.0002178
0.0002175
0.000217
0.0002163
0.0002157
0.0002149
0.0002143
0.0002136
0.0002129
0.0002122
0.0002116
0.0002109
0.0002103
0.0002097
0.000209
0.0002084
0.0002077
0.0002071
0.0002064
0.0002057
0.000205
0.0002043
0.0002035
0.0002028
0.000202
0.0002012
0.0002004
0.0001995
0.0001986
0.0001977
0.0001968
0.0001958
0.0001948
0.0001937
0.0001926
0.0001915
0.0001902
0.000189
0.0001876
0.0001862
0.0001846
0.000183
0.0001812
0.0001792
0.0001771
0.0001747
0.0001721
0.0001692
0.0001659
0.0001623
0.0001583
0.0001538
0.000149
0.0001437
0.000138
0.000132
0.0001256
0.0001191
0.0001125
0.0001061
9.991e-05
9.396e-05
8.826e-05
8.279e-05
7.756e-05
7.256e-05
6.781e-05
6.335e-05
5.918e-05
5.533e-05
5.179e-05
4.858e-05
4.568e-05
4.305e-05
4.069e-05
3.855e-05
3.661e-05
3.483e-05
3.319e-05
3.167e-05
3.025e-05
2.891e-05
2.764e-05
2.644e-05
2.53e-05
2.42e-05
2.316e-05
2.215e-05
2.119e-05
2.027e-05
1.938e-05
1.852e-05
1.769e-05
1.69e-05
1.613e-05
1.538e-05
1.466e-05
1.396e-05
1.328e-05
1.262e-05
1.198e-05
1.135e-05
1.074e-05
1.014e-05
9.559e-06
8.985e-06
8.421e-06
7.867e-06
7.322e-06
6.784e-06
6.254e-06
5.73e-06
5.211e-06
4.697e-06
4.186e-06
3.68e-06
3.175e-06
2.672e-06
2.17e-06
1.666e-06
1.161e-06
6.521e-07
1.773e-07
0.0002126
0.0002141
0.0002153
0.0002161
0.0002165
0.0002165
0.0002163
0.0002159
0.0002154
0.0002149
0.0002143
0.0002136
0.000213
0.0002124
0.0002118
0.0002112
0.0002106
0.00021
0.0002094
0.0002088
0.0002082
0.0002076
0.000207
0.0002063
0.0002057
0.000205
0.0002044
0.0002037
0.000203
0.0002022
0.0002015
0.0002007
0.0001999
0.0001991
0.0001983
0.0001974
0.0001965
0.0001955
0.0001945
0.0001935
0.0001924
0.0001913
0.0001901
0.0001889
0.0001876
0.0001861
0.0001846
0.000183
0.0001812
0.0001792
0.000177
0.0001745
0.0001717
0.0001685
0.0001649
0.0001609
0.0001563
0.0001513
0.0001458
0.0001399
0.0001334
0.0001266
0.0001195
0.0001125
0.0001056
9.903e-05
9.273e-05
8.673e-05
8.1e-05
7.554e-05
7.035e-05
6.546e-05
6.09e-05
5.667e-05
5.281e-05
4.931e-05
4.616e-05
4.335e-05
4.084e-05
3.861e-05
3.661e-05
3.481e-05
3.317e-05
3.166e-05
3.025e-05
2.894e-05
2.77e-05
2.653e-05
2.541e-05
2.434e-05
2.332e-05
2.234e-05
2.139e-05
2.048e-05
1.961e-05
1.877e-05
1.795e-05
1.717e-05
1.641e-05
1.567e-05
1.496e-05
1.427e-05
1.36e-05
1.295e-05
1.231e-05
1.169e-05
1.109e-05
1.05e-05
9.92e-06
9.353e-06
8.796e-06
8.249e-06
7.711e-06
7.18e-06
6.656e-06
6.139e-06
5.627e-06
5.121e-06
4.618e-06
4.12e-06
3.624e-06
3.131e-06
2.639e-06
2.148e-06
1.657e-06
1.164e-06
6.675e-07
1.946e-07
0.0002113
0.0002128
0.0002139
0.0002148
0.0002152
0.0002154
0.0002153
0.000215
0.0002146
0.0002142
0.0002136
0.0002131
0.0002125
0.000212
0.0002114
0.0002108
0.0002103
0.0002097
0.0002092
0.0002086
0.0002081
0.0002075
0.0002069
0.0002063
0.0002057
0.0002051
0.0002045
0.0002039
0.0002032
0.0002026
0.0002019
0.0002012
0.0002004
0.0001997
0.0001989
0.0001981
0.0001972
0.0001964
0.0001955
0.0001945
0.0001936
0.0001925
0.0001915
0.0001903
0.0001892
0.0001879
0.0001865
0.000185
0.0001834
0.0001816
0.0001796
0.0001773
0.0001747
0.0001717
0.0001682
0.0001642
0.0001597
0.0001545
0.0001488
0.0001425
0.0001355
0.0001281
0.0001203
0.0001125
0.000105
9.784e-05
9.103e-05
8.461e-05
7.855e-05
7.283e-05
6.745e-05
6.243e-05
5.779e-05
5.355e-05
4.972e-05
4.629e-05
4.326e-05
4.059e-05
3.825e-05
3.619e-05
3.437e-05
3.274e-05
3.126e-05
2.991e-05
2.864e-05
2.746e-05
2.634e-05
2.527e-05
2.425e-05
2.326e-05
2.232e-05
2.141e-05
2.053e-05
1.968e-05
1.887e-05
1.807e-05
1.731e-05
1.657e-05
1.585e-05
1.516e-05
1.448e-05
1.383e-05
1.319e-05
1.257e-05
1.196e-05
1.137e-05
1.079e-05
1.023e-05
9.669e-06
9.123e-06
8.586e-06
8.058e-06
7.536e-06
7.022e-06
6.514e-06
6.011e-06
5.514e-06
5.021e-06
4.531e-06
4.045e-06
3.562e-06
3.081e-06
2.602e-06
2.123e-06
1.645e-06
1.165e-06
6.835e-07
2.131e-07
0.0002103
0.0002116
0.0002128
0.0002136
0.0002141
0.0002143
0.0002144
0.0002142
0.0002139
0.0002135
0.0002131
0.0002126
0.0002121
0.0002116
0.0002111
0.0002106
0.0002101
0.0002095
0.000209
0.0002085
0.000208
0.0002075
0.0002069
0.0002064
0.0002058
0.0002053
0.0002047
0.0002041
0.0002035
0.0002029
0.0002023
0.0002016
0.000201
0.0002003
0.0001996
0.0001988
0.0001981
0.0001973
0.0001965
0.0001957
0.0001948
0.0001939
0.0001929
0.000192
0.0001909
0.0001898
0.0001886
0.0001874
0.000186
0.0001844
0.0001827
0.0001807
0.0001783
0.0001755
0.0001723
0.0001684
0.000164
0.0001588
0.0001529
0.0001462
0.0001388
0.0001305
0.0001216
0.0001127
0.0001041
9.604e-05
8.849e-05
8.152e-05
7.509e-05
6.914e-05
6.362e-05
5.854e-05
5.39e-05
4.972e-05
4.6e-05
4.271e-05
3.985e-05
3.739e-05
3.527e-05
3.343e-05
3.184e-05
3.042e-05
2.914e-05
2.796e-05
2.686e-05
2.582e-05
2.483e-05
2.388e-05
2.296e-05
2.207e-05
2.122e-05
2.039e-05
1.958e-05
1.88e-05
1.805e-05
1.732e-05
1.661e-05
1.592e-05
1.525e-05
1.46e-05
1.396e-05
1.335e-05
1.275e-05
1.216e-05
1.158e-05
1.102e-05
1.047e-05
9.93e-06
9.398e-06
8.874e-06
8.359e-06
7.85e-06
7.348e-06
6.851e-06
6.36e-06
5.873e-06
5.391e-06
4.912e-06
4.437e-06
3.965e-06
3.495e-06
3.027e-06
2.561e-06
2.096e-06
1.631e-06
1.166e-06
7e-07
2.325e-07
0.0002094
0.0002106
0.0002118
0.0002126
0.0002131
0.0002134
0.0002135
0.0002135
0.0002133
0.000213
0.0002126
0.0002122
0.0002117
0.0002113
0.0002108
0.0002103
0.0002099
0.0002094
0.0002089
0.0002084
0.000208
0.0002075
0.000207
0.0002065
0.000206
0.0002055
0.0002049
0.0002044
0.0002039
0.0002033
0.0002027
0.0002021
0.0002015
0.0002009
0.0002003
0.0001997
0.000199
0.0001983
0.0001976
0.0001969
0.0001961
0.0001953
0.0001945
0.0001937
0.0001928
0.0001919
0.000191
0.0001899
0.0001888
0.0001876
0.0001861
0.0001845
0.0001825
0.0001801
0.0001772
0.0001737
0.0001695
0.0001646
0.0001587
0.0001519
0.000144
0.0001346
0.000124
0.0001131
0.0001026
9.297e-05
8.433e-05
7.677e-05
7.007e-05
6.407e-05
5.858e-05
5.359e-05
4.911e-05
4.511e-05
4.159e-05
3.854e-05
3.594e-05
3.375e-05
3.192e-05
3.037e-05
2.904e-05
2.787e-05
2.682e-05
2.584e-05
2.492e-05
2.405e-05
2.32e-05
2.238e-05
2.157e-05
2.079e-05
2.003e-05
1.929e-05
1.856e-05
1.786e-05
1.717e-05
1.651e-05
1.585e-05
1.522e-05
1.46e-05
1.4e-05
1.341e-05
1.284e-05
1.227e-05
1.172e-05
1.118e-05
1.065e-05
1.013e-05
9.616e-06
9.11e-06
8.611e-06
8.118e-06
7.631e-06
7.148e-06
6.671e-06
6.197e-06
5.727e-06
5.261e-06
4.798e-06
4.338e-06
3.88e-06
3.424e-06
2.97e-06
2.518e-06
2.067e-06
1.617e-06
1.167e-06
7.167e-07
2.524e-07
0.0002086
0.0002098
0.0002109
0.0002117
0.0002123
0.0002127
0.0002128
0.0002128
0.0002127
0.0002125
0.0002122
0.0002118
0.0002114
0.000211
0.0002106
0.0002102
0.0002097
0.0002093
0.0002088
0.0002084
0.000208
0.0002075
0.000207
0.0002066
0.0002061
0.0002057
0.0002052
0.0002047
0.0002042
0.0002037
0.0002032
0.0002027
0.0002022
0.0002016
0.0002011
0.0002005
0.0001999
0.0001993
0.0001987
0.0001981
0.0001975
0.0001968
0.0001962
0.0001955
0.0001948
0.0001941
0.0001934
0.0001926
0.0001918
0.0001909
0.0001899
0.0001887
0.0001872
0.0001853
0.000183
0.0001801
0.0001765
0.0001721
0.0001669
0.0001606
0.0001527
0.0001427
0.0001291
0.0001138
9.926e-05
8.693e-05
7.706e-05
6.933e-05
6.273e-05
5.714e-05
5.209e-05
4.748e-05
4.336e-05
3.972e-05
3.653e-05
3.382e-05
3.156e-05
2.972e-05
2.824e-05
2.703e-05
2.602e-05
2.514e-05
2.434e-05
2.359e-05
2.287e-05
2.217e-05
2.148e-05
2.079e-05
2.011e-05
1.944e-05
1.878e-05
1.813e-05
1.749e-05
1.687e-05
1.625e-05
1.565e-05
1.507e-05
1.449e-05
1.393e-05
1.338e-05
1.283e-05
1.23e-05
1.178e-05
1.127e-05
1.076e-05
1.027e-05
9.777e-06
9.292e-06
8.813e-06
8.339e-06
7.869e-06
7.404e-06
6.942e-06
6.484e-06
6.029e-06
5.577e-06
5.127e-06
4.68e-06
4.235e-06
3.792e-06
3.35e-06
2.911e-06
2.473e-06
2.036e-06
1.601e-06
1.167e-06
7.335e-07
2.727e-07
0.0002079
0.0002091
0.0002101
0.000211
0.0002116
0.000212
0.0002122
0.0002123
0.0002122
0.000212
0.0002118
0.0002115
0.0002112
0.0002108
0.0002104
0.00021
0.0002096
0.0002092
0.0002088
0.0002084
0.000208
0.0002076
0.0002072
0.0002067
0.0002063
0.0002059
0.0002055
0.000205
0.0002046
0.0002042
0.0002037
0.0002033
0.0002028
0.0002023
0.0002019
0.0002014
0.0002009
0.0002004
0.0001999
0.0001994
0.0001989
0.0001984
0.0001979
0.0001974
0.0001969
0.0001964
0.0001959
0.0001955
0.000195
0.0001945
0.0001939
0.0001932
0.0001923
0.000191
0.0001894
0.0001873
0.0001846
0.0001815
0.0001777
0.0001734
0.0001668
0.0001561
0.000139
0.0001146
9.228e-05
7.692e-05
6.659e-05
5.873e-05
5.23e-05
4.804e-05
4.402e-05
4.02e-05
3.676e-05
3.366e-05
3.093e-05
2.863e-05
2.68e-05
2.539e-05
2.432e-05
2.35e-05
2.285e-05
2.228e-05
2.176e-05
2.126e-05
2.075e-05
2.023e-05
1.969e-05
1.915e-05
1.86e-05
1.805e-05
1.749e-05
1.694e-05
1.639e-05
1.585e-05
1.531e-05
1.478e-05
1.426e-05
1.374e-05
1.324e-05
1.274e-05
1.225e-05
1.176e-05
1.128e-05
1.081e-05
1.034e-05
9.877e-06
9.418e-06
8.963e-06
8.511e-06
8.063e-06
7.618e-06
7.175e-06
6.734e-06
6.296e-06
5.859e-06
5.425e-06
4.992e-06
4.56e-06
4.131e-06
3.702e-06
3.276e-06
2.851e-06
2.427e-06
2.005e-06
1.585e-06
1.167e-06
7.5e-07
2.929e-07
0.0002074
0.0002085
0.0002095
0.0002103
0.0002109
0.0002114
0.0002116
0.0002118
0.0002118
0.0002117
0.0002115
0.0002112
0.000211
0.0002106
0.0002103
0.0002099
0.0002096
0.0002092
0.0002088
0.0002084
0.000208
0.0002077
0.0002073
0.0002069
0.0002065
0.0002061
0.0002058
0.0002054
0.000205
0.0002046
0.0002042
0.0002038
0.0002035
0.0002031
0.0002027
0.0002023
0.0002019
0.0002015
0.0002011
0.0002007
0.0002003
0.0002
0.0001996
0.0001993
0.000199
0.0001987
0.0001984
0.0001983
0.0001981
0.000198
0.0001979
0.0001977
0.0001974
0.0001969
0.000196
0.0001947
0.0001932
0.0001915
0.00019
0.0001876
0.0001887
0.0001793
0.0001298
0.0001047
9.883e-05
8.04e-05
5.198e-05
4.29e-05
4.081e-05
3.869e-05
3.481e-05
3.211e-05
2.959e-05
2.718e-05
2.498e-05
2.316e-05
2.18e-05
2.086e-05
2.026e-05
1.987e-05
1.96e-05
1.938e-05
1.914e-05
1.888e-05
1.859e-05
1.825e-05
1.788e-05
1.749e-05
1.707e-05
1.663e-05
1.619e-05
1.573e-05
1.528e-05
1.482e-05
1.436e-05
1.39e-05
1.345e-05
1.299e-05
1.255e-05
1.21e-05
1.166e-05
1.122e-05
1.078e-05
1.035e-05
9.917e-06
9.488e-06
9.061e-06
8.636e-06
8.212e-06
7.789e-06
7.368e-06
6.947e-06
6.528e-06
6.109e-06
5.691e-06
5.274e-06
4.858e-06
4.442e-06
4.028e-06
3.614e-06
3.202e-06
2.791e-06
2.382e-06
1.974e-06
1.569e-06
1.166e-06
7.66e-07
3.127e-07
0.0002069
0.0002079
0.0002089
0.0002098
0.0002104
0.0002109
0.0002112
0.0002113
0.0002114
0.0002113
0.0002112
0.000211
0.0002108
0.0002105
0.0002102
0.0002098
0.0002095
0.0002092
0.0002088
0.0002085