/*--------------------------------*- C++ -*----------------------------------*\
  =========                 |
  \\      /  F ield         | OpenFOAM: The Open Source CFD Toolbox
   \\    /   O peration     | Website:  https://openfoam.org
    \\  /    A nd           | Version:  7
     \\/     M anipulation  |
\*---------------------------------------------------------------------------*/
FoamFile
{
    version     2.0;
    format      ascii;
    class       surfaceScalarField;
    location    "1859.99947342884707";
    object      phi;
}
// * * * * * * * * * * * * * * * * * * * * * * * * * * * * * * * * * * * * * //

dimensions      [0 3 -1 0 0 0 0];

internalField   nonuniform List<scalar> 
8032
(
6.857e-10
2.518e-10
4.804e-10
2.053e-10
3.48e-10
1.324e-10
2.643e-10
8.372e-11
2.101e-10
5.416e-11
1.737e-10
3.638e-11
1.482e-10
2.552e-11
1.296e-10
1.867e-11
1.154e-10
1.416e-11
1.044e-10
1.105e-11
9.554e-11
8.821e-12
8.838e-11
7.162e-12
8.249e-11
5.888e-12
7.76e-11
4.886e-12
7.353e-11
4.079e-12
7.011e-11
3.417e-12
6.724e-11
2.866e-12
6.484e-11
2.399e-12
6.284e-11
1.999e-12
6.119e-11
1.65e-12
5.985e-11
1.343e-12
5.878e-11
1.068e-12
5.796e-11
8.191e-13
5.737e-11
5.904e-13
5.7e-11
3.773e-13
5.682e-11
1.759e-13
5.684e-11
-1.715e-14
5.704e-11
-2.047e-13
5.743e-11
-3.893e-13
5.8e-11
-5.731e-13
5.876e-11
-7.582e-13
5.971e-11
-9.462e-13
6.085e-11
-1.139e-12
6.218e-11
-1.337e-12
6.373e-11
-1.542e-12
6.548e-11
-1.754e-12
6.745e-11
-1.974e-12
6.966e-11
-2.203e-12
7.21e-11
-2.44e-12
7.478e-11
-2.684e-12
7.772e-11
-2.935e-12
8.091e-11
-3.19e-12
8.435e-11
-3.448e-12
8.806e-11
-3.705e-12
9.202e-11
-3.958e-12
9.622e-11
-4.203e-12
1.007e-10
-4.435e-12
1.053e-10
-4.647e-12
1.101e-10
-4.832e-12
1.151e-10
-4.984e-12
1.202e-10
-5.095e-12
1.254e-10
-5.157e-12
1.305e-10
-5.161e-12
1.356e-10
-5.101e-12
1.406e-10
-4.97e-12
1.454e-10
-4.763e-12
1.498e-10
-4.476e-12
1.54e-10
-4.11e-12
1.576e-10
-3.665e-12
1.608e-10
-3.148e-12
1.633e-10
-2.566e-12
1.653e-10
-1.933e-12
1.665e-10
-1.26e-12
1.671e-10
-5.661e-13
1.67e-10
1.337e-13
1.661e-10
8.223e-13
1.646e-10
1.485e-12
1.625e-10
2.107e-12
1.599e-10
2.679e-12
1.567e-10
3.192e-12
1.53e-10
3.64e-12
1.49e-10
4.021e-12
1.447e-10
4.333e-12
1.401e-10
4.577e-12
1.353e-10
4.755e-12
1.305e-10
4.871e-12
1.255e-10
4.928e-12
1.206e-10
4.932e-12
1.157e-10
4.889e-12
1.109e-10
4.804e-12
1.062e-10
4.683e-12
1.017e-10
4.533e-12
9.735e-11
4.358e-12
9.318e-11
4.165e-12
8.922e-11
3.958e-12
8.548e-11
3.742e-12
8.196e-11
3.522e-12
7.866e-11
3.3e-12
7.558e-11
3.079e-12
7.272e-11
2.863e-12
7.006e-11
2.652e-12
6.762e-11
2.449e-12
6.536e-11
2.255e-12
6.329e-11
2.071e-12
6.139e-11
1.896e-12
5.966e-11
1.732e-12
5.808e-11
1.579e-12
5.665e-11
1.436e-12
5.534e-11
1.304e-12
5.416e-11
1.181e-12
5.309e-11
1.068e-12
5.213e-11
9.64e-13
5.126e-11
8.687e-13
5.048e-11
7.815e-13
4.978e-11
7.02e-13
4.915e-11
6.295e-13
4.858e-11
5.637e-13
4.808e-11
5.039e-13
4.763e-11
4.499e-13
4.723e-11
4.011e-13
4.687e-11
3.571e-13
4.655e-11
3.175e-13
4.627e-11
2.821e-13
4.602e-11
2.506e-13
4.58e-11
2.226e-13
4.56e-11
1.981e-13
4.542e-11
1.768e-13
4.527e-11
1.587e-13
4.512e-11
1.439e-13
4.499e-11
1.324e-13
4.486e-11
1.245e-13
4.474e-11
1.209e-13
4.462e-11
1.226e-13
4.449e-11
1.317e-13
4.434e-11
1.518e-13
4.415e-11
1.895e-13
4.39e-11
2.517e-13
3.272e-13
9.523e-10
2.37e-10
8.501e-10
3.075e-10
7.275e-10
2.55e-10
6.183e-10
1.929e-10
5.293e-10
1.431e-10
4.592e-10
1.065e-10
4.041e-10
8.06e-11
3.606e-10
6.222e-11
3.257e-10
4.899e-11
2.975e-10
3.927e-11
2.744e-10
3.194e-11
2.553e-10
2.629e-11
2.393e-10
2.184e-11
2.259e-10
1.826e-11
2.147e-10
1.534e-11
2.052e-10
1.292e-11
1.971e-10
1.088e-11
1.904e-10
9.142e-12
1.848e-10
7.639e-12
1.801e-10
6.324e-12
1.763e-10
5.159e-12
1.732e-10
4.113e-12
1.709e-10
3.163e-12
1.692e-10
2.288e-12
1.681e-10
1.472e-12
1.676e-10
6.992e-13
1.676e-10
-4.151e-14
1.682e-10
-7.61e-13
1.692e-10
-1.469e-12
1.708e-10
-2.172e-12
1.73e-10
-2.879e-12
1.756e-10
-3.596e-12
1.788e-10
-4.328e-12
1.825e-10
-5.08e-12
1.868e-10
-5.855e-12
1.917e-10
-6.656e-12
1.973e-10
-7.485e-12
2.034e-10
-8.342e-12
2.102e-10
-9.226e-12
2.176e-10
-1.014e-11
2.258e-10
-1.106e-11
2.346e-10
-1.201e-11
2.441e-10
-1.296e-11
2.543e-10
-1.39e-11
2.652e-10
-1.482e-11
2.767e-10
-1.571e-11
2.888e-10
-1.655e-11
3.014e-10
-1.73e-11
3.146e-10
-1.796e-11
3.281e-10
-1.849e-11
3.418e-10
-1.887e-11
3.558e-10
-1.906e-11
3.696e-10
-1.905e-11
3.833e-10
-1.88e-11
3.966e-10
-1.828e-11
4.094e-10
-1.75e-11
4.213e-10
-1.643e-11
4.323e-10
-1.507e-11
4.421e-10
-1.343e-11
4.504e-10
-1.153e-11
4.573e-10
-9.407e-12
4.624e-10
-7.095e-12
4.658e-10
-4.647e-12
4.674e-10
-2.118e-12
4.671e-10
4.318e-13
4.65e-10
2.945e-12
4.611e-10
5.366e-12
4.555e-10
7.648e-12
4.485e-10
9.752e-12
4.4e-10
1.165e-11
4.303e-10
1.331e-11
4.196e-10
1.473e-11
4.08e-10
1.591e-11
3.958e-10
1.684e-11
3.83e-10
1.753e-11
3.699e-10
1.799e-11
3.566e-10
1.823e-11
3.433e-10
1.828e-11
3.3e-10
1.815e-11
3.169e-10
1.787e-11
3.041e-10
1.746e-11
2.918e-10
1.693e-11
2.798e-10
1.631e-11
2.684e-10
1.561e-11
2.574e-10
1.487e-11
2.471e-10
1.408e-11
2.373e-10
1.328e-11
2.282e-10
1.247e-11
2.196e-10
1.165e-11
2.116e-10
1.086e-11
2.042e-10
1.008e-11
1.973e-10
9.323e-12
1.91e-10
8.6e-12
1.851e-10
7.911e-12
1.798e-10
7.258e-12
1.749e-10
6.643e-12
1.704e-10
6.066e-12
1.663e-10
5.527e-12
1.626e-10
5.026e-12
1.592e-10
4.562e-12
1.561e-10
4.133e-12
1.533e-10
3.738e-12
1.508e-10
3.374e-12
1.486e-10
3.042e-12
1.465e-10
2.737e-12
1.447e-10
2.46e-12
1.431e-10
2.207e-12
1.416e-10
1.977e-12
1.403e-10
1.769e-12
1.391e-10
1.581e-12
1.38e-10
1.411e-12
1.371e-10
1.258e-12
1.363e-10
1.12e-12
1.355e-10
9.979e-13
1.348e-10
8.891e-13
1.342e-10
7.934e-13
1.337e-10
7.101e-13
1.332e-10
6.391e-13
1.328e-10
5.802e-13
1.324e-10
5.338e-13
1.32e-10
5.006e-13
1.317e-10
4.82e-13
1.313e-10
4.801e-13
1.309e-10
4.984e-13
1.305e-10
5.417e-13
1.301e-10
6.158e-13
1.296e-10
7.195e-13
8.173e-13
9.779e-10
1.966e-10
9.637e-10
3.217e-10
9.013e-10
3.175e-10
8.212e-10
2.731e-10
7.409e-10
2.234e-10
6.679e-10
1.795e-10
6.044e-10
1.44e-10
5.505e-10
1.162e-10
5.049e-10
9.455e-11
4.665e-10
7.767e-11
4.341e-10
6.436e-11
4.067e-10
5.373e-11
3.834e-10
4.513e-11
3.636e-10
3.807e-11
3.467e-10
3.221e-11
3.323e-10
2.728e-11
3.201e-10
2.308e-11
3.098e-10
1.947e-11
3.011e-10
1.632e-11
2.939e-10
1.355e-11
2.88e-10
1.107e-11
2.833e-10
8.848e-12
2.796e-10
6.816e-12
2.769e-10
4.938e-12
2.752e-10
3.182e-12
2.744e-10
1.516e-12
2.745e-10
-8.204e-14
2.753e-10
-1.636e-12
2.77e-10
-3.164e-12
2.795e-10
-4.684e-12
2.829e-10
-6.21e-12
2.87e-10
-7.755e-12
2.92e-10
-9.331e-12
2.979e-10
-1.095e-11
3.047e-10
-1.261e-11
3.123e-10
-1.433e-11
3.209e-10
-1.61e-11
3.305e-10
-1.793e-11
3.411e-10
-1.981e-11
3.527e-10
-2.174e-11
3.654e-10
-2.371e-11
3.791e-10
-2.571e-11
3.938e-10
-2.771e-11
4.096e-10
-2.969e-11
4.264e-10
-3.163e-11
4.442e-10
-3.349e-11
4.629e-10
-3.523e-11
4.824e-10
-3.681e-11
5.026e-10
-3.817e-11
5.234e-10
-3.925e-11
5.445e-10
-4.001e-11
5.658e-10
-4.039e-11
5.871e-10
-4.032e-11
6.08e-10
-3.975e-11
6.284e-10
-3.864e-11
6.479e-10
-3.696e-11
6.661e-10
-3.467e-11
6.828e-10
-3.179e-11
6.977e-10
-2.833e-11
7.105e-10
-2.433e-11
7.21e-10
-1.986e-11
7.289e-10
-1.499e-11
7.341e-10
-9.847e-12
7.365e-10
-4.531e-12
7.361e-10
8.303e-13
7.329e-10
6.117e-12
7.271e-10
1.122e-11
7.187e-10
1.603e-11
7.08e-10
2.048e-11
6.951e-10
2.449e-11
6.804e-10
2.802e-11
6.641e-10
3.106e-11
6.464e-10
3.357e-11
6.277e-10
3.557e-11
6.082e-10
3.706e-11
5.881e-10
3.808e-11
5.677e-10
3.864e-11
5.472e-10
3.879e-11
5.268e-10
3.856e-11
5.066e-10
3.801e-11
4.869e-10
3.717e-11
4.677e-10
3.608e-11
4.493e-10
3.48e-11
4.315e-10
3.336e-11
4.146e-10
3.181e-11
3.985e-10
3.017e-11
3.833e-10
2.848e-11
3.69e-10
2.677e-11
3.556e-10
2.506e-11
3.431e-10
2.337e-11
3.314e-10
2.172e-11
3.206e-10
2.012e-11
3.106e-10
1.858e-11
3.014e-10
1.711e-11
2.93e-10
1.572e-11
2.852e-10
1.441e-11
2.781e-10
1.317e-11
2.716e-10
1.202e-11
2.657e-10
1.094e-11
2.603e-10
9.943e-12
2.554e-10
9.02e-12
2.51e-10
8.168e-12
2.47e-10
7.384e-12
2.434e-10
6.665e-12
2.401e-10
6.006e-12
2.372e-10
5.405e-12
2.345e-10
4.856e-12
2.321e-10
4.358e-12
2.3e-10
3.905e-12
2.281e-10
3.494e-12
2.264e-10
3.124e-12
2.248e-10
2.79e-12
2.235e-10
2.489e-12
2.223e-10
2.221e-12
2.212e-10
1.982e-12
2.202e-10
1.772e-12
2.193e-10
1.588e-12
2.185e-10
1.43e-12
2.178e-10
1.299e-12
2.171e-10
1.193e-12
2.165e-10
1.113e-12
2.159e-10
1.063e-12
2.154e-10
1.043e-12
2.148e-10
1.057e-12
2.143e-10
1.107e-12
2.137e-10
1.194e-12
2.131e-10
1.306e-12
1.396e-12
9.752e-10
1.589e-10
9.93e-10
3.039e-10
9.728e-10
3.377e-10
9.268e-10
3.19e-10
8.689e-10
2.813e-10
8.083e-10
2.402e-10
7.501e-10
2.022e-10
6.968e-10
1.695e-10
6.492e-10
1.421e-10
6.074e-10
1.195e-10
5.708e-10
1.009e-10
5.39e-10
8.55e-11
5.115e-10
7.266e-11
4.877e-10
6.189e-11
4.671e-10
5.277e-11
4.494e-10
4.498e-11
4.343e-10
3.826e-11
4.213e-10
3.241e-11
4.104e-10
2.726e-11
4.012e-10
2.269e-11
3.937e-10
1.86e-11
3.877e-10
1.488e-11
3.83e-10
1.147e-11
3.796e-10
8.314e-12
3.775e-10
5.346e-12
3.765e-10
2.525e-12
3.766e-10
-1.892e-13
3.778e-10
-2.831e-12
3.8e-10
-5.432e-12
3.834e-10
-8.019e-12
3.878e-10
-1.062e-11
3.933e-10
-1.325e-11
3.999e-10
-1.593e-11
4.076e-10
-1.867e-11
4.165e-10
-2.149e-11
4.265e-10
-2.44e-11
4.378e-10
-2.74e-11
4.504e-10
-3.048e-11
4.642e-10
-3.366e-11
4.794e-10
-3.691e-11
4.959e-10
-4.022e-11
5.138e-10
-4.357e-11
5.33e-10
-4.692e-11
5.535e-10
-5.024e-11
5.754e-10
-5.347e-11
5.984e-10
-5.657e-11
6.226e-10
-5.945e-11
6.479e-10
-6.206e-11
6.74e-10
-6.43e-11
7.009e-10
-6.608e-11
7.281e-10
-6.731e-11
7.557e-10
-6.789e-11
7.831e-10
-6.773e-11
8.101e-10
-6.674e-11
8.363e-10
-6.485e-11
8.613e-10
-6.2e-11
8.848e-10
-5.816e-11
9.063e-10
-5.331e-11
9.255e-10
-4.751e-11
9.42e-10
-4.081e-11
9.554e-10
-3.332e-11
9.656e-10
-2.518e-11
9.724e-10
-1.657e-11
9.755e-10
-7.683e-12
9.751e-10
1.286e-12
9.71e-10
1.013e-11
9.636e-10
1.867e-11
9.529e-10
2.674e-11
9.391e-10
3.42e-11
9.227e-10
4.094e-11
9.038e-10
4.689e-11
8.829e-10
5.201e-11
8.602e-10
5.626e-11
8.361e-10
5.966e-11
8.109e-10
6.221e-11
7.85e-10
6.397e-11
7.587e-10
6.497e-11
7.322e-10
6.528e-11
7.058e-10
6.496e-11
6.797e-10
6.408e-11
6.542e-10
6.272e-11
6.293e-10
6.095e-11
6.053e-10
5.884e-11
5.822e-10
5.646e-11
5.601e-10
5.388e-11
5.391e-10
5.116e-11
5.193e-10
4.834e-11
5.005e-10
4.548e-11
4.83e-10
4.262e-11
4.666e-10
3.979e-11
4.513e-10
3.701e-11
4.371e-10
3.432e-11
4.239e-10
3.173e-11
4.118e-10
2.926e-11
4.006e-10
2.691e-11
3.903e-10
2.468e-11
3.809e-10
2.259e-11
3.723e-10
2.063e-11
3.644e-10
1.881e-11
3.572e-10
1.711e-11
3.507e-10
1.554e-11
3.448e-10
1.409e-11
3.394e-10
1.275e-11
3.346e-10
1.152e-11
3.302e-10
1.04e-11
3.262e-10
9.365e-12
3.226e-10
8.425e-12
3.194e-10
7.569e-12
3.165e-10
6.791e-12
3.14e-10
6.085e-12
3.116e-10
5.447e-12
3.096e-10
4.871e-12
3.077e-10
4.353e-12
3.06e-10
3.889e-12
3.045e-10
3.475e-12
3.032e-10
3.109e-12
3.02e-10
2.789e-12
3.009e-10
2.513e-12
2.999e-10
2.279e-12
2.99e-10
2.088e-12
2.982e-10
1.939e-12
2.974e-10
1.835e-12
2.967e-10
1.777e-12
2.96e-10
1.765e-12
2.953e-10
1.8e-12
2.946e-10
1.876e-12
2.939e-10
1.974e-12
2.049e-12
9.668e-10
1.296e-10
9.944e-10
2.762e-10
9.978e-10
3.343e-10
9.779e-10
3.389e-10
9.423e-10
3.169e-10
8.984e-10
2.841e-10
8.515e-10
2.491e-10
8.051e-10
2.158e-10
7.613e-10
1.86e-10
7.209e-10
1.599e-10
6.844e-10
1.374e-10
6.518e-10
1.181e-10
6.228e-10
1.016e-10
5.973e-10
8.742e-11
5.749e-10
7.515e-11
5.554e-10
6.449e-11
5.385e-10
5.516e-11
5.24e-10
4.694e-11
5.116e-10
3.964e-11
5.012e-10
3.31e-11
4.926e-10
2.718e-11
4.857e-10
2.178e-11
4.804e-10
1.68e-11
4.765e-10
1.216e-11
4.741e-10
7.778e-12
4.73e-10
3.602e-12
4.733e-10
-4.268e-13
4.748e-10
-4.357e-12
4.776e-10
-8.231e-12
4.816e-10
-1.209e-11
4.87e-10
-1.596e-11
4.936e-10
-1.989e-11
5.016e-10
-2.388e-11
5.109e-10
-2.797e-11
5.216e-10
-3.217e-11
5.337e-10
-3.649e-11
5.472e-10
-4.095e-11
5.623e-10
-4.553e-11
5.788e-10
-5.024e-11
5.97e-10
-5.505e-11
6.167e-10
-5.994e-11
6.38e-10
-6.488e-11
6.609e-10
-6.982e-11
6.854e-10
-7.471e-11
7.114e-10
-7.946e-11
7.388e-10
-8.401e-11
7.676e-10
-8.824e-11
7.976e-10
-9.205e-11
8.286e-10
-9.532e-11
8.605e-10
-9.791e-11
8.928e-10
-9.968e-11
9.254e-10
-1.005e-10
9.579e-10
-1.002e-10
9.899e-10
-9.874e-11
1.021e-09
-9.592e-11
1.051e-09
-9.169e-11
1.079e-09
-8.599e-11
1.104e-09
-7.884e-11
1.127e-09
-7.026e-11
1.146e-09
-6.036e-11
1.162e-09
-4.931e-11
1.174e-09
-3.73e-11
1.182e-09
-2.458e-11
1.186e-09
-1.146e-11
1.186e-09
1.783e-12
1.181e-09
1.485e-11
1.172e-09
2.746e-11
1.16e-09
3.938e-11
1.143e-09
5.04e-11
1.124e-09
6.038e-11
1.102e-09
6.919e-11
1.077e-09
7.678e-11
1.05e-09
8.31e-11
1.022e-09
8.817e-11
9.918e-10
9.2e-11
9.611e-10
9.465e-11
9.298e-10
9.62e-11
8.984e-10
9.671e-11
8.671e-10
9.63e-11
8.361e-10
9.507e-11
8.057e-10
9.312e-11
7.761e-10
9.055e-11
7.474e-10
8.749e-11
7.199e-10
8.402e-11
6.935e-10
8.024e-11
6.685e-10
7.624e-11
6.447e-10
7.21e-11
6.223e-10
6.789e-11
6.012e-10
6.367e-11
5.815e-10
5.95e-11
5.631e-10
5.54e-11
5.46e-10
5.142e-11
5.302e-10
4.758e-11
5.155e-10
4.391e-11
5.02e-10
4.042e-11
4.896e-10
3.711e-11
4.782e-10
3.4e-11
4.677e-10
3.108e-11
4.582e-10
2.836e-11
4.495e-10
2.583e-11
4.415e-10
2.348e-11
4.343e-10
2.13e-11
4.278e-10
1.93e-11
4.218e-10
1.746e-11
4.164e-10
1.577e-11
4.116e-10
1.422e-11
4.072e-10
1.281e-11
4.033e-10
1.152e-11
3.997e-10
1.034e-11
3.965e-10
9.28e-12
3.936e-10
8.316e-12
3.911e-10
7.445e-12
3.888e-10
6.66e-12
3.867e-10
5.957e-12
3.848e-10
5.328e-12
3.832e-10
4.771e-12
3.817e-10
4.281e-12
3.803e-10
3.856e-12
3.791e-10
3.493e-12
3.78e-10
3.191e-12
3.77e-10
2.95e-12
3.761e-10
2.77e-12
3.752e-10
2.651e-12
3.744e-10
2.592e-12
3.736e-10
2.589e-12
3.728e-10
2.633e-12
3.721e-10
2.704e-12
2.761e-12
9.592e-10
1.079e-10
9.875e-10
2.479e-10
1.003e-09
3.192e-10
1e-09
3.415e-10
9.823e-10
3.346e-10
9.542e-10
3.123e-10
9.2e-10
2.833e-10
8.832e-10
2.526e-10
8.462e-10
2.23e-10
8.104e-10
1.956e-10
7.768e-10
1.71e-10
7.459e-10
1.491e-10
7.177e-10
1.298e-10
6.924e-10
1.127e-10
6.698e-10
9.772e-11
6.499e-10
8.444e-11
6.324e-10
7.264e-11
6.172e-10
6.211e-11
6.042e-10
5.266e-11
5.932e-10
4.41e-11
5.841e-10
3.629e-11
5.768e-10
2.912e-11
5.711e-10
2.245e-11
5.671e-10
1.621e-11
5.646e-10
1.029e-11
5.636e-10
4.622e-12
5.64e-10
-8.615e-13
5.659e-10
-6.224e-12
5.692e-10
-1.152e-11
5.739e-10
-1.68e-11
5.8e-10
-2.211e-11
5.876e-10
-2.748e-11
5.967e-10
-3.296e-11
6.073e-10
-3.856e-11
6.194e-10
-4.431e-11
6.332e-10
-5.023e-11
6.485e-10
-5.632e-11
6.656e-10
-6.259e-11
6.844e-10
-6.901e-11
7.049e-10
-7.557e-11
7.272e-10
-8.224e-11
7.513e-10
-8.897e-11
7.771e-10
-9.569e-11
8.048e-10
-1.023e-10
8.341e-10
-1.088e-10
8.65e-10
-1.15e-10
8.975e-10
-1.207e-10
9.313e-10
-1.259e-10
9.663e-10
-1.303e-10
1.002e-09
-1.338e-10
1.039e-09
-1.362e-10
1.075e-09
-1.373e-10
1.112e-09
-1.369e-10
1.148e-09
-1.348e-10
1.183e-09
-1.31e-10
1.217e-09
-1.252e-10
1.248e-09
-1.175e-10
1.277e-09
-1.077e-10
1.303e-09
-9.6e-11
1.325e-09
-8.25e-11
1.343e-09
-6.741e-11
1.357e-09
-5.102e-11
1.366e-09
-3.367e-11
1.37e-09
-1.575e-11
1.37e-09
2.323e-12
1.364e-09
2.015e-11
1.354e-09
3.736e-11
1.34e-09
5.363e-11
1.322e-09
6.867e-11
1.3e-09
8.228e-11
1.275e-09
9.432e-11
1.247e-09
1.047e-10
1.217e-09
1.133e-10
1.185e-09
1.203e-10
1.151e-09
1.256e-10
1.116e-09
1.292e-10
1.081e-09
1.314e-10
1.046e-09
1.322e-10
1.01e-09
1.317e-10
9.755e-10
1.3e-10
9.412e-10
1.274e-10
9.077e-10
1.24e-10
8.754e-10
1.199e-10
8.442e-10
1.152e-10
8.144e-10
1.101e-10
7.86e-10
1.046e-10
7.591e-10
9.902e-11
7.337e-10
9.331e-11
7.098e-10
8.757e-11
6.874e-10
8.188e-11
6.665e-10
7.63e-11
6.471e-10
7.087e-11
6.29e-10
6.563e-11
6.123e-10
6.062e-11
5.969e-10
5.584e-11
5.827e-10
5.131e-11
5.696e-10
4.705e-11
5.577e-10
4.305e-11
5.467e-10
3.931e-11
5.367e-10
3.583e-11
5.276e-10
3.26e-11
5.193e-10
2.961e-11
5.118e-10
2.684e-11
5.049e-10
2.43e-11
4.987e-10
2.197e-11
4.931e-10
1.983e-11
4.88e-10
1.788e-11
4.835e-10
1.609e-11
4.793e-10
1.447e-11
4.756e-10
1.299e-11
4.723e-10
1.165e-11
4.693e-10
1.044e-11
4.666e-10
9.351e-12
4.642e-10
8.37e-12
4.62e-10
7.493e-12
4.601e-10
6.712e-12
4.583e-10
6.024e-12
4.568e-10
5.423e-12
4.554e-10
4.907e-12
4.541e-10
4.471e-12
4.529e-10
4.116e-12
4.518e-10
3.838e-12
4.509e-10
3.637e-12
4.499e-10
3.509e-12
4.491e-10
3.45e-12
4.483e-10
3.448e-12
4.475e-10
3.482e-12
3.517e-12
9.536e-10
9.186e-11
9.794e-10
2.22e-10
9.995e-10
2.991e-10
1.007e-09
3.337e-10
1.003e-09
3.394e-10
9.874e-10
3.274e-10
9.65e-10
3.057e-10
9.382e-10
2.795e-10
9.091e-10
2.52e-10
8.795e-10
2.252e-10
8.506e-10
1.999e-10
8.231e-10
1.766e-10
7.974e-10
1.555e-10
7.737e-10
1.364e-10
7.523e-10
1.192e-10
7.33e-10
1.037e-10
7.16e-10
8.971e-11
7.01e-10
7.707e-11
6.881e-10
6.558e-11
6.771e-10
5.508e-11
6.68e-10
4.543e-11
6.606e-10
3.647e-11
6.55e-10
2.81e-11
6.51e-10
2.021e-11
6.486e-10
1.269e-11
6.477e-10
5.464e-12
6.484e-10
-1.555e-12
6.506e-10
-8.438e-12
6.544e-10
-1.525e-11
6.596e-10
-2.206e-11
6.664e-10
-2.89e-11
6.748e-10
-3.584e-11
6.847e-10
-4.292e-11
6.963e-10
-5.015e-11
7.096e-10
-5.758e-11
7.246e-10
-6.523e-11
7.414e-10
-7.309e-11
7.599e-10
-8.117e-11
7.804e-10
-8.945e-11
8.027e-10
-9.791e-11
8.27e-10
-1.065e-10
8.531e-10
-1.152e-10
8.813e-10
-1.238e-10
9.113e-10
-1.323e-10
9.432e-10
-1.407e-10
9.768e-10
-1.486e-10
1.012e-09
-1.56e-10
1.049e-09
-1.626e-10
1.087e-09
-1.683e-10
1.126e-09
-1.728e-10
1.166e-09
-1.759e-10
1.206e-09
-1.773e-10
1.246e-09
-1.769e-10
1.285e-09
-1.742e-10
1.323e-09
-1.693e-10
1.36e-09
-1.619e-10
1.395e-09
-1.519e-10
1.426e-09
-1.393e-10
1.454e-09
-1.242e-10
1.479e-09
-1.068e-10
1.499e-09
-8.73e-11
1.514e-09
-6.61e-11
1.524e-09
-4.365e-11
1.528e-09
-2.046e-11
1.528e-09
2.925e-12
1.522e-09
2.598e-11
1.511e-09
4.823e-11
1.495e-09
6.924e-11
1.475e-09
8.866e-11
1.451e-09
1.062e-10
1.424e-09
1.218e-10
1.394e-09
1.352e-10
1.361e-09
1.463e-10
1.326e-09
1.553e-10
1.289e-09
1.621e-10
1.251e-09
1.669e-10
1.213e-09
1.697e-10
1.174e-09
1.708e-10
1.136e-09
1.701e-10
1.098e-09
1.681e-10
1.06e-09
1.648e-10
1.024e-09
1.604e-10
9.888e-10
1.551e-10
9.549e-10
1.491e-10
9.224e-10
1.425e-10
8.915e-10
1.356e-10
8.621e-10
1.284e-10
8.344e-10
1.21e-10
8.083e-10
1.136e-10
7.839e-10
1.063e-10
7.61e-10
9.913e-11
7.398e-10
9.213e-11
7.2e-10
8.538e-11
7.017e-10
7.891e-11
6.848e-10
7.274e-11
6.692e-10
6.689e-11
6.549e-10
6.137e-11
6.418e-10
5.619e-11
6.297e-10
5.135e-11
6.187e-10
4.684e-11
6.087e-10
4.264e-11
5.995e-10
3.876e-11
5.912e-10
3.517e-11
5.836e-10
3.187e-11
5.768e-10
2.883e-11
5.706e-10
2.605e-11
5.649e-10
2.35e-11
5.599e-10
2.117e-11
5.553e-10
1.905e-11
5.511e-10
1.712e-11
5.474e-10
1.537e-11
5.441e-10
1.378e-11
5.411e-10
1.235e-11
5.384e-10
1.107e-11
5.36e-10
9.911e-12
5.338e-10
8.883e-12
5.318e-10
7.972e-12
5.301e-10
7.173e-12
5.285e-10
6.481e-12
5.271e-10
5.892e-12
5.258e-10
5.402e-12
5.246e-10
5.008e-12
5.236e-10
4.707e-12
5.226e-10
4.495e-12
5.217e-10
4.364e-12
5.208e-10
4.302e-12
5.2e-10
4.291e-12
4.302e-12
9.498e-10
7.959e-11
9.724e-10
1.994e-10
9.938e-10
2.777e-10
1.007e-09
3.2e-10
1.011e-09
3.354e-10
1.006e-09
3.325e-10
9.938e-10
3.181e-10
9.761e-10
2.972e-10
9.551e-10
2.731e-10
9.322e-10
2.481e-10
9.087e-10
2.234e-10
8.856e-10
1.998e-10
8.633e-10
1.777e-10
8.424e-10
1.573e-10
8.23e-10
1.385e-10
8.053e-10
1.213e-10
7.895e-10
1.056e-10
7.754e-10
9.111e-11
7.632e-10
7.782e-11
7.527e-10
6.554e-11
7.44e-10
5.414e-11
7.37e-10
4.349e-11
7.317e-10
3.346e-11
7.279e-10
2.394e-11
7.258e-10
1.483e-11
7.252e-10
6.026e-12
7.262e-10
-2.555e-12
7.288e-10
-1.1e-11
7.329e-10
-1.937e-11
7.386e-10
-2.775e-11
7.459e-10
-3.62e-11
7.548e-10
-4.477e-11
7.654e-10
-5.351e-11
7.777e-10
-6.246e-11
7.918e-10
-7.164e-11
8.077e-10
-8.109e-11
8.254e-10
-9.081e-11
8.45e-10
-1.008e-10
8.666e-10
-1.11e-10
8.902e-10
-1.215e-10
9.158e-10
-1.321e-10
9.434e-10
-1.428e-10
9.731e-10
-1.535e-10
1.005e-09
-1.64e-10
1.038e-09
-1.743e-10
1.074e-09
-1.841e-10
1.111e-09
-1.933e-10
1.15e-09
-2.015e-10
1.19e-09
-2.086e-10
1.232e-09
-2.142e-10
1.274e-09
-2.181e-10
1.317e-09
-2.199e-10
1.359e-09
-2.194e-10
1.401e-09
-2.162e-10
1.442e-09
-2.102e-10
1.481e-09
-2.011e-10
1.518e-09
-1.888e-10
1.552e-09
-1.732e-10
1.582e-09
-1.545e-10
1.608e-09
-1.329e-10
1.63e-09
-1.087e-10
1.646e-09
-8.229e-11
1.657e-09
-5.434e-11
1.662e-09
-2.548e-11
1.661e-09
3.62e-12
1.655e-09
3.229e-11
1.643e-09
5.993e-11
1.626e-09
8.6e-11
1.605e-09
1.101e-10
1.579e-09
1.318e-10
1.55e-09
1.511e-10
1.517e-09
1.676e-10
1.482e-09
1.815e-10
1.445e-09
1.926e-10
1.406e-09
2.01e-10
1.366e-09
2.069e-10
1.325e-09
2.104e-10
1.284e-09
2.117e-10
1.243e-09
2.11e-10
1.203e-09
2.085e-10
1.164e-09
2.044e-10
1.125e-09
1.99e-10
1.088e-09
1.924e-10
1.052e-09
1.85e-10
1.017e-09
1.769e-10
9.845e-10
1.684e-10
9.535e-10
1.595e-10
9.241e-10
1.504e-10
8.965e-10
1.413e-10
8.706e-10
1.322e-10
8.464e-10
1.233e-10
8.239e-10
1.147e-10
8.029e-10
1.063e-10
7.835e-10
9.831e-11
7.656e-10
9.067e-11
7.49e-10
8.343e-11
7.338e-10
7.66e-11
7.198e-10
7.018e-11
7.07e-10
6.417e-11
6.953e-10
5.856e-11
6.846e-10
5.336e-11
6.748e-10
4.853e-11
6.659e-10
4.407e-11
6.578e-10
3.996e-11
6.505e-10
3.618e-11
6.438e-10
3.271e-11
6.378e-10
2.953e-11
6.323e-10
2.662e-11
6.274e-10
2.397e-11
6.23e-10
2.156e-11
6.19e-10
1.937e-11
6.154e-10
1.738e-11
6.121e-10
1.559e-11
6.092e-10
1.397e-11
6.066e-10
1.252e-11
6.043e-10
1.122e-11
6.022e-10
1.007e-11
6.003e-10
9.059e-12
5.986e-10
8.176e-12
5.971e-10
7.416e-12
5.957e-10
6.776e-12
5.945e-10
6.251e-12
5.933e-10
5.835e-12
5.923e-10
5.524e-12
5.914e-10
5.309e-12
5.905e-10
5.179e-12
5.897e-10
5.118e-12
5.102e-12
9.471e-10
6.994e-11
9.668e-10
1.798e-10
9.878e-10
2.568e-10
1.004e-09
3.034e-10
1.014e-09
3.258e-10
1.016e-09
3.303e-10
1.012e-09
3.226e-10
1.002e-09
3.07e-10
9.881e-10
2.869e-10
9.717e-10
2.644e-10
9.539e-10
2.412e-10
9.356e-10
2.182e-10
9.173e-10
1.96e-10
8.997e-10
1.749e-10
8.83e-10
1.552e-10
8.676e-10
1.368e-10
8.535e-10
1.196e-10
8.409e-10
1.037e-10
8.298e-10
8.889e-11
8.203e-10
7.505e-11
8.124e-10
6.208e-11
8.06e-10
4.987e-11
8.012e-10
3.828e-11
7.979e-10
2.722e-11
7.962e-10
1.656e-11
7.96e-10
6.227e-12
7.973e-10
-3.891e-12
8.002e-10
-1.388e-11
8.046e-10
-2.382e-11
8.106e-10
-3.378e-11
8.183e-10
-4.384e-11
8.276e-10
-5.406e-11
8.386e-10
-6.449e-11
8.513e-10
-7.518e-11
8.658e-10
-8.615e-11
8.821e-10
-9.744e-11
9.004e-10
-1.091e-10
9.206e-10
-1.21e-10
9.428e-10
-1.332e-10
9.671e-10
-1.457e-10
9.934e-10
-1.584e-10
1.022e-09
-1.712e-10
1.052e-09
-1.841e-10
1.085e-09
-1.967e-10
1.12e-09
-2.09e-10
1.156e-09
-2.208e-10
1.195e-09
-2.318e-10
1.235e-09
-2.417e-10
1.277e-09
-2.503e-10
1.32e-09
-2.571e-10
1.364e-09
-2.619e-10
1.408e-09
-2.642e-10
1.452e-09
-2.637e-10
1.496e-09
-2.601e-10
1.539e-09
-2.53e-10
1.58e-09
-2.422e-10
1.619e-09
-2.275e-10
1.655e-09
-2.089e-10
1.687e-09
-1.865e-10
1.714e-09
-1.605e-10
1.737e-09
-1.312e-10
1.754e-09
-9.936e-11
1.765e-09
-6.559e-11
1.77e-09
-3.07e-11
1.769e-09
4.455e-12
1.763e-09
3.906e-11
1.75e-09
7.236e-11
1.732e-09
1.037e-10
1.71e-09
1.327e-10
1.683e-09
1.588e-10
1.652e-09
1.818e-10
1.618e-09
2.016e-10
1.582e-09
2.182e-10
1.543e-09
2.314e-10
1.502e-09
2.415e-10
1.46e-09
2.486e-10
1.418e-09
2.527e-10
1.376e-09
2.542e-10
1.333e-09
2.534e-10
1.291e-09
2.503e-10
1.25e-09
2.454e-10
1.21e-09
2.389e-10
1.172e-09
2.311e-10
1.135e-09
2.222e-10
1.099e-09
2.125e-10
1.065e-09
2.022e-10
1.033e-09
1.916e-10
1.003e-09
1.807e-10
9.742e-10
1.698e-10
9.474e-10
1.59e-10
9.225e-10
1.483e-10
8.992e-10
1.38e-10
8.775e-10
1.28e-10
8.575e-10
1.184e-10
8.39e-10
1.092e-10
8.218e-10
1.005e-10
8.061e-10
9.235e-11
7.916e-10
8.465e-11
7.784e-10
7.744e-11
7.662e-10
7.072e-11
7.551e-10
6.446e-11
7.45e-10
5.867e-11
7.357e-10
5.331e-11
7.273e-10
4.836e-11
7.197e-10
4.381e-11
7.128e-10
3.963e-11
7.065e-10
3.58e-11
7.008e-10
3.23e-11
6.957e-10
2.911e-11
6.91e-10
2.62e-11
6.869e-10
2.355e-11
6.831e-10
2.115e-11
6.797e-10
1.898e-11
6.767e-10
1.702e-11
6.739e-10
1.525e-11
6.715e-10
1.368e-11
6.693e-10
1.227e-11
6.673e-10
1.103e-11
6.655e-10
9.945e-12
6.639e-10
9.004e-12
6.625e-10
8.202e-12
6.612e-10
7.534e-12
6.601e-10
6.993e-12
6.59e-10
6.574e-12
6.581e-10
6.267e-12
6.572e-10
6.062e-12
6.563e-10
5.947e-12
5.903e-12
9.453e-10
6.212e-11
9.624e-10
1.627e-10
9.823e-10
2.369e-10
1e-09
2.855e-10
1.013e-09
3.127e-10
1.021e-09
3.23e-10
1.022e-09
3.21e-10
1.019e-09
3.104e-10
1.011e-09
2.943e-10
1.001e-09
2.748e-10
9.887e-10
2.535e-10
9.752e-10
2.317e-10
9.611e-10
2.1e-10
9.471e-10
1.89e-10
9.335e-10
1.688e-10
9.206e-10
1.496e-10
9.087e-10
1.315e-10
8.979e-10
1.145e-10
8.884e-10
9.845e-11
8.801e-10
8.331e-11
8.732e-10
6.899e-11
8.677e-10
5.538e-11
8.636e-10
4.239e-11
8.609e-10
2.99e-11
8.597e-10
1.781e-11
8.599e-10
6.017e-12
8.616e-10
-5.572e-12
8.647e-10
-1.705e-11
8.694e-10
-2.851e-11
8.757e-10
-4.002e-11
8.835e-10
-5.166e-11
8.929e-10
-6.351e-11
9.04e-10
-7.561e-11
9.169e-10
-8.802e-11
9.315e-10
-1.008e-10
9.48e-10
-1.139e-10
9.663e-10
-1.274e-10
9.867e-10
-1.413e-10
1.009e-09
-1.556e-10
1.033e-09
-1.701e-10
1.06e-09
-1.85e-10
1.089e-09
-1.999e-10
1.119e-09
-2.148e-10
1.152e-09
-2.296e-10
1.187e-09
-2.441e-10
1.224e-09
-2.579e-10
1.263e-09
-2.708e-10
1.304e-09
-2.825e-10
1.347e-09
-2.927e-10
1.39e-09
-3.008e-10
1.435e-09
-3.066e-10
1.48e-09
-3.095e-10
1.526e-09
-3.092e-10
1.571e-09
-3.052e-10
1.615e-09
-2.971e-10
1.657e-09
-2.847e-10
1.698e-09
-2.677e-10
1.735e-09
-2.46e-10
1.768e-09
-2.197e-10
1.797e-09
-1.891e-10
1.82e-09
-1.547e-10
1.838e-09
-1.171e-10
1.849e-09
-7.722e-11
1.855e-09
-3.601e-11
1.854e-09
5.484e-12
1.846e-09
4.627e-11
1.833e-09
8.544e-11
1.815e-09
1.223e-10
1.791e-09
1.562e-10
1.763e-09
1.867e-10
1.732e-09
2.136e-10
1.697e-09
2.367e-10
1.659e-09
2.559e-10
1.619e-09
2.713e-10
1.578e-09
2.83e-10
1.535e-09
2.912e-10
1.492e-09
2.96e-10
1.448e-09
2.976e-10
1.405e-09
2.965e-10
1.363e-09
2.929e-10
1.321e-09
2.871e-10
1.28e-09
2.795e-10
1.241e-09
2.703e-10
1.203e-09
2.599e-10
1.167e-09
2.485e-10
1.133e-09
2.365e-10
1.101e-09
2.24e-10
1.07e-09
2.113e-10
1.041e-09
1.986e-10
1.014e-09
1.859e-10
9.891e-10
1.735e-10
9.656e-10
1.614e-10
9.438e-10
1.498e-10
9.236e-10
1.386e-10
9.049e-10
1.279e-10
8.876e-10
1.178e-10
8.717e-10
1.082e-10
8.571e-10
9.926e-11
8.437e-10
9.084e-11
8.314e-10
8.299e-11
8.202e-10
7.569e-11
8.099e-10
6.892e-11
8.006e-10
6.265e-11
7.921e-10
5.687e-11
7.844e-10
5.155e-11
7.773e-10
4.666e-11
7.71e-10
4.218e-11
7.652e-10
3.807e-11
7.6e-10
3.433e-11
7.553e-10
3.091e-11
7.51e-10
2.78e-11
7.472e-10
2.498e-11
7.437e-10
2.243e-11
7.406e-10
2.012e-11
7.378e-10
1.804e-11
7.353e-10
1.618e-11
7.331e-10
1.452e-11
7.311e-10
1.304e-11
7.293e-10
1.175e-11
7.277e-10
1.062e-11
7.262e-10
9.646e-12
7.249e-10
8.828e-12
7.238e-10
8.155e-12
7.227e-10
7.621e-12
7.218e-10
7.216e-12
7.209e-10
6.933e-12
7.201e-10
6.761e-12
6.689e-12
9.44e-10
5.561e-11
9.59e-10
1.477e-10
9.775e-10
2.183e-10
9.957e-10
2.674e-10
1.011e-09
2.975e-10
1.022e-09
3.121e-10
1.028e-09
3.148e-10
1.03e-09
3.086e-10
1.028e-09
2.963e-10
1.023e-09
2.799e-10
1.015e-09
2.609e-10
1.006e-09
2.407e-10
9.963e-10
2.2e-10
9.859e-10
1.994e-10
9.755e-10
1.792e-10
9.655e-10
1.597e-10
9.559e-10
1.411e-10
9.472e-10
1.232e-10
9.394e-10
1.063e-10
9.326e-10
9.01e-11
9.269e-10
7.466e-11
9.224e-10
5.988e-11
9.191e-10
4.566e-11
9.171e-10
3.19e-11
9.164e-10
1.85e-11
9.171e-10
5.376e-12
9.191e-10
-7.578e-12
9.225e-10
-2.046e-11
9.273e-10
-3.334e-11
9.336e-10
-4.633e-11
9.415e-10
-5.949e-11
9.509e-10
-7.29e-11
9.619e-10
-8.662e-11
9.746e-10
-1.007e-10
9.89e-10
-1.152e-10
1.005e-09
-1.301e-10
1.023e-09
-1.455e-10
1.043e-09
-1.613e-10
1.065e-09
-1.776e-10
1.089e-09
-1.942e-10
1.115e-09
-2.111e-10
1.144e-09
-2.281e-10
1.174e-09
-2.452e-10
1.206e-09
-2.622e-10
1.241e-09
-2.787e-10
1.278e-09
-2.946e-10
1.317e-09
-3.095e-10
1.357e-09
-3.231e-10
1.399e-09
-3.349e-10
1.443e-09
-3.445e-10
1.488e-09
-3.514e-10
1.533e-09
-3.551e-10
1.579e-09
-3.55e-10
1.625e-09
-3.508e-10
1.67e-09
-3.419e-10
1.713e-09
-3.279e-10
1.754e-09
-3.086e-10
1.792e-09
-2.839e-10
1.826e-09
-2.538e-10
1.855e-09
-2.186e-10
1.879e-09
-1.788e-10
1.898e-09
-1.353e-10
1.909e-09
-8.905e-11
1.915e-09
-4.128e-11
1.913e-09
6.778e-12
1.906e-09
5.391e-11
1.892e-09
9.908e-11
1.873e-09
1.414e-10
1.849e-09
1.803e-10
1.82e-09
2.152e-10
1.788e-09
2.459e-10
1.752e-09
2.722e-10
1.714e-09
2.941e-10
1.674e-09
3.116e-10
1.632e-09
3.248e-10
1.589e-09
3.34e-10
1.546e-09
3.393e-10
1.503e-09
3.411e-10
1.459e-09
3.397e-10
1.417e-09
3.354e-10
1.375e-09
3.287e-10
1.335e-09
3.199e-10
1.296e-09
3.093e-10
1.258e-09
2.973e-10
1.223e-09
2.842e-10
1.189e-09
2.704e-10
1.157e-09
2.562e-10
1.126e-09
2.416e-10
1.098e-09
2.27e-10
1.071e-09
2.126e-10
1.046e-09
1.984e-10
1.023e-09
1.846e-10
1.002e-09
1.713e-10
9.817e-10
1.585e-10
9.633e-10
1.464e-10
9.463e-10
1.348e-10
9.306e-10
1.239e-10
9.162e-10
1.137e-10
9.03e-10
1.041e-10
8.909e-10
9.51e-11
8.798e-10
8.677e-11
8.697e-10
7.904e-11
8.605e-10
7.188e-11
8.521e-10
6.528e-11
8.444e-10
5.92e-11
8.375e-10
5.361e-11
8.312e-10
4.848e-11
8.255e-10
4.379e-11
8.203e-10
3.95e-11
8.156e-10
3.558e-11
8.114e-10
3.202e-11
8.076e-10
2.879e-11
8.042e-10
2.586e-11
8.011e-10
2.32e-11
7.983e-10
2.081e-11
7.958e-10
1.867e-11
7.936e-10
1.675e-11
7.916e-10
1.504e-11
7.898e-10
1.353e-11
7.882e-10
1.221e-11
7.868e-10
1.107e-11
7.855e-10
1.01e-11
7.844e-10
9.294e-12
7.834e-10
8.642e-12
7.824e-10
8.138e-12
7.816e-10
7.775e-12
7.808e-10
7.546e-12
7.445e-12
9.43e-10
5.006e-11
9.563e-10
1.345e-10
9.735e-10
2.011e-10
9.915e-10
2.494e-10
1.008e-09
2.812e-10
1.021e-09
2.989e-10
1.031e-09
3.052e-10
1.036e-09
3.028e-10
1.039e-09
2.939e-10
1.038e-09
2.805e-10
1.035e-09
2.639e-10
1.03e-09
2.455e-10
1.024e-09
2.26e-10
1.018e-09
2.062e-10
1.01e-09
1.864e-10
1.003e-09
1.67e-10
9.959e-10
1.481e-10
9.893e-10
1.298e-10
9.834e-10
1.123e-10
9.782e-10
9.532e-11
9.738e-10
7.901e-11
9.704e-10
6.326e-11
9.681e-10
4.801e-11
9.668e-10
3.316e-11
9.667e-10
1.863e-11
9.677e-10
4.313e-12
9.7e-10
-9.871e-12
9.736e-10
-2.402e-11
9.785e-10
-3.823e-11
9.847e-10
-5.258e-11
9.924e-10
-6.715e-11
1.002e-09
-8.202e-11
1.012e-09
-9.726e-11
1.024e-09
-1.129e-10
1.038e-09
-1.291e-10
1.054e-09
-1.457e-10
1.071e-09
-1.629e-10
1.09e-09
-1.805e-10
1.112e-09
-1.987e-10
1.135e-09
-2.173e-10
1.16e-09
-2.362e-10
1.187e-09
-2.553e-10
1.216e-09
-2.745e-10
1.248e-09
-2.936e-10
1.281e-09
-3.123e-10
1.317e-09
-3.303e-10
1.355e-09
-3.472e-10
1.394e-09
-3.627e-10
1.436e-09
-3.763e-10
1.478e-09
-3.874e-10
1.523e-09
-3.955e-10
1.568e-09
-4.001e-10
1.613e-09
-4.005e-10
1.658e-09
-3.962e-10
1.703e-09
-3.866e-10