/*--------------------------------*- C++ -*----------------------------------*\
  =========                 |
  \\      /  F ield         | OpenFOAM: The Open Source CFD Toolbox
   \\    /   O peration     | Website:  https://openfoam.org
    \\  /    A nd           | Version:  7
     \\/     M anipulation  |
\*---------------------------------------------------------------------------*/
FoamFile
{
    version     2.0;
    format      ascii;
    class       volVectorField;
    location    "1859.99947342884707";
    object      U;
}
// * * * * * * * * * * * * * * * * * * * * * * * * * * * * * * * * * * * * * //

dimensions      [0 1 -1 0 0 0 0];

internalField   nonuniform List<vector> 
4096
(
(0.001039 0.0001611 0)
(0.0007463 0.0001314 0)
(0.0005302 8.474e-05 0)
(0.0003919 5.358e-05 0)
(0.0003036 3.466e-05 0)
(0.0002457 2.328e-05 0)
(0.0002061 1.633e-05 0)
(0.0001778 1.195e-05 0)
(0.0001568 9.06e-06 0)
(0.0001407 7.072e-06 0)
(0.0001279 5.645e-06 0)
(0.0001177 4.583e-06 0)
(0.0001094 3.768e-06 0)
(0.0001025 3.127e-06 0)
(9.672e-05 2.61e-06 0)
(9.192e-05 2.187e-06 0)
(8.79e-05 1.834e-06 0)
(8.453e-05 1.536e-06 0)
(8.172e-05 1.279e-06 0)
(7.938e-05 1.056e-06 0)
(7.747e-05 8.594e-07 0)
(7.593e-05 6.835e-07 0)
(7.472e-05 5.242e-07 0)
(7.382e-05 3.778e-07 0)
(7.32e-05 2.415e-07 0)
(7.284e-05 1.126e-07 0)
(7.274e-05 -1.098e-08 0)
(7.288e-05 -1.31e-07 0)
(7.326e-05 -2.491e-07 0)
(7.388e-05 -3.668e-07 0)
(7.473e-05 -4.852e-07 0)
(7.582e-05 -6.055e-07 0)
(7.716e-05 -7.287e-07 0)
(7.874e-05 -8.555e-07 0)
(8.058e-05 -9.866e-07 0)
(8.269e-05 -1.123e-06 0)
(8.508e-05 -1.264e-06 0)
(8.775e-05 -1.41e-06 0)
(9.072e-05 -1.561e-06 0)
(9.4e-05 -1.718e-06 0)
(9.76e-05 -1.878e-06 0)
(0.0001015 -2.041e-06 0)
(0.0001058 -2.206e-06 0)
(0.0001103 -2.371e-06 0)
(0.0001152 -2.533e-06 0)
(0.0001205 -2.69e-06 0)
(0.000126 -2.838e-06 0)
(0.0001318 -2.974e-06 0)
(0.0001379 -3.093e-06 0)
(0.0001442 -3.19e-06 0)
(0.0001506 -3.261e-06 0)
(0.0001572 -3.3e-06 0)
(0.0001638 -3.303e-06 0)
(0.0001703 -3.265e-06 0)
(0.0001768 -3.181e-06 0)
(0.000183 -3.048e-06 0)
(0.0001889 -2.865e-06 0)
(0.0001944 -2.63e-06 0)
(0.0001994 -2.346e-06 0)
(0.0002038 -2.015e-06 0)
(0.0002074 -1.643e-06 0)
(0.0002103 -1.237e-06 0)
(0.0002123 -8.067e-07 0)
(0.0002135 -3.623e-07 0)
(0.0002138 8.554e-08 0)
(0.0002132 5.263e-07 0)
(0.0002117 9.501e-07 0)
(0.0002094 1.348e-06 0)
(0.0002063 1.714e-06 0)
(0.0002026 2.043e-06 0)
(0.0001982 2.33e-06 0)
(0.0001933 2.574e-06 0)
(0.000188 2.773e-06 0)
(0.0001823 2.929e-06 0)
(0.0001763 3.043e-06 0)
(0.0001701 3.117e-06 0)
(0.0001639 3.154e-06 0)
(0.0001575 3.157e-06 0)
(0.0001513 3.129e-06 0)
(0.0001451 3.075e-06 0)
(0.000139 2.997e-06 0)
(0.0001331 2.901e-06 0)
(0.0001274 2.789e-06 0)
(0.0001219 2.666e-06 0)
(0.0001167 2.533e-06 0)
(0.0001118 2.395e-06 0)
(0.0001072 2.254e-06 0)
(0.0001028 2.112e-06 0)
(9.871e-05 1.971e-06 0)
(9.491e-05 1.832e-06 0)
(9.138e-05 1.697e-06 0)
(8.812e-05 1.567e-06 0)
(8.51e-05 1.443e-06 0)
(8.234e-05 1.325e-06 0)
(7.98e-05 1.214e-06 0)
(7.748e-05 1.109e-06 0)
(7.536e-05 1.011e-06 0)
(7.343e-05 9.192e-07 0)
(7.167e-05 8.343e-07 0)
(7.008e-05 7.559e-07 0)
(6.864e-05 6.835e-07 0)
(6.734e-05 6.17e-07 0)
(6.617e-05 5.56e-07 0)
(6.511e-05 5.002e-07 0)
(6.416e-05 4.493e-07 0)
(6.331e-05 4.029e-07 0)
(6.255e-05 3.607e-07 0)
(6.186e-05 3.225e-07 0)
(6.125e-05 2.879e-07 0)
(6.071e-05 2.567e-07 0)
(6.022e-05 2.285e-07 0)
(5.979e-05 2.032e-07 0)
(5.941e-05 1.806e-07 0)
(5.907e-05 1.604e-07 0)
(5.877e-05 1.425e-07 0)
(5.85e-05 1.268e-07 0)
(5.826e-05 1.131e-07 0)
(5.804e-05 1.016e-07 0)
(5.785e-05 9.207e-08 0)
(5.767e-05 8.471e-08 0)
(5.751e-05 7.97e-08 0)
(5.735e-05 7.739e-08 0)
(5.719e-05 7.849e-08 0)
(5.703e-05 8.427e-08 0)
(5.685e-05 9.718e-08 0)
(5.663e-05 1.213e-07 0)
(5.635e-05 1.611e-07 0)
(5.598e-05 2.094e-07 0)
(0.001209 0.0003128 0)
(0.001154 0.0003282 0)
(0.00101 0.000248 0)
(0.0008613 0.0001771 0)
(0.0007345 0.0001262 0)
(0.0006327 9.146e-05 0)
(0.0005525 6.791e-05 0)
(0.0004894 5.177e-05 0)
(0.0004392 4.042e-05 0)
(0.0003989 3.22e-05 0)
(0.000366 2.609e-05 0)
(0.000339 2.141e-05 0)
(0.0003165 1.774e-05 0)
(0.0002978 1.482e-05 0)
(0.000282 1.243e-05 0)
(0.0002687 1.046e-05 0)
(0.0002575 8.798e-06 0)
(0.000248 7.386e-06 0)
(0.0002401 6.168e-06 0)
(0.0002335 5.103e-06 0)
(0.0002281 4.161e-06 0)
(0.0002237 3.316e-06 0)
(0.0002202 2.549e-06 0)
(0.0002176 1.842e-06 0)
(0.0002159 1.183e-06 0)
(0.0002148 5.6e-07 0)
(0.0002145 -3.754e-08 0)
(0.0002149 -6.18e-07 0)
(0.0002159 -1.189e-06 0)
(0.0002176 -1.757e-06 0)
(0.00022 -2.328e-06 0)
(0.0002231 -2.907e-06 0)
(0.0002268 -3.499e-06 0)
(0.0002312 -4.107e-06 0)
(0.0002364 -4.734e-06 0)
(0.0002423 -5.383e-06 0)
(0.000249 -6.054e-06 0)
(0.0002564 -6.749e-06 0)
(0.0002647 -7.466e-06 0)
(0.0002738 -8.204e-06 0)
(0.0002838 -8.959e-06 0)
(0.0002946 -9.726e-06 0)
(0.0003064 -1.05e-05 0)
(0.000319 -1.127e-05 0)
(0.0003324 -1.202e-05 0)
(0.0003468 -1.275e-05 0)
(0.0003619 -1.343e-05 0)
(0.0003777 -1.405e-05 0)
(0.0003942 -1.459e-05 0)
(0.0004113 -1.503e-05 0)
(0.0004287 -1.534e-05 0)
(0.0004465 -1.55e-05 0)
(0.0004643 -1.549e-05 0)
(0.0004819 -1.529e-05 0)
(0.0004992 -1.488e-05 0)
(0.0005159 -1.425e-05 0)
(0.0005317 -1.338e-05 0)
(0.0005463 -1.227e-05 0)
(0.0005596 -1.094e-05 0)
(0.0005712 -9.395e-06 0)
(0.0005809 -7.663e-06 0)
(0.0005886 -5.778e-06 0)
(0.0005941 -3.781e-06 0)
(0.0005973 -1.718e-06 0)
(0.0005981 3.619e-07 0)
(0.0005965 2.411e-06 0)
(0.0005927 4.384e-06 0)
(0.0005866 6.243e-06 0)
(0.0005786 7.956e-06 0)
(0.0005686 9.497e-06 0)
(0.000557 1.085e-05 0)
(0.000544 1.2e-05 0)
(0.0005297 1.296e-05 0)
(0.0005145 1.371e-05 0)
(0.0004984 1.426e-05 0)
(0.0004819 1.463e-05 0)
(0.000465 1.482e-05 0)
(0.0004479 1.486e-05 0)
(0.0004309 1.475e-05 0)
(0.000414 1.451e-05 0)
(0.0003975 1.417e-05 0)
(0.0003814 1.373e-05 0)
(0.0003658 1.323e-05 0)
(0.0003508 1.266e-05 0)
(0.0003365 1.205e-05 0)
(0.0003229 1.141e-05 0)
(0.00031 1.075e-05 0)
(0.0002979 1.009e-05 0)
(0.0002866 9.43e-06 0)
(0.000276 8.78e-06 0)
(0.0002661 8.146e-06 0)
(0.000257 7.534e-06 0)
(0.0002485 6.947e-06 0)
(0.0002407 6.388e-06 0)
(0.0002335 5.859e-06 0)
(0.000227 5.36e-06 0)
(0.0002209 4.893e-06 0)
(0.0002155 4.457e-06 0)
(0.0002105 4.051e-06 0)
(0.0002059 3.675e-06 0)
(0.0002018 3.329e-06 0)
(0.000198 3.009e-06 0)
(0.0001947 2.716e-06 0)
(0.0001916 2.447e-06 0)
(0.0001889 2.201e-06 0)
(0.0001864 1.977e-06 0)
(0.0001842 1.773e-06 0)
(0.0001822 1.588e-06 0)
(0.0001804 1.42e-06 0)
(0.0001788 1.268e-06 0)
(0.0001774 1.131e-06 0)
(0.0001761 1.008e-06 0)
(0.0001749 8.976e-07 0)
(0.0001739 7.99e-07 0)
(0.000173 7.115e-07 0)
(0.0001722 6.345e-07 0)
(0.0001715 5.676e-07 0)
(0.0001708 5.106e-07 0)
(0.0001703 4.634e-07 0)
(0.0001697 4.263e-07 0)
(0.0001692 4.001e-07 0)
(0.0001688 3.859e-07 0)
(0.0001683 3.858e-07 0)
(0.0001678 4.032e-07 0)
(0.0001673 4.439e-07 0)
(0.0001668 5.154e-07 0)
(0.0001662 6.216e-07 0)
(0.0001656 7.325e-07 0)
(0.001226 0.0002775 0)
(0.001243 0.0004027 0)
(0.001194 0.0003664 0)
(0.001102 0.0002982 0)
(0.0009997 0.0002345 0)
(0.0009016 0.0001831 0)
(0.0008143 0.0001438 0)
(0.0007391 0.0001142 0)
(0.0006755 9.187e-05 0)
(0.0006217 7.484e-05 0)
(0.0005764 6.163e-05 0)
(0.0005381 5.121e-05 0)
(0.0005056 4.286e-05 0)
(0.000478 3.606e-05 0)
(0.0004546 3.044e-05 0)
(0.0004346 2.573e-05 0)
(0.0004176 2.174e-05 0)
(0.0004032 1.831e-05 0)
(0.000391 1.533e-05 0)
(0.0003808 1.272e-05 0)
(0.0003724 1.039e-05 0)
(0.0003656 8.295e-06 0)
(0.0003602 6.386e-06 0)
(0.0003562 4.625e-06 0)
(0.0003534 2.978e-06 0)
(0.0003518 1.418e-06 0)
(0.0003513 -7.907e-08 0)
(0.0003519 -1.534e-06 0)
(0.0003535 -2.965e-06 0)
(0.0003562 -4.388e-06 0)
(0.0003599 -5.817e-06 0)
(0.0003647 -7.265e-06 0)
(0.0003706 -8.742e-06 0)
(0.0003776 -1.026e-05 0)
(0.0003856 -1.182e-05 0)
(0.0003949 -1.343e-05 0)
(0.0004053 -1.509e-05 0)
(0.0004169 -1.681e-05 0)
(0.0004299 -1.858e-05 0)
(0.0004441 -2.04e-05 0)
(0.0004596 -2.226e-05 0)
(0.0004764 -2.414e-05 0)
(0.0004946 -2.603e-05 0)
(0.0005142 -2.79e-05 0)
(0.0005351 -2.973e-05 0)
(0.0005572 -3.149e-05 0)
(0.0005805 -3.314e-05 0)
(0.000605 -3.463e-05 0)
(0.0006304 -3.592e-05 0)
(0.0006566 -3.696e-05 0)
(0.0006834 -3.769e-05 0)
(0.0007106 -3.805e-05 0)
(0.0007379 -3.799e-05 0)
(0.0007649 -3.747e-05 0)
(0.0007913 -3.643e-05 0)
(0.0008168 -3.485e-05 0)
(0.0008409 -3.27e-05 0)
(0.0008633 -2.999e-05 0)
(0.0008836 -2.673e-05 0)
(0.0009013 -2.295e-05 0)
(0.0009162 -1.873e-05 0)
(0.0009279 -1.414e-05 0)
(0.0009363 -9.276e-06 0)
(0.0009412 -4.255e-06 0)
(0.0009425 8.078e-07 0)
(0.0009402 5.799e-06 0)
(0.0009344 1.061e-05 0)
(0.0009253 1.515e-05 0)
(0.0009131 1.935e-05 0)
(0.000898 2.313e-05 0)
(0.0008803 2.646e-05 0)
(0.0008605 2.931e-05 0)
(0.0008387 3.167e-05 0)
(0.0008154 3.354e-05 0)
(0.000791 3.494e-05 0)
(0.0007656 3.588e-05 0)
(0.0007397 3.64e-05 0)
(0.0007135 3.652e-05 0)
(0.0006873 3.63e-05 0)
(0.0006614 3.576e-05 0)
(0.0006359 3.496e-05 0)
(0.000611 3.393e-05 0)
(0.0005869 3.271e-05 0)
(0.0005637 3.135e-05 0)
(0.0005415 2.987e-05 0)
(0.0005203 2.832e-05 0)
(0.0005003 2.673e-05 0)
(0.0004814 2.511e-05 0)
(0.0004637 2.35e-05 0)
(0.0004471 2.19e-05 0)
(0.0004317 2.035e-05 0)
(0.0004173 1.884e-05 0)
(0.000404 1.739e-05 0)
(0.0003917 1.601e-05 0)
(0.0003804 1.471e-05 0)
(0.0003701 1.347e-05 0)
(0.0003605 1.231e-05 0)
(0.0003518 1.123e-05 0)
(0.0003439 1.022e-05 0)
(0.0003367 9.283e-06 0)
(0.0003301 8.418e-06 0)
(0.0003241 7.619e-06 0)
(0.0003187 6.885e-06 0)
(0.0003138 6.212e-06 0)
(0.0003094 5.596e-06 0)
(0.0003055 5.033e-06 0)
(0.0003019 4.521e-06 0)
(0.0002987 4.054e-06 0)
(0.0002958 3.631e-06 0)
(0.0002932 3.248e-06 0)
(0.0002909 2.902e-06 0)
(0.0002888 2.59e-06 0)
(0.0002869 2.31e-06 0)
(0.0002853 2.06e-06 0)
(0.0002838 1.838e-06 0)
(0.0002825 1.642e-06 0)
(0.0002813 1.471e-06 0)
(0.0002802 1.325e-06 0)
(0.0002792 1.202e-06 0)
(0.0002784 1.105e-06 0)
(0.0002775 1.033e-06 0)
(0.0002768 9.887e-07 0)
(0.000276 9.747e-07 0)
(0.0002753 9.953e-07 0)
(0.0002746 1.055e-06 0)
(0.0002739 1.158e-06 0)
(0.0002731 1.296e-06 0)
(0.0002724 1.417e-06 0)
(0.001224 0.0002275 0)
(0.00126 0.0004003 0)
(0.001258 0.0004193 0)
(0.001216 0.0003789 0)
(0.001149 0.000323 0)
(0.001073 0.0002686 0)
(0.0009973 0.0002216 0)
(0.000926 0.0001828 0)
(0.0008614 0.0001515 0)
(0.0008042 0.0001262 0)
(0.000754 0.0001058 0)
(0.0007103 8.91e-05 0)
(0.0006724 7.539e-05 0)
(0.0006395 6.398e-05 0)
(0.0006111 5.439e-05 0)
(0.0005866 4.625e-05 0)
(0.0005656 3.926e-05 0)
(0.0005476 3.32e-05 0)
(0.0005323 2.789e-05 0)
(0.0005194 2.319e-05 0)
(0.0005087 1.899e-05 0)
(0.0005001 1.519e-05 0)
(0.0004932 1.171e-05 0)
(0.0004881 8.481e-06 0)
(0.0004845 5.457e-06 0)
(0.0004825 2.586e-06 0)
(0.0004819 -1.736e-07 0)
(0.0004828 -2.859e-06 0)
(0.000485 -5.502e-06 0)
(0.0004886 -8.13e-06 0)
(0.0004935 -1.077e-05 0)
(0.0004999 -1.344e-05 0)
(0.0005076 -1.616e-05 0)
(0.0005168 -1.896e-05 0)
(0.0005274 -2.183e-05 0)
(0.0005395 -2.478e-05 0)
(0.0005532 -2.784e-05 0)
(0.0005685 -3.098e-05 0)
(0.0005854 -3.422e-05 0)
(0.0006039 -3.754e-05 0)
(0.0006242 -4.092e-05 0)
(0.0006462 -4.433e-05 0)
(0.0006699 -4.776e-05 0)
(0.0006954 -5.115e-05 0)
(0.0007225 -5.447e-05 0)
(0.0007512 -5.764e-05 0)
(0.0007815 -6.06e-05 0)
(0.0008131 -6.327e-05 0)
(0.000846 -6.558e-05 0)
(0.0008799 -6.741e-05 0)
(0.0009146 -6.869e-05 0)
(0.0009496 -6.93e-05 0)
(0.0009848 -6.915e-05 0)
(0.00102 -6.816e-05 0)
(0.001054 -6.623e-05 0)
(0.001086 -6.333e-05 0)
(0.001118 -5.941e-05 0)
(0.001146 -5.447e-05 0)
(0.001172 -4.854e-05 0)
(0.001195 -4.169e-05 0)
(0.001214 -3.403e-05 0)
(0.001229 -2.571e-05 0)
(0.00124 -1.691e-05 0)
(0.001247 -7.817e-06 0)
(0.001248 1.355e-06 0)
(0.001245 1.04e-05 0)
(0.001238 1.913e-05 0)
(0.001227 2.737e-05 0)
(0.001211 3.499e-05 0)
(0.001192 4.188e-05 0)
(0.001169 4.795e-05 0)
(0.001143 5.316e-05 0)
(0.001116 5.749e-05 0)
(0.001086 6.094e-05 0)
(0.001054 6.354e-05 0)
(0.001021 6.531e-05 0)
(0.000988 6.631e-05 0)
(0.0009542 6.66e-05 0)
(0.0009203 6.626e-05 0)
(0.0008868 6.534e-05 0)
(0.0008537 6.393e-05 0)
(0.0008215 6.21e-05 0)
(0.0007902 5.993e-05 0)
(0.00076 5.749e-05 0)
(0.0007311 5.484e-05 0)
(0.0007035 5.205e-05 0)
(0.0006774 4.917e-05 0)
(0.0006527 4.624e-05 0)
(0.0006295 4.331e-05 0)
(0.0006077 4.042e-05 0)
(0.0005874 3.759e-05 0)
(0.0005685 3.484e-05 0)
(0.000551 3.22e-05 0)
(0.0005348 2.968e-05 0)
(0.0005199 2.728e-05 0)
(0.0005062 2.502e-05 0)
(0.0004936 2.289e-05 0)
(0.000482 2.09e-05 0)
(0.0004715 1.904e-05 0)
(0.0004618 1.731e-05 0)
(0.0004531 1.572e-05 0)
(0.0004451 1.424e-05 0)
(0.0004379 1.289e-05 0)
(0.0004313 1.164e-05 0)
(0.0004254 1.05e-05 0)
(0.0004201 9.453e-06 0)
(0.0004153 8.5e-06 0)
(0.0004109 7.633e-06 0)
(0.000407 6.845e-06 0)
(0.0004035 6.131e-06 0)
(0.0004004 5.485e-06 0)
(0.0003976 4.903e-06 0)
(0.000395 4.379e-06 0)
(0.0003928 3.91e-06 0)
(0.0003908 3.493e-06 0)
(0.0003889 3.124e-06 0)
(0.0003873 2.801e-06 0)
(0.0003859 2.524e-06 0)
(0.0003845 2.29e-06 0)
(0.0003833 2.099e-06 0)
(0.0003822 1.954e-06 0)
(0.0003812 1.855e-06 0)
(0.0003802 1.805e-06 0)
(0.0003793 1.806e-06 0)
(0.0003784 1.86e-06 0)
(0.0003775 1.964e-06 0)
(0.0003767 2.099e-06 0)
(0.0003758 2.205e-06 0)
(0.001219 0.0001846 0)
(0.001255 0.0003713 0)
(0.001275 0.0004301 0)
(0.001264 0.0004211 0)
(0.001229 0.0003828 0)
(0.001178 0.0003355 0)
(0.00112 0.0002888 0)
(0.00106 0.0002466 0)
(0.001003 0.00021 0)
(0.0009486 0.0001788 0)
(0.0008994 0.0001525 0)
(0.0008552 0.0001303 0)
(0.0008158 0.0001115 0)
(0.0007809 9.556e-05 0)
(0.0007502 8.187e-05 0)
(0.0007234 7.006e-05 0)
(0.0007001 5.979e-05 0)
(0.00068 5.078e-05 0)
(0.0006628 4.282e-05 0)
(0.0006482 3.571e-05 0)
(0.000636 2.93e-05 0)
(0.0006261 2.347e-05 0)
(0.0006183 1.81e-05 0)
(0.0006124 1.31e-05 0)
(0.0006084 8.399e-06 0)
(0.0006061 3.921e-06 0)
(0.0006056 -3.942e-07 0)
(0.0006067 -4.6e-06 0)
(0.0006095 -8.744e-06 0)
(0.0006139 -1.287e-05 0)
(0.0006199 -1.701e-05 0)
(0.0006276 -2.12e-05 0)
(0.0006369 -2.548e-05 0)
(0.000648 -2.985e-05 0)
(0.0006608 -3.434e-05 0)
(0.0006753 -3.897e-05 0)
(0.0006918 -4.374e-05 0)
(0.0007101 -4.865e-05 0)
(0.0007303 -5.369e-05 0)
(0.0007525 -5.885e-05 0)
(0.0007768 -6.41e-05 0)
(0.000803 -6.941e-05 0)
(0.0008313 -7.471e-05 0)
(0.0008616 -7.996e-05 0)
(0.0008939 -8.508e-05 0)
(0.0009281 -8.997e-05 0)
(0.0009641 -9.452e-05 0)
(0.001002 -9.863e-05 0)
(0.001041 -0.0001022 0)
(0.001081 -0.000105 0)
(0.001122 -0.0001069 0)
(0.001164 -0.0001078 0)
(0.001205 -0.0001075 0)
(0.001247 -0.0001059 0)
(0.001287 -0.0001029 0)
(0.001326 -9.836e-05 0)
(0.001363 -9.226e-05 0)
(0.001397 -8.458e-05 0)
(0.001428 -7.537e-05 0)
(0.001455 -6.475e-05 0)
(0.001478 -5.288e-05 0)
(0.001496 -3.999e-05 0)
(0.001508 -2.634e-05 0)
(0.001516 -1.225e-05 0)
(0.001518 1.964e-06 0)
(0.001515 1.599e-05 0)
(0.001506 2.952e-05 0)
(0.001492 4.232e-05 0)
(0.001474 5.414e-05 0)
(0.001451 6.484e-05 0)
(0.001424 7.429e-05 0)
(0.001394 8.242e-05 0)
(0.001361 8.919e-05 0)
(0.001326 9.461e-05 0)
(0.001289 9.87e-05 0)
(0.00125 0.0001015 0)
(0.00121 0.0001031 0)
(0.00117 0.0001037 0)
(0.00113 0.0001032 0)
(0.00109 0.0001019 0)
(0.001051 9.974e-05 0)
(0.001012 9.696e-05 0)
(0.0009751 9.365e-05 0)
(0.0009391 8.991e-05 0)
(0.0009046 8.584e-05 0)
(0.0008717 8.154e-05 0)
(0.0008404 7.708e-05 0)
(0.0008109 7.256e-05 0)
(0.000783 6.803e-05 0)
(0.000757 6.354e-05 0)
(0.0007326 5.914e-05 0)
(0.0007099 5.488e-05 0)
(0.0006888 5.076e-05 0)
(0.0006693 4.683e-05 0)
(0.0006512 4.309e-05 0)
(0.0006346 3.955e-05 0)
(0.0006194 3.622e-05 0)
(0.0006054 3.31e-05 0)
(0.0005926 3.019e-05 0)
(0.0005809 2.748e-05 0)
(0.0005702 2.497e-05 0)
(0.0005605 2.265e-05 0)
(0.0005517 2.051e-05 0)
(0.0005437 1.855e-05 0)
(0.0005365 1.674e-05 0)
(0.0005299 1.509e-05 0)
(0.000524 1.359e-05 0)
(0.0005187 1.222e-05 0)
(0.0005139 1.097e-05 0)
(0.0005096 9.834e-06 0)
(0.0005057 8.808e-06 0)
(0.0005022 7.882e-06 0)
(0.0004991 7.048e-06 0)
(0.0004963 6.301e-06 0)
(0.0004938 5.634e-06 0)
(0.0004915 5.043e-06 0)
(0.0004895 4.525e-06 0)
(0.0004877 4.076e-06 0)
(0.0004861 3.694e-06 0)
(0.0004846 3.379e-06 0)
(0.0004832 3.13e-06 0)
(0.000482 2.948e-06 0)
(0.0004808 2.834e-06 0)
(0.0004797 2.788e-06 0)
(0.0004787 2.809e-06 0)
(0.0004777 2.886e-06 0)
(0.0004768 2.994e-06 0)
(0.0004758 3.079e-06 0)
(0.001214 0.000152 0)
(0.001246 0.0003354 0)
(0.001274 0.0004182 0)
(0.001282 0.0004355 0)
(0.001269 0.0004169 0)
(0.001239 0.0003817 0)
(0.001199 0.0003407 0)
(0.001154 0.0002998 0)
(0.001107 0.0002617 0)
(0.00106 0.0002275 0)
(0.001016 0.0001974 0)
(0.0009745 0.000171 0)
(0.0009367 0.0001481 0)
(0.0009025 0.0001281 0)
(0.0008718 0.0001106 0)
(0.0008446 9.532e-05 0)
(0.0008207 8.18e-05 0)
(0.0007998 6.98e-05 0)
(0.0007817 5.907e-05 0)
(0.0007664 4.941e-05 0)
(0.0007535 4.063e-05 0)
(0.000743 3.258e-05 0)
(0.0007347 2.512e-05 0)
(0.0007285 1.815e-05 0)
(0.0007243 1.156e-05 0)
(0.000722 5.263e-06 0)
(0.0007216 -8.245e-07 0)
(0.0007231 -6.771e-06 0)
(0.0007264 -1.264e-05 0)
(0.0007315 -1.849e-05 0)
(0.0007385 -2.437e-05 0)
(0.0007473 -3.032e-05 0)
(0.0007579 -3.638e-05 0)
(0.0007705 -4.258e-05 0)
(0.0007851 -4.895e-05 0)
(0.0008016 -5.551e-05 0)
(0.0008203 -6.225e-05 0)
(0.000841 -6.919e-05 0)
(0.000864 -7.632e-05 0)
(0.0008891 -8.36e-05 0)
(0.0009165 -9.1e-05 0)
(0.0009462 -9.846e-05 0)
(0.0009782 -0.0001059 0)
(0.001012 -0.0001133 0)
(0.001049 -0.0001205 0)
(0.001087 -0.0001273 0)
(0.001128 -0.0001337 0)
(0.00117 -0.0001395 0)
(0.001214 -0.0001444 0)
(0.00126 -0.0001483 0)
(0.001306 -0.0001509 0)
(0.001353 -0.0001522 0)
(0.0014 -0.0001518 0)
(0.001447 -0.0001495 0)
(0.001492 -0.0001452 0)
(0.001536 -0.0001388 0)
(0.001578 -0.0001302 0)
(0.001616 -0.0001194 0)
(0.001651 -0.0001064 0)
(0.001682 -9.144e-05 0)
(0.001708 -7.47e-05 0)
(0.001728 -5.652e-05 0)
(0.001742 -3.728e-05 0)
(0.001751 -1.742e-05 0)
(0.001753 2.628e-06 0)
(0.00175 2.24e-05 0)
(0.00174 4.149e-05 0)
(0.001725 5.952e-05 0)
(0.001704 7.621e-05 0)
(0.001678 9.13e-05 0)
(0.001648 0.0001046 0)
(0.001614 0.0001161 0)
(0.001577 0.0001257 0)
(0.001537 0.0001334 0)
(0.001495 0.0001392 0)
(0.001451 0.0001433 0)
(0.001407 0.0001457 0)
(0.001361 0.0001465 0)
(0.001316 0.0001459 0)
(0.001271 0.0001441 0)
(0.001227 0.0001411 0)
(0.001183 0.0001373 0)
(0.001141 0.0001327 0)
(0.001101 0.0001275 0)
(0.001062 0.0001218 0)
(0.001024 0.0001158 0)
(0.0009889 0.0001095 0)
(0.0009554 0.0001032 0)
(0.0009238 9.68e-05 0)
(0.0008942 9.048e-05 0)
(0.0008665 8.428e-05 0)
(0.0008407 7.826e-05 0)
(0.0008167 7.246e-05 0)
(0.0007944 6.69e-05 0)
(0.0007739 6.16e-05 0)
(0.0007549 5.659e-05 0)
(0.0007375 5.187e-05 0)
(0.0007215 4.745e-05 0)
(0.0007068 4.331e-05 0)
(0.0006934 3.946e-05 0)
(0.0006812 3.589e-05 0)
(0.00067 3.258e-05 0)
(0.0006599 2.953e-05 0)
(0.0006507 2.673e-05 0)
(0.0006423 2.415e-05 0)
(0.0006348 2.179e-05 0)
(0.0006279 1.964e-05 0)
(0.0006218 1.767e-05 0)
(0.0006162 1.588e-05 0)
(0.0006112 1.425e-05 0)
(0.0006067 1.278e-05 0)
(0.0006026 1.145e-05 0)
(0.000599 1.025e-05 0)
(0.0005957 9.169e-06 0)
(0.0005928 8.205e-06 0)
(0.0005901 7.349e-06 0)
(0.0005878 6.595e-06 0)
(0.0005857 5.939e-06 0)
(0.0005838 5.376e-06 0)
(0.000582 4.904e-06 0)
(0.0005805 4.522e-06 0)
(0.000579 4.229e-06 0)
(0.0005777 4.024e-06 0)
(0.0005765 3.905e-06 0)
(0.0005754 3.865e-06 0)
(0.0005743 3.892e-06 0)
(0.0005733 3.959e-06 0)
(0.0005723 4.018e-06 0)
(0.00121 0.0001279 0)
(0.001237 0.0003008 0)
(0.001267 0.0003957 0)
(0.001284 0.0004321 0)
(0.001286 0.0004313 0)
(0.001274 0.0004094 0)
(0.00125 0.0003769 0)
(0.001218 0.0003406 0)
(0.001182 0.000304 0)
(0.001145 0.0002693 0)
(0.001107 0.0002374 0)
(0.001071 0.0002085 0)
(0.001037 0.0001826 0)
(0.001005 0.0001594 0)
(0.0009766 0.0001388 0)
(0.0009506 0.0001204 0)
(0.0009274 0.0001039 0)
(0.0009069 8.908e-05 0)
(0.000889 7.567e-05 0)
(0.0008737 6.348e-05 0)
(0.0008608 5.23e-05 0)
(0.0008503 4.198e-05 0)
(0.000842 3.236e-05 0)
(0.0008358 2.33e-05 0)
(0.0008317 1.471e-05 0)
(0.0008296 6.455e-06 0)
(0.0008295 -1.546e-06 0)
(0.0008314 -9.383e-06 0)
(0.0008352 -1.713e-05 0)
(0.0008409 -2.487e-05 0)
(0.0008487 -3.265e-05 0)
(0.0008584 -4.053e-05 0)
(0.0008701 -4.856e-05 0)
(0.0008839 -5.678e-05 0)
(0.0008998 -6.521e-05 0)
(0.0009179 -7.389e-05 0)
(0.0009382 -8.282e-05 0)
(0.0009608 -9.2e-05 0)
(0.0009858 -0.0001014 0)
(0.001013 -0.000111 0)
(0.001043 -0.0001208 0)
(0.001075 -0.0001306 0)
(0.00111 -0.0001405 0)
(0.001147 -0.0001502 0)
(0.001187 -0.0001596 0)
(0.001229 -0.0001687 0)
(0.001273 -0.0001771 0)
(0.001319 -0.0001846 0)
(0.001367 -0.0001911 0)
(0.001416 -0.0001962 0)
(0.001467 -0.0001997 0)
(0.001518 -0.0002013 0)
(0.001569 -0.0002008 0)
(0.00162 -0.0001978 0)
(0.001669 -0.0001922 0)
(0.001717 -0.0001837 0)
(0.001763 -0.0001724 0)
(0.001805 -0.0001581 0)
(0.001844 -0.000141 0)
(0.001877 -0.0001212 0)
(0.001905 -9.902e-05 0)
(0.001928 -7.496e-05 0)
(0.001944 -4.948e-05 0)
(0.001953 -2.318e-05 0)
(0.001956 3.358e-06 0)
(0.001952 2.953e-05 0)
(0.001941 5.478e-05 0)
(0.001924 7.863e-05 0)
(0.001901 0.0001007 0)
(0.001873 0.0001207 0)
(0.00184 0.0001383 0)
(0.001803 0.0001535 0)
(0.001763 0.0001662 0)
(0.001719 0.0001764 0)
(0.001673 0.0001841 0)
(0.001626 0.0001895 0)
(0.001577 0.0001927 0)
(0.001528 0.0001939 0)
(0.001479 0.0001932 0)
(0.00143 0.0001908 0)
(0.001381 0.000187 0)
(0.001334 0.000182 0)
(0.001288 0.000176 0)
(0.001244 0.0001691 0)
(0.001201 0.0001617 0)
(0.001161 0.0001537 0)
(0.001122 0.0001455 0)
(0.001086 0.0001372 0)
(0.001051 0.0001288 0)
(0.001019 0.0001204 0)
(0.0009887 0.0001123 0)
(0.0009605 0.0001043 0)
(0.0009343 9.665e-05 0)
(0.0009099 8.929e-05 0)
(0.0008874 8.229e-05 0)
(0.0008666 7.565e-05 0)
(0.0008475 6.939e-05 0)
(0.0008299 6.352e-05 0)
(0.0008138 5.802e-05 0)
(0.000799 5.291e-05 0)
(0.0007855 4.815e-05 0)
(0.0007733 4.375e-05 0)
(0.0007621 3.969e-05 0)
(0.0007519 3.595e-05 0)
(0.0007427 3.251e-05 0)
(0.0007343 2.936e-05 0)
(0.0007267 2.648e-05 0)
(0.0007199 2.385e-05 0)
(0.0007137 2.145e-05 0)
(0.0007081 1.927e-05 0)
(0.0007031 1.729e-05 0)
(0.0006986 1.551e-05 0)
(0.0006945 1.389e-05 0)
(0.0006909 1.244e-05 0)
(0.0006876 1.114e-05 0)
(0.0006846 9.981e-06 0)
(0.000682 8.958e-06 0)
(0.0006796 8.062e-06 0)
(0.0006775 7.288e-06 0)
(0.0006756 6.633e-06 0)
(0.0006739 6.091e-06 0)
(0.0006723 5.661e-06 0)
(0.0006709 5.34e-06 0)
(0.0006695 5.123e-06 0)
(0.0006683 5.001e-06 0)
(0.0006672 4.96e-06 0)
(0.0006661 4.975e-06 0)
(0.0006651 5.004e-06 0)
(0.001208 0.0001097 0)
(0.00123 0.0002697 0)
(0.001258 0.0003692 0)
(0.001281 0.0004184 0)
(0.001292 0.0004319 0)
(0.001291 0.0004223 0)
(0.00128 0.0003992 0)
(0.001261 0.0003691 0)
(0.001236 0.0003361 0)
(0.001208 0.0003029 0)
(0.001178 0.0002709 0)
(0.001148 0.0002409 0)
(0.001119 0.0002133 0)
(0.001092 0.000188 0)
(0.001066 0.0001649 0)
(0.001042 0.000144 0)
(0.001021 0.000125 0)
(0.001002 0.0001076 0)
(0.0009847 9.178e-05 0)
(0.0009702 7.72e-05 0)
(0.0009579 6.372e-05 0)
(0.0009479 5.117e-05 0)
(0.00094 3.94e-05 0)
(0.0009341 2.825e-05 0)
(0.0009304 1.761e-05 0)
(0.0009287 7.354e-06 0)
(0.0009289 -2.63e-06 0)
(0.0009312 -1.244e-05 0)
(0.0009355 -2.216e-05 0)
(0.0009418 -3.188e-05 0)
(0.0009501 -4.167e-05 0)
(0.0009605 -5.159e-05 0)
(0.000973 -6.171e-05 0)
(0.0009876 -7.207e-05 0)
(0.001004 -8.27e-05 0)
(0.001024 -9.364e-05 0)
(0.001045 -0.0001049 0)
(0.001069 -0.0001165 0)
(0.001095 -0.0001283 0)
(0.001124 -0.0001404 0)
(0.001156 -0.0001527 0)
(0.00119 -0.0001651 0)
(0.001227 -0.0001775 0)
(0.001266 -0.0001897 0)
(0.001308 -0.0002016 0)
(0.001352 -0.0002129 0)
(0.001399 -0.0002235 0)
(0.001447 -0.000233 0)
(0.001498 -0.0002412 0)
(0.00155 -0.0002477 0)
(0.001604 -0.0002522 0)
(0.001658 -0.0002542 0)
(0.001712 -0.0002536 0)
(0.001766 -0.0002499 0)
(0.00182 -0.0002429 0)
(0.001871 -0.0002323 0)
(0.001919 -0.000218 0)
(0.001965 -0.0002 0)
(0.002006 -0.0001784 0)
(0.002042 -0.0001534 0)
(0.002072 -0.0001254 0)
(0.002096 -9.497e-05 0)
(0.002114 -6.271e-05 0)
(0.002124 -2.94e-05 0)
(0.002126 4.189e-06 0)
(0.002122 3.73e-05 0)
(0.00211 6.922e-05 0)
(0.002092 9.935e-05 0)
(0.002068 0.0001272 0)
(0.002038 0.0001524 0)
(0.002002 0.0001746 0)
(0.001963 0.0001938 0)
(0.00192 0.0002098 0)
(0.001873 0.0002226 0)
(0.001825 0.0002324 0)
(0.001774 0.0002392 0)
(0.001722 0.0002433 0)
(0.00167 0.0002448 0)
(0.001618 0.0002439 0)
(0.001566 0.000241 0)
(0.001515 0.0002363 0)
(0.001465 0.00023 0)
(0.001416 0.0002224 0)
(0.001369 0.0002138 0)
(0.001324 0.0002045 0)
(0.001281 0.0001945 0)
(0.00124 0.0001842 0)
(0.001202 0.0001737 0)
(0.001165 0.0001631 0)
(0.001131 0.0001527 0)
(0.001099 0.0001424 0)
(0.001069 0.0001324 0)
(0.001041 0.0001227 0)
(0.001015 0.0001134 0)
(0.0009914 0.0001046 0)
(0.0009693 9.62e-05 0)
(0.000949 8.83e-05 0)
(0.0009303 8.088e-05 0)
(0.0009132 7.393e-05 0)
(0.0008975 6.746e-05 0)
(0.0008831 6.144e-05 0)
(0.00087 5.587e-05 0)
(0.000858 5.072e-05 0)
(0.0008472 4.597e-05 0)
(0.0008373 4.161e-05 0)
(0.0008283 3.76e-05 0)
(0.0008202 3.394e-05 0)
(0.0008129 3.059e-05 0)
(0.0008062 2.753e-05 0)
(0.0008002 2.476e-05 0)
(0.0007948 2.223e-05 0)
(0.00079 1.995e-05 0)
(0.0007856 1.788e-05 0)
(0.0007817 1.602e-05 0)
(0.0007781 1.436e-05 0)
(0.000775 1.287e-05 0)
(0.0007721 1.155e-05 0)
(0.0007696 1.039e-05 0)
(0.0007673 9.38e-06 0)
(0.0007652 8.517e-06 0)
(0.0007634 7.794e-06 0)
(0.0007617 7.206e-06 0)
(0.0007602 6.747e-06 0)
(0.0007588 6.412e-06 0)
(0.0007575 6.191e-06 0)
(0.0007564 6.068e-06 0)
(0.0007553 6.022e-06 0)
(0.0007542 6.019e-06 0)
(0.001206 9.57e-05 0)
(0.001225 0.0002427 0)
(0.001251 0.0003421 0)
(0.001275 0.000399 0)
(0.001292 0.0004232 0)
(0.001299 0.0004242 0)
(0.001298 0.0004101 0)
(0.001289 0.0003867 0)
(0.001274 0.0003584 0)
(0.001254 0.000328 0)
(0.001232 0.0002973 0)
(0.001209 0.0002675 0)
(0.001186 0.0002392 0)
(0.001163 0.0002126 0)
(0.001141 0.000188 0)
(0.00112 0.0001652 0)
(0.001101 0.0001441 0)
(0.001084 0.0001247 0)
(0.001069 0.0001067 0)
(0.001056 8.998e-05 0)
(0.001045 7.438e-05 0)
(0.001036 5.975e-05 0)
(0.001029 4.591e-05 0)
(0.001023 3.274e-05 0)
(0.00102 2.009e-05 0)
(0.001019 7.842e-06 0)
(0.00102 -4.126e-06 0)
(0.001022 -1.592e-05 0)
(0.001027 -2.764e-05 0)
(0.001034 -3.938e-05 0)
(0.001043 -5.123e-05 0)
(0.001053 -6.325e-05 0)
(0.001066 -7.552e-05 0)
(0.001081 -8.808e-05 0)
(0.001099 -0.000101 0)
(0.001119 -0.0001143 0)
(0.001141 -0.0001279 0)
(0.001165 -0.000142 0)
(0.001193 -0.0001563 0)
(0.001222 -0.000171 0)
(0.001255 -0.0001859 0)
(0.00129 -0.000201 0)
(0.001328 -0.000216 0)
(0.001368 -0.0002309 0)
(0.001411 -0.0002453 0)
(0.001457 -0.0002592 0)
(0.001505 -0.000272 0)
(0.001555 -0.0002837 0)
(0.001608 -0.0002937 0)
(0.001662 -0.0003016 0)
(0.001718 -0.0003072 0)
(0.001774 -0.0003098 0)
(0.001831 -0.0003092 0)
(0.001887 -0.0003049 0)
(0.001943 -0.0002964 0)
(0.001996 -0.0002837 0)
(0.002047 -0.0002664 0)
(0.002095 -0.0002446 0)
(0.002138 -0.0002183 0)
(0.002176 -0.0001877 0)
(0.002209 -0.0001535 0)
(0.002234 -0.0001163 0)
(0.002252 -7.676e-05 0)
(0.002263 -3.596e-05 0)
(0.002265 5.168e-06 0)
(0.002261 4.566e-05 0)
(0.002248 8.467e-05 0)
(0.002229 0.0001214 0)
(0.002203 0.0001554 0)
(0.002171 0.000186 0)
(0.002135 0.0002131 0)
(0.002093 0.0002363 0)
(0.002048 0.0002558 0)
(0.001999 0.0002714 0)
(0.001949 0.0002832 0)
(0.001896 0.0002915 0)
(0.001842 0.0002964 0)
(0.001788 0.0002982 0)
(0.001734 0.0002972 0)
(0.00168 0.0002936 0)
(0.001627 0.0002879 0)
(0.001575 0.0002802 0)
(0.001525 0.000271 0)
(0.001476 0.0002606 0)
(0.001429 0.0002492 0)
(0.001385 0.0002372 0)
(0.001343 0.0002247 0)
(0.001303 0.0002119 0)
(0.001265 0.0001991 0)
(0.00123 0.0001863 0)
(0.001197 0.0001738 0)
(0.001166 0.0001617 0)
(0.001137 0.0001499 0)
(0.00111 0.0001387 0)
(0.001086 0.0001279 0)
(0.001063 0.0001177 0)
(0.001042 0.0001081 0)
(0.001023 9.909e-05 0)
(0.001005 9.063e-05 0)
(0.0009885 8.274e-05 0)
(0.0009736 7.54e-05 0)
(0.00096 6.861e-05 0)
(0.0009476 6.232e-05 0)
(0.0009364 5.652e-05 0)
(0.0009261 5.119e-05 0)
(0.0009168 4.63e-05 0)
(0.0009083 4.181e-05 0)
(0.0009007 3.771e-05 0)
(0.0008937 3.397e-05 0)
(0.0008875 3.056e-05 0)
(0.0008818 2.747e-05 0)
(0.0008768 2.466e-05 0)
(0.0008722 2.212e-05 0)
(0.0008681 1.983e-05 0)
(0.0008644 1.778e-05 0)
(0.000861 1.594e-05 0)
(0.0008581 1.43e-05 0)
(0.0008554 1.286e-05 0)
(0.000853 1.16e-05 0)
(0.0008509 1.051e-05 0)
(0.0008489 9.586e-06 0)
(0.0008472 8.822e-06 0)
(0.0008456 8.21e-06 0)
(0.0008442 7.742e-06 0)
(0.0008429 7.408e-06 0)
(0.0008418 7.195e-06 0)
(0.0008407 7.082e-06 0)
(0.0008396 7.043e-06 0)
(0.001205 8.452e-05 0)
(0.001221 0.0002192 0)
(0.001245 0.0003159 0)
(0.001269 0.0003769 0)
(0.001289 0.0004086 0)
(0.001302 0.0004181 0)
(0.001307 0.0004119 0)
(0.001306 0.0003952 0)
(0.001299 0.0003719 0)
(0.001288 0.0003451 0)
(0.001273 0.0003166 0)
(0.001257 0.0002879 0)
(0.001239 0.0002599 0)
(0.001221 0.0002329 0)
(0.001204 0.0002074 0)
(0.001187 0.0001833 0)
(0.001171 0.0001608 0)
(0.001156 0.0001397 0)
(0.001143 0.0001199 0)
(0.001132 0.0001013 0)
(0.001122 8.389e-05 0)
(0.001114 6.736e-05 0)
(0.001108 5.163e-05 0)
(0.001104 3.655e-05 0)
(0.001101 2.2e-05 0)
(0.001101 7.836e-06 0)
(0.001102 -6.056e-06 0)
(0.001105 -1.979e-05 0)
(0.00111 -3.349e-05 0)
(0.001117 -4.723e-05 0)
(0.001126 -6.112e-05 0)
(0.001137 -7.524e-05 0)
(0.00115 -8.966e-05 0)
(0.001165 -0.0001044 0)
(0.001183 -0.0001196 0)
(0.001203 -0.0001353 0)
(0.001225 -0.0001514 0)
(0.00125 -0.0001679 0)
(0.001277 -0.0001848 0)
(0.001307 -0.0002022 0)
(0.00134 -0.0002198 0)
(0.001375 -0.0002375 0)
(0.001413 -0.0002553 0)
(0.001454 -0.0002729 0)
(0.001497 -0.00029 0)
(0.001544 -0.0003064 0)
(0.001592 -0.0003217 0)
(0.001643 -0.0003355 0)
(0.001697 -0.0003475 0)
(0.001752 -0.0003571 0)
(0.001808 -0.0003638 0)
(0.001866 -0.0003672 0)
(0.001924 -0.0003667 0)
(0.001982 -0.0003618 0)
(0.002039 -0.0003521 0)
(0.002094 -0.0003372 0)
(0.002147 -0.0003169 0)
(0.002197 -0.0002911 0)
(0.002242 -0.00026 0)
(0.002281 -0.0002237 0)
(0.002315 -0.000183 0)
(0.002341 -0.0001385 0)
(0.00236 -9.14e-05 0)
(0.002371 -4.27e-05 0)
(0.002373 6.361e-06 0)
(0.002368 5.461e-05 0)
(0.002355 0.000101 0)
(0.002335 0.0001446 0)
(0.002308 0.0001848 0)
(0.002275 0.0002211 0)
(0.002237 0.0002531 0)
(0.002194 0.0002805 0)
(0.002148 0.0003034 0)
(0.002098 0.0003218 0)
(0.002046 0.0003357 0)
(0.001992 0.0003454 0)
(0.001937 0.0003512 0)
(0.001882 0.0003532 0)
(0.001826 0.0003519 0)
(0.001771 0.0003477 0)
(0.001717 0.0003408 0)
(0.001665 0.0003317 0)
(0.001614 0.0003209 0)