/*--------------------------------*- C++ -*----------------------------------*\
  =========                 |
  \\      /  F ield         | OpenFOAM: The Open Source CFD Toolbox
   \\    /   O peration     | Website:  https://openfoam.org
    \\  /    A nd           | Version:  7
     \\/     M anipulation  |
\*---------------------------------------------------------------------------*/
FoamFile
{
    version     2.0;
    format      ascii;
    class       volScalarField;
    location    "1859.99947342884707";
    object      Y.K;
}
// * * * * * * * * * * * * * * * * * * * * * * * * * * * * * * * * * * * * * //

dimensions      [0 0 0 0 0 0 0];

internalField   nonuniform List<scalar> 
4096
(
1.359e-71
-7.78e-73
1.756e-70
-1.05e-70
-1.402e-71
3.047e-71
-1.624e-71
-8.171e-72
5.577e-72
-3.853e-71
4.094e-70
-6.162e-69
9.46e-68
-1.294e-66
1.747e-65
-2.201e-64
2.652e-63
-3.101e-62
3.392e-61
-3.65e-60
3.78e-59
-3.768e-58
3.649e-57
-3.406e-56
3.067e-55
-2.638e-54
2.167e-53
-1.628e-52
1.198e-51
-8.523e-51
5.782e-50
-3.666e-49
2.019e-48
-9.785e-48
1.166e-47
3.299e-46
-6.018e-45
6.464e-44
-6.127e-43
5.12e-42
-3.924e-41
2.771e-40
-1.814e-39
1.109e-38
-6.325e-38
3.328e-37
-1.639e-36
7.492e-36
-3.177e-35
1.206e-34
-3.845e-34
9.117e-34
3.373e-34
-1.69e-32
1.789e-31
-6.591e-31
4.163e-30
4.213e-32
3.887e-29
4.528e-28
3.109e-28
6.19e-27
2.864e-26
5.795e-26
4.543e-25
1.895e-24
3.405e-24
2.973e-23
7.965e-23
2.124e-22
1.616e-21
6.694e-21
9.698e-20
1.452e-18
4.017e-18
8.197e-18
1.484e-17
2.519e-17
4.103e-17
6.482e-17
9.987e-17
1.506e-16
2.228e-16
3.24e-16
4.637e-16
6.537e-16
9.09e-16
1.248e-15
1.692e-15
2.269e-15
3.01e-15
3.954e-15
5.146e-15
6.64e-15
8.498e-15
1.079e-14
1.361e-14
1.706e-14
2.123e-14
2.628e-14
3.235e-14
3.962e-14
4.828e-14
5.857e-14
7.074e-14
8.51e-14
1.02e-13
1.217e-13
1.448e-13
1.717e-13
2.03e-13
2.393e-13
2.812e-13
3.295e-13
3.851e-13
4.49e-13
5.223e-13
6.06e-13
7.016e-13
8.105e-13
9.342e-13
1.074e-12
1.232e-12
1.41e-12
1.605e-12
1.814e-12
2.022e-12
2.187e-12
3.194e-70
-1.817e-69
2.089e-69
-2.984e-70
-1.47e-69
1.286e-69
-1.043e-70
-4.909e-70
1.846e-70
-2.226e-69
2.254e-68
-3.464e-67
5.196e-66
-7.341e-65
9.778e-64
-1.233e-62
1.479e-61
-1.696e-60
1.867e-59
-1.983e-58
2.036e-57
-2.025e-56
1.95e-55
-1.814e-54
1.625e-53
-1.394e-52
1.139e-51
-8.573e-51
6.316e-50
-4.504e-49
3.066e-48
-1.952e-47
1.093e-46
-5.488e-46
9.009e-46
1.424e-44
-2.881e-43
3.188e-42
-3.067e-41
2.526e-40
-1.935e-39
1.365e-38
-8.915e-38
5.438e-37
-3.091e-36
1.639e-35
-8.054e-35
3.681e-34
-1.547e-33
5.898e-33
-1.916e-32
4.918e-32
-9.181e-33
-6.111e-31
8.232e-30
-2.685e-29
2.02e-28
9.314e-29
2.484e-27
2.269e-26
2.793e-26
3.334e-25
1.413e-24
3.482e-24
2.296e-23
8.886e-23
1.885e-22
1.322e-21
3.614e-21
9.302e-21
5.884e-20
1.864e-19
1.227e-18
3.343e-18
6.885e-18
1.259e-17
2.151e-17
3.517e-17
5.564e-17
8.577e-17
1.293e-16
1.913e-16
2.78e-16
3.976e-16
5.604e-16
7.792e-16
1.07e-15
1.451e-15
1.947e-15
2.586e-15
3.4e-15
4.432e-15
5.726e-15
7.341e-15
9.341e-15
1.18e-14
1.482e-14
1.848e-14
2.292e-14
2.828e-14
3.47e-14
4.238e-14
5.151e-14
6.235e-14
7.515e-14
9.024e-14
1.079e-13
1.287e-13
1.529e-13
1.811e-13
2.138e-13
2.517e-13
2.955e-13
3.46e-13
4.041e-13
4.708e-13
5.472e-13
6.346e-13
7.343e-13
8.477e-13
9.767e-13
1.123e-12
1.288e-12
1.474e-12
1.681e-12
1.909e-12
2.151e-12
2.382e-12
-7.378e-69
5.136e-68
-1.287e-67
1.714e-67
-1.183e-67
1.983e-68
3.076e-68
-1.882e-68
1.858e-70
-1.261e-67
1.212e-66
-1.85e-65
2.773e-64
-3.904e-63
5.176e-62
-6.487e-61
7.727e-60
-8.795e-59
9.617e-58
-1.014e-56
1.035e-55
-1.023e-54
9.793e-54
-9.067e-53
8.09e-52
-6.916e-51
5.63e-50
-4.252e-49
3.144e-48
-2.253e-47
1.545e-46
-9.946e-46
5.736e-45
-2.864e-44
7.079e-44
4.281e-43
-1.203e-41
1.389e-40
-1.373e-39
1.136e-38
-8.763e-38
6.2e-37
-4.051e-36
2.474e-35
-1.408e-34
7.471e-34
-3.671e-33
1.681e-32
-7.103e-32
2.747e-31
-9.221e-31
2.546e-30
-2.494e-30
-1.331e-29
3.41e-28
-8.673e-28
9.401e-27
1.205e-26
1.628e-25
1.104e-24
2.238e-24
1.853e-23
7.404e-23
1.984e-22
1.163e-21
4.171e-21
9.739e-21
5.495e-20
1.512e-19
3.631e-19
1.685e-18
4.25e-18
8.404e-18
1.503e-17
2.534e-17
4.099e-17
6.422e-17
9.794e-17
1.46e-16
2.131e-16
3.056e-16
4.308e-16
5.984e-16
8.199e-16
1.109e-15
1.484e-15
1.964e-15
2.574e-15
3.345e-15
4.31e-15
5.513e-15
7.002e-15
8.835e-15
1.108e-14
1.382e-14
1.714e-14
2.116e-14
2.599e-14
3.178e-14
3.869e-14
4.693e-14
5.669e-14
6.824e-14
8.186e-14
9.786e-14
1.166e-13
1.385e-13
1.641e-13
1.938e-13
2.283e-13
2.682e-13
3.143e-13
3.674e-13
4.285e-13
4.986e-13
5.789e-13
6.706e-13
7.752e-13
8.943e-13
1.03e-12
1.183e-12
1.357e-12
1.553e-12
1.774e-12
2.022e-12
2.299e-12
2.608e-12
2.956e-12
1.213e-67
-9.643e-67
3.385e-66
-7.254e-66
1.005e-65
-9.111e-66
4.988e-66
-1.078e-66
-2.602e-67
-6.969e-66
6.186e-65
-9.328e-64
1.391e-62
-1.946e-61
2.556e-60
-3.171e-59
3.735e-58
-4.204e-57
4.548e-56
-4.748e-55
4.8e-54
-4.704e-53
4.471e-52
-4.114e-51
3.652e-50
-3.113e-49
2.528e-48
-1.919e-47
1.428e-46
-1.032e-45
7.162e-45
-4.696e-44
2.811e-43
-1.496e-42
5.114e-42
1.596e-44
-3.909e-40
5.033e-39
-5.288e-38
4.425e-37
-3.474e-36
2.481e-35
-1.629e-34
1.001e-33
-5.724e-33
3.053e-32
-1.504e-31
6.927e-31
-2.956e-30
1.168e-29
-4.087e-29
1.265e-28
-2.089e-28
1.859e-28
1.237e-26
-1.175e-26
3.915e-25
9.228e-25
1.028e-23
4.968e-23
1.56e-22
9.952e-22
3.694e-21
1.052e-20
5.356e-20
1.721e-19
4.239e-19
1.742e-18
4.548e-18
9.265e-18
1.714e-17
2.988e-17
4.978e-17
7.989e-17
1.242e-16
1.877e-16
2.765e-16
3.982e-16
5.617e-16
7.776e-16
1.058e-15
1.419e-15
1.876e-15
2.45e-15
3.164e-15
4.047e-15
5.131e-15
6.455e-15
8.064e-15
1.001e-14
1.236e-14
1.519e-14
1.857e-14
2.262e-14
2.744e-14
3.318e-14
3.998e-14
4.804e-14
5.754e-14
6.874e-14
8.191e-14
9.735e-14
1.154e-13
1.365e-13
1.611e-13
1.897e-13
2.228e-13
2.612e-13
3.056e-13
3.567e-13
4.156e-13
4.832e-13
5.608e-13
6.495e-13
7.509e-13
8.664e-13
9.98e-13
1.147e-12
1.317e-12
1.509e-12
1.725e-12
1.97e-12
2.245e-12
2.554e-12
2.9e-12
3.288e-12
3.726e-12
4.282e-12
-1.728e-66
1.493e-65
-6.485e-65
1.858e-64
-3.693e-64
5.264e-64
-5.395e-64
3.818e-64
-1.627e-64
-3.385e-64
2.993e-63
-4.455e-62
6.568e-61
-9.059e-60
1.171e-58
-1.428e-57
1.652e-56
-1.828e-55
1.946e-54
-2.002e-53
1.996e-52
-1.934e-51
1.819e-50
-1.661e-49
1.465e-48
-1.245e-47
1.01e-46
-7.728e-46
5.804e-45
-4.245e-44
2.995e-43
-2.012e-42
1.26e-41
-7.081e-41
3.173e-40
-8.828e-40
-7.209e-39
1.366e-37
-1.657e-36
1.425e-35
-1.161e-34
8.466e-34
-5.611e-33
3.494e-32
-2.023e-31
1.091e-30
-5.401e-30
2.511e-29
-1.086e-28
4.412e-28
-1.604e-27
5.547e-27
-1.105e-26
3.519e-26
3.832e-25
6.61e-25
1.322e-23
7.389e-23
5.923e-22
2.569e-21
8.554e-21
4.815e-20
1.636e-19
4.698e-19
1.914e-18
5.319e-18
1.165e-17
2.308e-17
4.285e-17
7.554e-17
1.274e-16
2.065e-16
3.231e-16
4.894e-16
7.195e-16
1.03e-15
1.437e-15
1.962e-15
2.624e-15
3.447e-15
4.456e-15
5.678e-15
7.144e-15
8.891e-15
1.096e-14
1.34e-14
1.627e-14
1.963e-14
2.357e-14
2.818e-14
3.356e-14
3.986e-14
4.72e-14
5.577e-14
6.576e-14
7.741e-14
9.097e-14
1.068e-13
1.251e-13
1.464e-13
1.712e-13
1.998e-13
2.33e-13
2.713e-13
3.156e-13
3.666e-13
4.253e-13
4.927e-13
5.701e-13
6.587e-13
7.601e-13
8.758e-13
1.008e-12
1.158e-12
1.328e-12
1.522e-12
1.741e-12
1.989e-12
2.268e-12
2.583e-12
2.938e-12
3.336e-12
3.781e-12
4.28e-12
4.836e-12
5.457e-12
6.155e-12
7.111e-12
2.269e-65
-2.069e-64
1.043e-63
-3.671e-63
9.394e-63
-1.801e-62
2.617e-62
-2.84e-62
2.194e-62
-2.307e-62
1.359e-61
-2.013e-60
2.902e-59
-3.907e-58
4.92e-57
-5.838e-56
6.58e-55
-7.099e-54
7.382e-53
-7.436e-52
7.279e-51
-6.939e-50
6.442e-49
-5.819e-48
5.098e-47
-4.316e-46
3.504e-45
-2.708e-44
2.058e-43
-1.529e-42
1.101e-41
-7.617e-41
4.992e-40
-3.029e-39
1.622e-38
-7.253e-38
1.046e-37
1.683e-36
-3.714e-35
3.475e-34
-3.086e-33
2.354e-32
-1.585e-31
1.014e-30
-6.016e-30
3.314e-29
-1.65e-28
7.77e-28
-3.415e-27
1.431e-26
-5.318e-26
1.997e-25
-3.31e-25
2.079e-24
1.206e-23
8.406e-23
7.623e-22
4.16e-21
2.997e-20
1.188e-19
4.084e-19
1.792e-18
5.512e-18
1.352e-17
2.99e-17
6.155e-17
1.193e-16
2.192e-16
3.833e-16
6.406e-16
1.026e-15
1.581e-15
2.348e-15
3.374e-15
4.704e-15
6.378e-15
8.434e-15
1.091e-14
1.382e-14
1.721e-14
2.111e-14
2.554e-14
3.055e-14
3.62e-14
4.256e-14
4.972e-14
5.777e-14
6.685e-14
7.712e-14
8.875e-14
1.02e-13
1.17e-13
1.342e-13
1.538e-13
1.763e-13
2.02e-13
2.315e-13
2.653e-13
3.041e-13
3.487e-13
3.998e-13
4.584e-13
5.256e-13
6.026e-13
6.906e-13
7.913e-13
9.063e-13
1.037e-12
1.187e-12
1.357e-12
1.55e-12
1.77e-12
2.018e-12
2.3e-12
2.618e-12
2.977e-12
3.381e-12
3.836e-12
4.347e-12
4.921e-12
5.563e-12
6.28e-12
7.08e-12
7.971e-12
8.961e-12
1.006e-11
1.128e-11
1.304e-11
-2.829e-64
2.674e-63
-1.501e-62
6.18e-62
-1.921e-61
4.62e-61
-8.697e-61
1.267e-60
-1.348e-60
1.26e-61
5.992e-60
-8.553e-59
1.186e-57
-1.537e-56
1.86e-55
-2.12e-54
2.3e-53
-2.395e-52
2.412e-51
-2.361e-50
2.255e-49
-2.105e-48
1.921e-47
-1.713e-46
1.488e-45
-1.255e-44
1.021e-43
-7.994e-43
6.167e-42
-4.664e-41
3.439e-40
-2.455e-39
1.683e-38
-1.093e-37
6.603e-37
-3.575e-36
1.591e-35
-3.866e-35
-2.013e-34
4.392e-33
-5.602e-32
4.879e-31
-3.409e-30
2.313e-29
-1.447e-28
8.307e-28
-4.144e-27
1.982e-26
-8.908e-26
3.896e-25
-1.416e-24
5.376e-24
-6.531e-25
9.027e-23
6.99e-22
5.245e-21
3.918e-20
2.147e-19
1.146e-18
4.114e-18
1.186e-17
3.066e-17
7.333e-17
1.636e-16
3.424e-16
6.741e-16
1.253e-15
2.205e-15
3.689e-15
5.884e-15
8.977e-15
1.315e-14
1.854e-14
2.525e-14
3.334e-14
4.278e-14
5.353e-14
6.549e-14
7.856e-14
9.265e-14
1.077e-13
1.237e-13
1.406e-13
1.586e-13
1.777e-13
1.983e-13
2.205e-13
2.447e-13
2.712e-13
3.004e-13
3.329e-13
3.692e-13
4.1e-13
4.559e-13
5.078e-13
5.665e-13
6.332e-13
7.089e-13
7.95e-13
8.929e-13
1.004e-12
1.131e-12
1.275e-12
1.439e-12
1.625e-12
1.836e-12
2.076e-12
2.348e-12
2.656e-12
3.005e-12
3.399e-12
3.843e-12
4.344e-12
4.909e-12
5.543e-12
6.256e-12
7.055e-12
7.95e-12
8.95e-12
1.007e-11
1.131e-11
1.27e-11
1.424e-11
1.594e-11
1.783e-11
1.991e-11
2.221e-11
2.563e-11
3.394e-63
-3.288e-62
2.001e-61
-9.321e-61
3.388e-60
-9.81e-60
2.283e-59
-4.24e-59
6.075e-59
-7.915e-59
2.558e-58
-3.287e-57
4.378e-56
-5.366e-55
6.121e-54
-6.592e-53
6.78e-52
-6.73e-51
6.496e-50
-6.13e-49
5.673e-48
-5.159e-47
4.611e-46
-4.048e-45
3.483e-44
-2.928e-43
2.392e-42
-1.901e-41
1.493e-40
-1.152e-39
8.716e-39
-6.427e-38
4.595e-37
-3.163e-36
2.078e-35
-1.287e-34
7.372e-34
-3.725e-33
1.77e-32
-3.144e-32
-1.989e-31
3.592e-30
-3.837e-29
3.489e-28
-2.531e-27
1.582e-26
-8.185e-26
3.972e-25
-1.886e-24
9.084e-24
-2.921e-23
8.321e-23
5.789e-22
5.461e-21
3.994e-20
2.591e-19
1.557e-18
6.268e-18
2.044e-17
5.984e-17
1.612e-16
4.027e-16
9.355e-16
2.027e-15
4.107e-15
7.801e-15
1.394e-14
2.352e-14
3.759e-14
5.713e-14
8.287e-14
1.152e-13
1.539e-13
1.985e-13
2.478e-13
3.007e-13
3.556e-13
4.112e-13
4.665e-13
5.208e-13
5.736e-13
6.249e-13
6.752e-13
7.25e-13
7.75e-13
8.262e-13
8.797e-13
9.364e-13
9.976e-13
1.064e-12
1.138e-12
1.221e-12
1.313e-12
1.418e-12
1.535e-12
1.668e-12
1.819e-12
1.99e-12
2.184e-12
2.403e-12
2.652e-12
2.934e-12
3.253e-12
3.615e-12
4.023e-12
4.485e-12
5.006e-12
5.594e-12
6.256e-12
7.002e-12
7.841e-12
8.784e-12
9.841e-12
1.103e-11
1.235e-11
1.383e-11
1.549e-11
1.733e-11
1.939e-11
2.167e-11
2.42e-11
2.701e-11
3.011e-11
3.354e-11
3.732e-11
4.148e-11
4.601e-11
5.291e-11
-3.933e-62
3.875e-61
-2.512e-60
1.292e-59
-5.355e-59
1.815e-58
-5.068e-58
1.156e-57
-2.055e-57
1.403e-57
9.105e-57
-1.186e-55
1.413e-54
-1.584e-53
1.659e-52
-1.65e-51
1.579e-50
-1.473e-49
1.347e-48
-1.214e-47
1.081e-46
-9.526e-46
8.307e-45
-7.164e-44
6.098e-43
-5.112e-42
4.205e-41
-3.403e-40
2.727e-39
-2.156e-38
1.677e-37
-1.279e-36
9.522e-36
-6.898e-35
4.839e-34
-3.27e-33
2.117e-32
-1.3e-31
7.37e-31
-3.78e-30
1.955e-29
-6.804e-29
9.451e-29
1.058e-27
-1.268e-26
9.488e-26
-6.811e-25
4.846e-24
-2.896e-23
1.822e-22
-3.599e-22
3.039e-21
2.737e-20
2.279e-19
1.599e-18
7.389e-18
2.791e-17
9.473e-17
2.949e-16
8.456e-16
2.239e-15
5.481e-15
1.243e-14
2.616e-14
5.124e-14
9.372e-14
1.607e-13
2.592e-13
3.949e-13
5.707e-13
7.856e-13
1.034e-12
1.308e-12
1.594e-12
1.88e-12
2.154e-12
2.405e-12
2.627e-12
2.819e-12
2.978e-12
3.108e-12
3.215e-12
3.304e-12
3.381e-12
3.451e-12
3.519e-12
3.59e-12
3.67e-12
3.762e-12
3.87e-12
3.999e-12
4.152e-12
4.332e-12
4.542e-12
4.786e-12
5.07e-12
5.398e-12
5.773e-12
6.204e-12
6.694e-12
7.252e-12
7.885e-12
8.603e-12
9.414e-12
1.033e-11
1.136e-11
1.252e-11
1.383e-11
1.53e-11
1.694e-11
1.878e-11
2.085e-11
2.315e-11
2.572e-11
2.859e-11
3.178e-11
3.533e-11
3.926e-11
4.363e-11
4.846e-11
5.38e-11
5.969e-11
6.619e-11
7.333e-11
8.116e-11
8.976e-11
9.903e-11
1.134e-10
4.394e-61
-4.376e-60
2.982e-59
-1.667e-58
7.723e-58
-3.004e-57
9.879e-57
-2.739e-56
6.307e-56
-1.247e-55
3.758e-55
-3.27e-54
3.585e-53
-3.599e-52
3.331e-51
-2.964e-50
2.579e-49
-2.225e-48
1.906e-47
-1.627e-46
1.385e-45
-1.176e-44
9.959e-44
-8.412e-43
7.074e-42
-5.909e-41
4.913e-40
-4.071e-39
3.348e-38
-2.725e-37
2.193e-36
-1.739e-35
1.354e-34
-1.032e-33
7.687e-33
-5.575e-32
3.932e-31
-2.667e-30
1.705e-29
-1.049e-28
5.968e-28
-3.226e-27
1.636e-26
-7.473e-26
3.704e-25
-1.397e-24
2.493e-24
5.119e-24
-1.213e-22
1.9e-21
2.016e-21
1.205e-19
1.132e-18
6.225e-18
2.792e-17
1.123e-16
4.13e-16
1.392e-15
4.305e-15
1.222e-14
3.186e-14
7.64e-14
1.688e-13
3.443e-13
6.505e-13
1.143e-12
1.874e-12
2.882e-12
4.176e-12
5.726e-12
7.466e-12
9.295e-12
1.11e-11
1.278e-11
1.421e-11
1.536e-11
1.618e-11
1.669e-11
1.697e-11
1.693e-11
1.678e-11
1.651e-11
1.617e-11
1.578e-11
1.54e-11
1.504e-11
1.473e-11
1.448e-11
1.43e-11
1.42e-11
1.422e-11
1.43e-11
1.449e-11
1.477e-11
1.517e-11
1.569e-11
1.632e-11
1.709e-11
1.8e-11
1.906e-11
2.029e-11
2.17e-11
2.331e-11
2.514e-11
2.72e-11
2.954e-11
3.217e-11
3.512e-11
3.843e-11
4.213e-11
4.626e-11
5.088e-11
5.602e-11
6.173e-11
6.808e-11
7.512e-11
8.292e-11
9.154e-11
1.011e-10
1.116e-10
1.231e-10
1.358e-10
1.498e-10
1.651e-10
1.818e-10
2.001e-10
2.196e-10
2.503e-10
-4.693e-60
4.706e-59
-3.337e-58
2e-57
-1.021e-56
4.489e-56
-1.71e-55
5.609e-55
-1.521e-54
2.802e-54
4.601e-54
-7.657e-53
6.573e-52
-5.142e-51
3.87e-50
-2.938e-49
2.27e-48
-1.802e-47
1.441e-46
-1.159e-45
9.346e-45
-7.566e-44
6.149e-43
-5.028e-42
4.124e-41
-3.399e-40
2.811e-39
-2.324e-38
1.918e-37
-1.571e-36
1.288e-35
-1.047e-34
8.347e-34
-6.532e-33
5.005e-32
-3.748e-31
2.739e-30
-1.921e-29
1.33e-28
-8.8e-28
5.72e-27
-3.581e-26
2.155e-25
-1.245e-24
6.871e-24
-3.642e-23
1.84e-22
-8.565e-22
1.944e-21
2.938e-20
3.534e-19
3.218e-18
1.892e-17
9.279e-17
4.106e-16
1.659e-15
6.122e-15
2.063e-14
6.344e-14
1.781e-13
4.564e-13
1.07e-12
2.297e-12
4.529e-12
8.226e-12
1.383e-11
2.164e-11
3.166e-11
4.349e-11
5.647e-11
6.959e-11
8.179e-11
9.22e-11
9.99e-11
1.047e-10
1.066e-10
1.058e-10
1.034e-10
9.944e-11
9.448e-11
8.895e-11
8.326e-11
7.771e-11
7.249e-11
6.772e-11
6.348e-11
5.979e-11
5.665e-11
5.405e-11
5.196e-11
5.036e-11
4.922e-11
4.85e-11
4.823e-11
4.839e-11
4.888e-11
4.978e-11
5.109e-11
5.281e-11
5.494e-11
5.752e-11
6.056e-11
6.411e-11
6.819e-11
7.285e-11
7.814e-11
8.411e-11
9.084e-11
9.838e-11
1.068e-10
1.162e-10
1.267e-10
1.383e-10
1.513e-10
1.656e-10
1.814e-10
1.988e-10
2.181e-10
2.393e-10
2.625e-10
2.881e-10
3.161e-10
3.467e-10
3.801e-10
4.165e-10
4.562e-10
4.982e-10
5.649e-10
4.729e-59
-4.755e-58
3.481e-57
-2.215e-56
1.232e-55
-6.046e-55
2.646e-54
-1.039e-53
3.669e-53
-1.158e-52
3.206e-52
-7.553e-52
1.506e-51
-6.151e-51
5.24e-50
-5.993e-49
6.06e-48
-5.384e-47
4.48e-46
-3.504e-45
2.595e-44
-1.823e-43
1.21e-42
-7.515e-42
4.257e-41
-2.072e-40
6.625e-40
1.082e-39
-4.637e-38
5.651e-37
-5.101e-36
4.106e-35
-3.149e-34
2.166e-33
-1.439e-32
5.485e-32
-3.324e-32
-2.909e-30
4.247e-29
-4.603e-28
4.144e-27
-3.372e-26
2.557e-25
-1.816e-24
1.202e-23
-7.494e-23
5.146e-22
-1.345e-21
9.824e-20
1.203e-18
8.547e-18
5.069e-17
2.72e-16
1.333e-15
5.967e-15
2.433e-14
9.018e-14
3.035e-13
9.269e-13
2.568e-12
6.457e-12
1.475e-11
3.07e-11
5.833e-11
1.015e-10
1.629e-10
2.424e-10
3.36e-10
4.367e-10
5.359e-10
6.228e-10
6.9e-10
7.326e-10
7.44e-10
7.336e-10
7.068e-10
6.659e-10
6.157e-10
5.613e-10
5.063e-10
4.537e-10
4.051e-10
3.614e-10
3.229e-10
2.896e-10
2.612e-10
2.373e-10
2.172e-10
2.007e-10
1.872e-10
1.763e-10
1.677e-10
1.612e-10
1.565e-10
1.534e-10
1.516e-10
1.518e-10
1.529e-10
1.553e-10
1.59e-10
1.639e-10
1.701e-10
1.776e-10
1.865e-10
1.969e-10
2.088e-10
2.223e-10
2.377e-10
2.549e-10
2.743e-10
2.958e-10
3.198e-10
3.465e-10
3.76e-10
4.086e-10
4.446e-10
4.842e-10
5.277e-10
5.755e-10
6.279e-10
6.851e-10
7.477e-10
8.158e-10
8.9e-10
9.705e-10
1.058e-09
1.15e-09
1.297e-09
-4.402e-58
4.424e-57
-3.321e-56
2.221e-55
-1.327e-54
7.152e-54
-3.505e-53
1.574e-52
-6.495e-52
2.456e-51
-8.359e-51
2.404e-50
-4.417e-50
-1.788e-49
2.391e-48
-2.209e-47
1.84e-46
-1.426e-45
1.097e-44
-8.172e-44
5.896e-43
-4.126e-42
2.81e-41
-1.88e-40
1.238e-39
-8.058e-39
5.265e-38
-3.38e-37
2.071e-36
-1.161e-35
5.428e-35
-1.248e-34
-1.222e-33
2.528e-32
-3.032e-31
3.017e-30
-2.7e-29
2.243e-28
-1.755e-27
1.305e-26
-9.248e-26
6.289e-25
-4.058e-24
2.53e-23
-1.491e-22
9.304e-22
-3.107e-21
1.636e-19
2.194e-18
1.717e-17
1.136e-16
6.815e-16
3.735e-15
1.866e-14
8.471e-14
3.485e-13
1.296e-12
4.352e-12
1.318e-11
3.596e-11
8.849e-11
1.966e-10
3.952e-10
7.207e-10
1.198e-09
1.827e-09
2.575e-09
3.373e-09
4.138e-09
4.797e-09
5.236e-09
5.459e-09
5.399e-09
5.198e-09
4.858e-09
4.423e-09
3.942e-09
3.455e-09
2.992e-09
2.57e-09
2.198e-09
1.877e-09
1.605e-09
1.378e-09
1.191e-09
1.037e-09
9.105e-10
8.08e-10
7.248e-10
6.576e-10
6.036e-10
5.605e-10
5.266e-10
5.005e-10
4.809e-10
4.67e-10
4.584e-10
4.538e-10
4.547e-10
4.586e-10
4.663e-10
4.776e-10
4.926e-10
5.113e-10
5.338e-10
5.601e-10
5.906e-10
6.255e-10
6.649e-10
7.092e-10
7.588e-10
8.141e-10
8.754e-10
9.433e-10
1.018e-09
1.101e-09
1.191e-09
1.291e-09
1.4e-09
1.519e-09
1.648e-09
1.789e-09
1.943e-09
2.109e-09
2.29e-09
2.485e-09
2.689e-09
3.017e-09
3.709e-57
-3.713e-56
2.842e-55
-1.981e-54
1.26e-53
-7.376e-53
4.003e-52
-2.032e-51
9.707e-51
-4.392e-50
1.891e-49
-7.802e-49
3.143e-48
-1.309e-47
6.157e-47
-3.755e-46
2.752e-45
-2.011e-44
1.563e-43
-1.151e-42
7.996e-42
-5.239e-41
3.244e-40
-1.945e-39
1.145e-38
-7.058e-38
5.02e-37
-3.994e-36
3.378e-35
-2.908e-34
2.482e-33
-2.072e-32
1.684e-31
-1.329e-30
1.019e-29
-7.573e-29
5.465e-28
-3.826e-27
2.599e-26
-1.711e-25
1.092e-24
-6.719e-24
4.078e-23
-2.328e-22
1.393e-21
-5.214e-21
2.248e-19
3.322e-18
2.874e-17
2.123e-16
1.429e-15
8.79e-15
4.928e-14
2.507e-13
1.153e-12
4.783e-12
1.783e-11
5.962e-11
1.786e-10
4.791e-10
1.151e-09
2.478e-09
4.792e-09
8.354e-09
1.319e-08
1.905e-08
2.535e-08
3.129e-08
3.625e-08
3.962e-08
4.014e-08
3.921e-08
3.693e-08
3.36e-08
2.966e-08
2.556e-08
2.161e-08
1.801e-08
1.486e-08
1.219e-08
9.985e-09
8.185e-09
6.736e-09
5.578e-09
4.658e-09
3.928e-09
3.349e-09
2.891e-09
2.526e-09
2.237e-09
2.007e-09
1.824e-09
1.68e-09
1.567e-09
1.48e-09
1.414e-09
1.366e-09
1.334e-09
1.314e-09
1.311e-09
1.317e-09
1.333e-09
1.36e-09
1.397e-09
1.444e-09
1.501e-09
1.569e-09
1.647e-09
1.737e-09
1.838e-09
1.952e-09
2.08e-09
2.221e-09
2.378e-09
2.551e-09
2.741e-09
2.949e-09
3.178e-09
3.427e-09
3.699e-09
3.995e-09
4.316e-09
4.664e-09
5.04e-09
5.447e-09
5.887e-09
6.342e-09
7.079e-09
-2.722e-56
2.707e-55
-2.1e-54
1.514e-53
-1.015e-52
6.36e-52
-3.758e-51
2.11e-50
-1.133e-49
5.857e-49
-2.909e-48
1.376e-47
-6.011e-47
2.219e-46
-5.382e-46
-2.67e-45
4.927e-44
-4.438e-43
3.614e-42
-2.653e-41
1.787e-40
-1.109e-39
6.255e-39
-3.054e-38
1.063e-37
8.039e-38
-5.207e-36
6.491e-35
-6.242e-34
5.357e-33
-4.301e-32
3.298e-31
-2.441e-30
1.754e-29
-1.228e-28
8.387e-28
-5.592e-27
3.641e-26
-2.314e-25
1.435e-24
-8.66e-24
5.144e-23
-2.827e-22
1.662e-21
-6.58e-21
2.512e-19
4.095e-18
3.918e-17
3.237e-16
2.446e-15
1.693e-14
1.069e-13
6.125e-13
3.17e-12
1.476e-11
6.16e-11
2.297e-10
7.635e-10
2.258e-09
5.936e-09
1.387e-08
2.882e-08
5.339e-08
8.855e-08
1.323e-07
1.8e-07
2.254e-07
2.62e-07
2.881e-07
2.87e-07
2.77e-07
2.563e-07
2.28e-07
1.961e-07
1.641e-07
1.343e-07
1.081e-07
8.602e-08
6.793e-08
5.348e-08
4.211e-08
3.328e-08
2.647e-08
2.123e-08
1.721e-08
1.411e-08
1.173e-08
9.879e-09
8.442e-09
7.32e-09
6.441e-09
5.749e-09
5.205e-09
4.778e-09
4.444e-09
4.186e-09
3.991e-09
3.849e-09
3.752e-09
3.693e-09
3.672e-09
3.685e-09
3.723e-09
3.789e-09
3.883e-09
4.003e-09
4.15e-09
4.325e-09
4.527e-09
4.758e-09
5.02e-09
5.313e-09
5.639e-09
6.001e-09
6.4e-09
6.838e-09
7.319e-09
7.845e-09
8.418e-09
9.041e-09
9.718e-09
1.045e-08
1.125e-08
1.21e-08
1.302e-08
1.402e-08
1.504e-08
1.67e-08
1.669e-55
-1.645e-54
1.288e-53
-9.52e-53
6.637e-52
-4.387e-51
2.768e-50
-1.684e-49
1.001e-48
-5.907e-48
3.52e-47
-2.15e-46
1.363e-45
-8.952e-45
5.723e-44
-3.905e-43
2.67e-42
-1.816e-41
1.223e-40
-8.129e-40
5.334e-39
-3.454e-38
2.211e-37
-1.402e-36
8.844e-36
-5.571e-35
3.521e-34
-2.234e-33
1.422e-32
-9.075e-32
5.797e-31
-3.7e-30
2.355e-29
-1.491e-28
9.376e-28
-5.84e-27
3.596e-26
-2.184e-25
1.306e-24
-7.671e-24
4.436e-23
-2.444e-22
1.545e-21
-6.394e-21
2.247e-19
4.044e-18
4.277e-17
3.948e-16
3.348e-15
2.609e-14
1.857e-13
1.202e-12
7.024e-12
3.691e-11
1.735e-10
7.271e-10
2.705e-09
8.911e-09
2.593e-08
6.657e-08
1.506e-07
3.006e-07
5.305e-07
8.325e-07
1.17e-06
1.496e-06
1.761e-06
1.945e-06
1.932e-06
1.849e-06
1.689e-06
1.477e-06
1.244e-06
1.016e-06
8.098e-07
6.328e-07
4.876e-07
3.723e-07
2.828e-07
2.147e-07
1.635e-07
1.252e-07
9.666e-08
7.545e-08
5.963e-08
4.778e-08
3.885e-08
3.208e-08
2.691e-08
2.294e-08
1.986e-08
1.746e-08
1.559e-08
1.412e-08
1.298e-08
1.208e-08
1.14e-08
1.088e-08
1.05e-08
1.024e-08
1.009e-08
1.003e-08
1.006e-08
1.016e-08
1.034e-08
1.058e-08
1.09e-08
1.128e-08
1.173e-08
1.226e-08
1.285e-08
1.352e-08
1.428e-08
1.511e-08
1.603e-08
1.704e-08
1.815e-08
1.936e-08
2.068e-08
2.211e-08
2.367e-08
2.535e-08
2.716e-08
2.911e-08
3.12e-08
3.346e-08
3.577e-08
3.953e-08
-8.101e-55
8.019e-54
-6.335e-53
4.771e-52
-3.416e-51
2.322e-50
-1.494e-49
9.051e-49
-5.104e-48
2.623e-47
-1.167e-46
3.86e-46
4.389e-46
-1.666e-44
1.881e-43
-1.682e-42
1.332e-41
-9.765e-41
6.775e-40
-4.497e-39
2.87e-38
-1.763e-37
1.039e-36
-5.822e-36
3.042e-35
-1.433e-34
5.806e-34
-1.638e-33
-2.084e-33
8.793e-32
-9.953e-31
8.806e-30
-6.957e-29
5.134e-28
-3.611e-27
2.447e-26
-1.607e-25
1.026e-24
-6.387e-24
3.883e-23
-2.287e-22
1.385e-21
-5.038e-21
1.563e-19
3.148e-18
3.685e-17
3.792e-16
3.601e-15
3.152e-14
2.529e-13
1.847e-12
1.221e-11
7.262e-11
3.862e-10
1.827e-09
7.657e-09
2.831e-08
9.2e-08
2.621e-07
6.533e-07
1.423e-06
2.71e-06
4.528e-06
6.688e-06
8.798e-06
1.057e-05
1.185e-05
1.178e-05
1.125e-05
1.022e-05
8.846e-06
7.35e-06
5.902e-06
4.608e-06
3.519e-06
2.643e-06
1.962e-06
1.446e-06
1.064e-06
7.836e-07
5.801e-07
4.328e-07
3.264e-07
2.492e-07
1.93e-07
1.518e-07
1.213e-07
9.862e-08
8.153e-08
6.856e-08
5.862e-08
5.095e-08
4.5e-08
4.036e-08
3.673e-08
3.389e-08
3.169e-08
3.001e-08
2.874e-08
2.783e-08
2.722e-08
2.685e-08
2.677e-08
2.689e-08
2.718e-08
2.766e-08
2.831e-08
2.914e-08
3.015e-08
3.133e-08
3.268e-08
3.422e-08
3.595e-08
3.786e-08
3.999e-08
4.232e-08
4.487e-08
4.766e-08
5.069e-08
5.398e-08
5.754e-08
6.139e-08
6.552e-08
6.997e-08
7.473e-08
7.986e-08
8.507e-08
9.359e-08
3.963e-54
-3.513e-53
2.655e-52
-2.052e-51
1.599e-50
-1.244e-49
9.582e-49
-7.257e-48
5.385e-47
-3.909e-46
2.778e-45
-1.934e-44
1.322e-43
-8.895e-43
5.9e-42
-3.867e-41
2.508e-40
-1.611e-39
1.028e-38
-6.507e-38
4.097e-37
-2.566e-36
1.599e-35
-9.916e-35
6.122e-34
-3.761e-33
2.298e-32
-1.396e-31
8.429e-31
-5.059e-30
3.016e-29
-1.786e-28
1.05e-27
-6.12e-27
3.538e-26
-2.027e-25
1.15e-24
-6.456e-24
3.585e-23
-1.957e-22
1.087e-21
-4.934e-21
6.125e-20
1.85e-18
2.473e-17
2.837e-16
3.004e-15
2.943e-14
2.653e-13
2.184e-12
1.632e-11
1.098e-10
6.615e-10
3.543e-09
1.677e-08
6.986e-08
2.548e-07
8.108e-07
2.243e-06
5.383e-06
1.12e-05
2.019e-05
3.173e-05
4.391e-05
5.389e-05
6.234e-05
6.234e-05
5.992e-05
5.452e-05
4.712e-05
3.895e-05
3.102e-05
2.395e-05
1.803e-05
1.331e-05
9.691e-06
6.986e-06
5.013e-06
3.595e-06
2.586e-06
1.874e-06
1.371e-06
1.015e-06
7.624e-07
5.816e-07
4.512e-07
3.562e-07
2.862e-07
2.342e-07
1.95e-07
1.653e-07
1.425e-07
1.249e-07
1.112e-07
1.005e-07
9.217e-08
8.566e-08
8.063e-08
7.679e-08
7.395e-08
7.194e-08
7.068e-08
6.99e-08
6.998e-08
7.042e-08
7.131e-08
7.266e-08
7.444e-08
7.666e-08
7.931e-08
8.238e-08
8.588e-08
8.983e-08
9.424e-08
9.911e-08
1.045e-07
1.104e-07
1.168e-07
1.237e-07
1.313e-07
1.394e-07
1.482e-07
1.576e-07
1.678e-07
1.786e-07
1.902e-07
2.02e-07
2.212e-07
1.868e-53
-1.816e-52
1.444e-51
-1.116e-50
8.349e-50
-6.05e-49
4.254e-48
-2.912e-47
1.947e-46
-1.275e-45
8.222e-45
-5.232e-44
3.297e-43
-2.063e-42
1.285e-41
-7.976e-41
4.943e-40
-3.061e-39
1.896e-38
-1.176e-37
7.302e-37
-4.546e-36
2.839e-35
-1.78e-34
1.122e-33
-7.074e-33
4.44e-32
-2.775e-31
1.727e-30
-1.07e-29
6.6e-29
-4.051e-28
2.473e-27
-1.501e-26
9.06e-26
-5.433e-25
3.235e-24
-1.912e-23
1.123e-22
-6.444e-22
4.01e-21
-1.678e-20
5.552e-19
1.242e-17
1.641e-16
1.931e-15
2.106e-14
2.122e-13
1.962e-12
1.652e-11
1.256e-10
8.562e-10
5.191e-09
2.78e-08
1.306e-07
5.354e-07
1.906e-06
5.869e-06
1.557e-05
3.553e-05
6.971e-05
0.0001179
0.0001735
0.000224
0.0002617
0.0002756
0.000267
0.0002452
0.0002135
0.0001775
0.0001418
0.0001095
8.225e-05
6.039e-05
4.357e-05
3.103e-05
2.192e-05
1.543e-05
1.088e-05
7.7e-06
5.496e-06
3.967e-06
2.903e-06
2.157e-06
1.629e-06
1.253e-06
9.816e-07
7.834e-07
6.369e-07
5.274e-07
4.447e-07
3.815e-07
3.329e-07
2.951e-07
2.657e-07
2.427e-07
2.247e-07
2.107e-07
1.999e-07
1.919e-07
1.86e-07
1.82e-07
1.796e-07
1.788e-07
1.794e-07
1.81e-07
1.838e-07
1.876e-07
1.925e-07
1.985e-07
2.054e-07
2.134e-07
2.224e-07
2.325e-07
2.437e-07
2.56e-07
2.695e-07
2.842e-07
3.001e-07
3.174e-07
3.36e-07
3.56e-07
3.775e-07
4.005e-07
4.25e-07
4.513e-07
4.778e-07
5.211e-07
-3.928e-53
3.837e-52
-3.062e-51
2.373e-50
-1.779e-49
1.29e-48
-9.06e-48
6.171e-47
-4.085e-46
2.635e-45
-1.661e-44
1.027e-43
-6.251e-43
3.761e-42
-2.248e-41
1.341e-40
-8.021e-40
4.833e-39
-2.943e-38
1.817e-37
-1.138e-36
7.226e-36
-4.651e-35
3.026e-34
-1.989e-33
1.302e-32
-8.431e-32
5.411e-31
-3.444e-30
2.176e-29
-1.365e-28
8.511e-28
-5.275e-27
3.25e-26
-1.992e-25
1.215e-24
-7.374e-24
4.457e-23
-2.665e-22
1.669e-21
-6.214e-21
2.126e-19
5.156e-18
7.396e-17
9.557e-16
1.152e-14
1.29e-13
1.332e-12
1.258e-11
1.077e-10
8.294e-10
5.688e-09
3.445e-08
1.827e-07
8.424e-07
3.354e-06
1.148e-05
3.363e-05
8.401e-05
0.0001794
0.0003273
0.0005157
0.0007074
0.0008592
0.0009536
0.0009386
0.0008802
0.0007823
0.0006625
0.0005383
0.0004221
0.0003209
0.0002378
0.0001724
0.0001229
8.657e-05
6.051e-05
4.217e-05
2.944e-05
2.066e-05
1.463e-05
1.049e-05
7.63e-06
5.64e-06
4.243e-06
3.251e-06
2.539e-06
2.021e-06
1.639e-06
1.355e-06
1.141e-06
9.772e-07
8.514e-07
7.539e-07
6.778e-07
6.182e-07
5.715e-07
5.351e-07
5.069e-07
4.855e-07
4.698e-07
4.587e-07
4.52e-07
4.482e-07
4.49e-07
4.521e-07
4.579e-07
4.662e-07
4.771e-07
4.905e-07
5.062e-07
5.244e-07
5.451e-07
5.682e-07
5.938e-07
6.219e-07
6.528e-07
6.863e-07
7.227e-07
7.621e-07
8.044e-07
8.498e-07
8.985e-07
9.505e-07
1.006e-06
1.065e-06
1.124e-06
1.221e-06
1.252e-52
-1.154e-51
8.899e-51
-6.853e-50
5.226e-49
-3.935e-48
2.919e-47
-2.129e-46
1.525e-45
-1.073e-44
7.405e-44
-5.022e-43
3.348e-42
-2.197e-41
1.421e-40
-9.065e-40
5.717e-39
-3.568e-38
2.206e-37
-1.353e-36
8.241e-36
-4.989e-35
3.004e-34
-1.8e-33
1.074e-32
-6.377e-32
3.768e-31
-2.217e-30
1.3e-29
-7.605e-29
4.437e-28
-2.583e-27
1.502e-26
-8.725e-26
5.066e-25
-2.941e-24
1.709e-23
-9.909e-23
5.929e-22
-2.661e-21
4.914e-20
1.622e-18
2.584e-17
3.655e-16
4.837e-15
5.977e-14
6.848e-13
7.213e-12
6.925e-11
6.002e-10
4.648e-09
3.184e-08
1.909e-07
9.92e-07
4.427e-06
1.685e-05
5.442e-05
0.0001485
0.0003425
0.0006722
0.001126
0.001655
0.002116
0.002441
0.002507
0.00242
0.002218
0.001939
0.001625
0.001314
0.001028
0.0007818
0.0005795
0.0004203
0.0002996
0.0002109
0.0001472
0.0001025
7.141e-05
5.005e-05
3.542e-05
2.538e-05
1.846e-05
1.365e-05
1.028e-05
7.885e-06
6.168e-06
4.918e-06
3.997e-06
3.31e-06
2.792e-06
2.396e-06
2.091e-06
1.854e-06
1.669e-06
1.523e-06
1.409e-06
1.32e-06
1.251e-06
1.198e-06
1.159e-06
1.131e-06
1.114e-06
1.103e-06
1.104e-06
1.11e-06
1.122e-06
1.141e-06
1.166e-06
1.196e-06
1.232e-06
1.273e-06
1.321e-06
1.373e-06
1.432e-06
1.496e-06
1.567e-06
1.643e-06
1.726e-06
1.815e-06
1.911e-06
2.013e-06
2.123e-06
2.239e-06
2.362e-06
2.494e-06
2.626e-06
2.84e-06
2.322e-52
-2.281e-51
1.841e-50
-1.454e-49
1.117e-48
-8.345e-48
6.066e-47
-4.295e-46
2.965e-45
-2e-44
1.321e-43
-8.565e-43
5.466e-42
-3.442e-41
2.145e-40
-1.327e-39
8.161e-39
-5.004e-38
3.064e-37
-1.877e-36
1.152e-35
-7.085e-35
4.371e-34
-2.706e-33
1.682e-32
-1.045e-31
6.459e-31
-3.973e-30
2.434e-29
-1.487e-28
9.069e-28
-5.522e-27
3.361e-26
-2.047e-25
1.248e-24
-7.621e-24
4.67e-23
-2.857e-22
1.848e-21
-6.946e-21
2.539e-19
6.833e-18
1.088e-16
1.57e-15
2.125e-14
2.682e-13
3.131e-12
3.351e-11
3.256e-10
2.841e-09
2.2e-08
1.494e-07
8.788e-07
4.422e-06
1.883e-05
6.73e-05
0.000201
0.0005003
0.001046
0.001859
0.002855
0.003975
0.00482
0.005096
0.005013
0.004764
0.004346
0.003798
0.003201
0.002618
0.002077
0.001601
0.001202
0.0008822
0.0006353
0.0004511
0.0003173
0.0002222
0.0001558
0.0001098
7.814e-05
5.63e-05
4.118e-05
3.064e-05
2.321e-05
1.792e-05
1.41e-05
1.131e-05
9.244e-06
7.698e-06
6.526e-06
5.628e-06
4.933e-06
4.392e-06
3.968e-06
3.634e-06
3.372e-06
3.166e-06
3.006e-06
2.883e-06
2.792e-06
2.728e-06
2.687e-06
2.661e-06
2.664e-06
2.678e-06
2.707e-06
2.75e-06
2.806e-06
2.876e-06
2.959e-06
3.054e-06
3.162e-06
3.283e-06
3.416e-06
3.563e-06
3.722e-06
3.895e-06
4.081e-06
4.282e-06
4.496e-06
4.724e-06
4.967e-06
5.225e-06
5.496e-06
5.785e-06
6.071e-06
6.535e-06
-5.404e-52
4.968e-51
-3.822e-50
2.939e-49
-2.239e-48
1.686e-47
-1.251e-46
9.137e-46
-6.558e-45
4.623e-44
-3.2e-43
2.175e-42
-1.453e-41
9.542e-41
-6.168e-40
3.927e-39
-2.466e-38
1.529e-37
-9.368e-37
5.681e-36
-3.413e-35
2.034e-34
-1.203e-33
7.075e-33
-4.139e-32
2.406e-31
-1.394e-30
8.062e-30
-4.656e-29
2.689e-28
-1.554e-27
8.995e-27
-5.222e-26
3.043e-25
-1.782e-24
1.05e-23
-6.214e-23
3.81e-22
-1.727e-21
4.226e-20
1.467e-18
2.552e-17
3.988e-16
5.863e-15
8.086e-14
1.039e-12
1.231e-11
1.334e-10
1.307e-09
1.142e-08
8.8e-08
5.885e-07
3.367e-06
1.623e-05
6.503e-05
0.0002148
0.0005815
0.001297
0.002434
0.003893
0.00564
0.007601
0.01006
0.01033
0.01025
0.009603
0.007522
0.00619
0.005269
0.00442
0.003588
0.002826
0.002165
0.001619
0.001186
0.0008556
0.0006105
0.0004333
0.0003075
0.0002193
0.0001579
0.000115
8.509e-05
6.4e-05
4.901e-05
3.824e-05
3.04e-05
2.463e-05
2.032e-05
1.707e-05
1.46e-05
1.269e-05