/*--------------------------------*- C++ -*----------------------------------*\
  =========                 |
  \\      /  F ield         | OpenFOAM: The Open Source CFD Toolbox
   \\    /   O peration     | Website:  https://openfoam.org
    \\  /    A nd           | Version:  7
     \\/     M anipulation  |
\*---------------------------------------------------------------------------*/
FoamFile
{
    version     2.0;
    format      ascii;
    class       volScalarField;
    location    "899.999473410711744";
    object      p;
}
// * * * * * * * * * * * * * * * * * * * * * * * * * * * * * * * * * * * * * //

dimensions      [0 2 -2 0 0 0 0];

internalField   nonuniform List<scalar> 
4096
(
0.0006336
0.0004627
0.0003785
0.0003363
0.000313
0.0002991
0.0002902
0.0002841
0.0002797
0.0002764
0.0002739
0.0002719
0.0002702
0.0002689
0.0002677
0.0002667
0.0002658
0.000265
0.0002643
0.0002637
0.0002631
0.0002625
0.0002619
0.0002614
0.0002609
0.0002604
0.0002599
0.0002594
0.0002589
0.0002584
0.0002579
0.0002574
0.0002568
0.0002562
0.0002556
0.0002549
0.0002541
0.0002533
0.0002524
0.0002514
0.0002502
0.000249
0.0002475
0.0002459
0.000244
0.0002419
0.0002395
0.0002369
0.0002339
0.0002305
0.0002267
0.0002226
0.000218
0.000213
0.0002075
0.0002016
0.0001952
0.0001884
0.0001813
0.0001737
0.0001659
0.0001578
0.0001496
0.0001413
0.0001329
0.0001246
0.0001164
0.0001084
0.0001007
9.323e-05
8.613e-05
7.941e-05
7.309e-05
6.718e-05
6.169e-05
5.662e-05
5.196e-05
4.771e-05
4.384e-05
4.035e-05
3.72e-05
3.437e-05
3.184e-05
2.959e-05
2.758e-05
2.579e-05
2.421e-05
2.28e-05
2.154e-05
2.042e-05
1.941e-05
1.85e-05
1.768e-05
1.693e-05
1.624e-05
1.559e-05
1.499e-05
1.443e-05
1.388e-05
1.336e-05
1.286e-05
1.237e-05
1.189e-05
1.142e-05
1.095e-05
1.049e-05
1.002e-05
9.559e-06
9.095e-06
8.63e-06
8.163e-06
7.695e-06
7.223e-06
6.749e-06
6.271e-06
5.79e-06
5.306e-06
4.818e-06
4.326e-06
3.831e-06
3.333e-06
2.833e-06
2.331e-06
1.83e-06
1.334e-06
8.493e-07
3.931e-07
5.596e-08
0.0004891
0.0004254
0.0003756
0.0003436
0.0003226
0.0003084
0.0002983
0.000291
0.0002855
0.0002813
0.000278
0.0002753
0.0002731
0.0002713
0.0002698
0.0002685
0.0002673
0.0002663
0.0002653
0.0002645
0.0002637
0.000263
0.0002623
0.0002616
0.000261
0.0002604
0.0002597
0.0002591
0.0002585
0.0002579
0.0002572
0.0002566
0.0002559
0.0002551
0.0002544
0.0002535
0.0002526
0.0002517
0.0002506
0.0002494
0.0002481
0.0002467
0.0002451
0.0002433
0.0002413
0.000239
0.0002366
0.0002338
0.0002307
0.0002273
0.0002235
0.0002193
0.0002148
0.0002098
0.0002045
0.0001987
0.0001926
0.000186
0.0001791
0.0001719
0.0001645
0.0001568
0.0001489
0.000141
0.0001331
0.0001252
0.0001174
0.0001098
0.0001024
9.525e-05
8.843e-05
8.195e-05
7.583e-05
7.008e-05
6.471e-05
5.973e-05
5.512e-05
5.088e-05
4.7e-05
4.346e-05
4.025e-05
3.734e-05
3.471e-05
3.234e-05
3.022e-05
2.83e-05
2.658e-05
2.503e-05
2.364e-05
2.238e-05
2.124e-05
2.02e-05
1.925e-05
1.838e-05
1.757e-05
1.682e-05
1.612e-05
1.545e-05
1.482e-05
1.422e-05
1.364e-05
1.307e-05
1.253e-05
1.199e-05
1.147e-05
1.095e-05
1.044e-05
9.934e-06
9.432e-06
8.932e-06
8.433e-06
7.936e-06
7.438e-06
6.941e-06
6.443e-06
5.944e-06
5.444e-06
4.942e-06
4.439e-06
3.935e-06
3.429e-06
2.923e-06
2.418e-06
1.914e-06
1.416e-06
9.283e-07
4.587e-07
8.313e-08
0.0004057
0.000384
0.0003585
0.0003378
0.0003223
0.0003106
0.0003016
0.0002946
0.000289
0.0002845
0.0002809
0.0002779
0.0002754
0.0002733
0.0002715
0.0002699
0.0002686
0.0002673
0.0002662
0.0002652
0.0002643
0.0002634
0.0002626
0.0002618
0.000261
0.0002603
0.0002595
0.0002588
0.0002581
0.0002573
0.0002566
0.0002558
0.000255
0.0002541
0.0002532
0.0002522
0.0002512
0.0002501
0.0002489
0.0002476
0.0002461
0.0002446
0.0002428
0.0002409
0.0002388
0.0002364
0.0002338
0.000231
0.0002278
0.0002244
0.0002206
0.0002164
0.0002119
0.0002071
0.0002018
0.0001962
0.0001902
0.0001839
0.0001773
0.0001704
0.0001632
0.0001559
0.0001484
0.0001408
0.0001332
0.0001257
0.0001182
0.0001109
0.0001038
9.699e-05
9.043e-05
8.417e-05
7.823e-05
7.264e-05
6.739e-05
6.249e-05
5.794e-05
5.372e-05
4.984e-05
4.628e-05
4.303e-05
4.005e-05
3.735e-05
3.489e-05
3.266e-05
3.064e-05
2.88e-05
2.714e-05
2.562e-05
2.425e-05
2.298e-05
2.183e-05
2.077e-05
1.978e-05
1.887e-05
1.802e-05
1.722e-05
1.646e-05
1.574e-05
1.506e-05
1.44e-05
1.377e-05
1.316e-05
1.257e-05
1.199e-05
1.142e-05
1.086e-05
1.031e-05
9.774e-06
9.239e-06
8.708e-06
8.182e-06
7.659e-06
7.139e-06
6.62e-06
6.103e-06
5.586e-06
5.071e-06
4.555e-06
4.041e-06
3.526e-06
3.013e-06
2.5e-06
1.99e-06
1.484e-06
9.84e-07
4.932e-07
8.745e-08
0.0003609
0.0003538
0.0003405
0.0003274
0.0003165
0.0003077
0.0003006
0.0002947
0.0002898
0.0002857
0.0002822
0.0002793
0.0002767
0.0002745
0.0002726
0.000271
0.0002695
0.0002681
0.0002669
0.0002658
0.0002647
0.0002637
0.0002628
0.0002619
0.000261
0.0002602
0.0002594
0.0002585
0.0002577
0.0002568
0.000256
0.0002551
0.0002542
0.0002532
0.0002522
0.0002511
0.00025
0.0002487
0.0002474
0.000246
0.0002444
0.0002428
0.0002409
0.0002389
0.0002367
0.0002343
0.0002316
0.0002287
0.0002255
0.000222
0.0002182
0.0002141
0.0002097
0.0002049
0.0001997
0.0001942
0.0001884
0.0001823
0.0001759
0.0001692
0.0001622
0.0001551
0.0001479
0.0001406
0.0001333
0.000126
0.0001188
0.0001118
0.0001049
9.833e-05
9.197e-05
8.589e-05
8.011e-05
7.465e-05
6.95e-05
6.468e-05
6.019e-05
5.601e-05
5.215e-05
4.858e-05
4.53e-05
4.229e-05
3.954e-05
3.702e-05
3.471e-05
3.261e-05
3.069e-05
2.894e-05
2.733e-05
2.586e-05
2.45e-05
2.325e-05
2.209e-05
2.102e-05
2.002e-05
1.908e-05
1.82e-05
1.737e-05
1.657e-05
1.582e-05
1.51e-05
1.441e-05
1.374e-05
1.309e-05
1.246e-05
1.185e-05
1.125e-05
1.067e-05
1.009e-05
9.525e-06
8.966e-06
8.413e-06
7.867e-06
7.325e-06
6.787e-06
6.253e-06
5.721e-06
5.192e-06
4.665e-06
4.139e-06
3.615e-06
3.093e-06
2.571e-06
2.052e-06
1.534e-06
1.02e-06
5.089e-07
8.391e-08
0.000334
0.000333
0.0003261
0.0003175
0.0003097
0.0003031
0.0002976
0.0002929
0.0002889
0.0002854
0.0002823
0.0002796
0.0002772
0.0002751
0.0002732
0.0002715
0.00027
0.0002686
0.0002673
0.0002661
0.000265
0.0002639
0.0002629
0.0002619
0.000261
0.0002601
0.0002592
0.0002582
0.0002573
0.0002564
0.0002554
0.0002545
0.0002535
0.0002524
0.0002513
0.0002501
0.0002489
0.0002476
0.0002462
0.0002447
0.000243
0.0002413
0.0002393
0.0002373
0.000235
0.0002325
0.0002298
0.0002269
0.0002237
0.0002202
0.0002164
0.0002123
0.0002079
0.0002032
0.0001981
0.0001927
0.000187
0.000181
0.0001748
0.0001682
0.0001615
0.0001546
0.0001475
0.0001404
0.0001333
0.0001262
0.0001192
0.0001124
0.0001057
9.931e-05
9.311e-05
8.718e-05
8.153e-05
7.618e-05
7.113e-05
6.638e-05
6.194e-05
5.78e-05
5.396e-05
5.04e-05
4.711e-05
4.409e-05
4.13e-05
3.874e-05
3.639e-05
3.423e-05
3.225e-05
3.043e-05
2.876e-05
2.721e-05
2.578e-05
2.446e-05
2.323e-05
2.208e-05
2.101e-05
2e-05
1.905e-05
1.815e-05
1.73e-05
1.649e-05
1.571e-05
1.497e-05
1.425e-05
1.356e-05
1.289e-05
1.224e-05
1.16e-05
1.098e-05
1.038e-05
9.782e-06
9.198e-06
8.622e-06
8.055e-06
7.494e-06
6.939e-06
6.389e-06
5.844e-06
5.302e-06
4.764e-06
4.228e-06
3.694e-06
3.162e-06
2.632e-06
2.102e-06
1.574e-06
1.046e-06
5.185e-07
7.985e-08
0.0003166
0.0003182
0.0003148
0.0003092
0.0003035
0.0002984
0.0002941
0.0002903
0.000287
0.0002841
0.0002815
0.0002791
0.0002769
0.000275
0.0002732
0.0002716
0.0002701
0.0002687
0.0002674
0.0002662
0.0002651
0.000264
0.0002629
0.0002619
0.0002609
0.0002599
0.000259
0.000258
0.000257
0.000256
0.000255
0.0002539
0.0002529
0.0002517
0.0002506
0.0002493
0.000248
0.0002467
0.0002452
0.0002436
0.0002419
0.0002401
0.0002381
0.000236
0.0002337
0.0002312
0.0002284
0.0002255
0.0002223
0.0002188
0.000215
0.000211
0.0002066
0.0002019
0.0001969
0.0001916
0.000186
0.0001801
0.0001739
0.0001675
0.0001609
0.0001541
0.0001472
0.0001402
0.0001333
0.0001263
0.0001195
0.0001128
0.0001063
9.999e-05
9.392e-05
8.81e-05
8.256e-05
7.729e-05
7.232e-05
6.764e-05
6.324e-05
5.914e-05
5.532e-05
5.178e-05
4.85e-05
4.547e-05
4.267e-05
4.009e-05
3.771e-05
3.552e-05
3.35e-05
3.163e-05
2.991e-05
2.831e-05
2.683e-05
2.545e-05
2.416e-05
2.296e-05
2.183e-05
2.077e-05
1.977e-05
1.882e-05
1.792e-05
1.706e-05
1.624e-05
1.545e-05
1.469e-05
1.396e-05
1.325e-05
1.257e-05
1.19e-05
1.126e-05
1.062e-05
1.001e-05
9.399e-06
8.804e-06
8.218e-06
7.641e-06
7.071e-06
6.508e-06
5.951e-06
5.398e-06
4.85e-06
4.305e-06
3.762e-06
3.222e-06
2.683e-06
2.145e-06
1.606e-06
1.068e-06
5.262e-07
7.692e-08
0.0003047
0.0003072
0.0003059
0.0003023
0.0002981
0.0002941
0.0002906
0.0002875
0.0002848
0.0002824
0.0002802
0.0002781
0.0002763
0.0002745
0.0002729
0.0002714
0.00027
0.0002686
0.0002674
0.0002662
0.000265
0.0002639
0.0002629
0.0002618
0.0002608
0.0002598
0.0002588
0.0002577
0.0002567
0.0002557
0.0002546
0.0002535
0.0002524
0.0002512
0.00025
0.0002487
0.0002474
0.0002459
0.0002444
0.0002428
0.0002411
0.0002392
0.0002372
0.000235
0.0002327
0.0002302
0.0002274
0.0002245
0.0002213
0.0002178
0.0002141
0.00021
0.0002057
0.0002011
0.0001961
0.0001909
0.0001853
0.0001795
0.0001734
0.000167
0.0001605
0.0001538
0.000147
0.0001401
0.0001332
0.0001264
0.0001196
0.000113
0.0001066
0.0001004
9.442e-05
8.869e-05
8.322e-05
7.803e-05
7.311e-05
6.848e-05
6.413e-05
6.006e-05
5.627e-05
5.275e-05
4.948e-05
4.645e-05
4.366e-05
4.107e-05
3.868e-05
3.648e-05
3.443e-05
3.254e-05
3.079e-05
2.916e-05
2.764e-05
2.623e-05
2.49e-05
2.366e-05
2.249e-05
2.138e-05
2.034e-05
1.935e-05
1.841e-05
1.752e-05
1.666e-05
1.584e-05
1.505e-05
1.429e-05
1.355e-05
1.284e-05
1.215e-05
1.148e-05
1.083e-05
1.019e-05
9.565e-06
8.953e-06
8.353e-06
7.762e-06
7.18e-06
6.606e-06
6.039e-06
5.477e-06
4.921e-06
4.368e-06
3.818e-06
3.271e-06
2.725e-06
2.179e-06
1.633e-06
1.085e-06
5.336e-07
7.571e-08
0.0002961
0.0002988
0.0002987
0.0002965
0.0002935
0.0002904
0.0002875
0.0002849
0.0002826
0.0002806
0.0002787
0.0002769
0.0002753
0.0002737
0.0002723
0.0002709
0.0002696
0.0002683
0.0002671
0.000266
0.0002649
0.0002638
0.0002627
0.0002617
0.0002606
0.0002596
0.0002586
0.0002575
0.0002565
0.0002554
0.0002543
0.0002532
0.000252
0.0002508
0.0002496
0.0002483
0.0002469
0.0002454
0.0002439
0.0002422
0.0002405
0.0002386
0.0002366
0.0002344
0.0002321
0.0002295
0.0002268
0.0002239
0.0002207
0.0002172
0.0002135
0.0002095
0.0002052
0.0002006
0.0001957
0.0001905
0.0001849
0.0001791
0.0001731
0.0001668
0.0001602
0.0001536
0.0001468
0.0001399
0.0001331
0.0001263
0.0001196
0.0001131
0.0001067
0.0001006
9.464e-05
8.897e-05
8.355e-05
7.84e-05
7.353e-05
6.893e-05
6.462e-05
6.058e-05
5.682e-05
5.332e-05
5.007e-05
4.707e-05
4.428e-05
4.171e-05
3.932e-05
3.712e-05
3.507e-05
3.317e-05
3.141e-05
2.976e-05
2.822e-05
2.678e-05
2.543e-05
2.417e-05
2.297e-05
2.184e-05
2.077e-05
1.975e-05
1.878e-05
1.786e-05
1.698e-05
1.613e-05
1.532e-05
1.453e-05
1.378e-05
1.305e-05
1.234e-05
1.165e-05
1.098e-05
1.033e-05
9.692e-06
9.068e-06
8.456e-06
7.855e-06
7.264e-06
6.681e-06
6.106e-06
5.538e-06
4.975e-06
4.416e-06
3.861e-06
3.309e-06
2.758e-06
2.207e-06
1.655e-06
1.101e-06
5.414e-07
7.651e-08
0.0002896
0.0002923
0.0002929
0.0002917
0.0002895
0.0002871
0.0002847
0.0002825
0.0002806
0.0002788
0.0002772
0.0002756
0.0002742
0.0002728
0.0002715
0.0002703
0.0002691
0.0002679
0.0002668
0.0002657
0.0002646
0.0002636
0.0002625
0.0002615
0.0002605
0.0002594
0.0002584
0.0002574
0.0002563
0.0002552
0.0002541
0.000253
0.0002518
0.0002506
0.0002493
0.000248
0.0002466
0.0002451
0.0002435
0.0002419
0.0002401
0.0002383
0.0002362
0.0002341
0.0002317
0.0002292
0.0002265
0.0002236
0.0002204
0.000217
0.0002133
0.0002093
0.000205
0.0002005
0.0001955
0.0001903
0.0001848
0.000179
0.000173
0.0001666
0.0001601
0.0001534
0.0001466
0.0001398
0.0001329
0.0001261
0.0001194
0.0001129
0.0001066
0.0001005
9.46e-05
8.895e-05
8.355e-05
7.843e-05
7.358e-05
6.901e-05
6.472e-05
6.071e-05
5.698e-05
5.351e-05
5.029e-05
4.731e-05
4.456e-05
4.2e-05
3.964e-05
3.745e-05
3.542e-05
3.352e-05
3.176e-05
3.012e-05
2.857e-05
2.713e-05
2.577e-05
2.449e-05
2.328e-05
2.214e-05
2.105e-05
2.002e-05
1.903e-05
1.809e-05
1.719e-05
1.633e-05
1.55e-05
1.47e-05
1.393e-05
1.319e-05
1.247e-05
1.177e-05
1.109e-05
1.042e-05
9.776e-06
9.144e-06
8.524e-06
7.917e-06
7.319e-06
6.731e-06
6.152e-06
5.579e-06
5.012e-06
4.45e-06
3.891e-06
3.336e-06
2.782e-06
2.228e-06
1.673e-06
1.114e-06
5.501e-07
7.952e-08
0.0002846
0.0002871
0.0002881
0.0002875
0.000286
0.0002842
0.0002822
0.0002804
0.0002787
0.0002771
0.0002757
0.0002744
0.0002731
0.0002719
0.0002707
0.0002696
0.0002685
0.0002674
0.0002664
0.0002654
0.0002643
0.0002633
0.0002623
0.0002613
0.0002603
0.0002593
0.0002583
0.0002572
0.0002562
0.0002551
0.000254
0.0002528
0.0002517
0.0002505
0.0002492
0.0002478
0.0002465
0.000245
0.0002434
0.0002418
0.0002401
0.0002382
0.0002362
0.0002341
0.0002318
0.0002293
0.0002266
0.0002237
0.0002206
0.0002172
0.0002135
0.0002095
0.0002053
0.0002007
0.0001958
0.0001905
0.000185
0.0001792
0.0001731
0.0001667
0.0001601
0.0001534
0.0001465
0.0001396
0.0001327
0.0001259
0.0001192
0.0001126
0.0001063
0.0001002
9.427e-05
8.862e-05
8.323e-05
7.811e-05
7.326e-05
6.87e-05
6.444e-05
6.045e-05
5.675e-05
5.332e-05
5.014e-05
4.72e-05
4.448e-05
4.197e-05
3.964e-05
3.748e-05
3.548e-05
3.361e-05
3.186e-05
3.023e-05
2.87e-05
2.727e-05
2.591e-05
2.463e-05
2.342e-05
2.227e-05
2.118e-05
2.014e-05
1.915e-05
1.821e-05
1.73e-05
1.643e-05
1.559e-05
1.479e-05
1.401e-05
1.326e-05
1.253e-05
1.182e-05
1.114e-05
1.047e-05
9.817e-06
9.18e-06
8.557e-06
7.946e-06
7.346e-06
6.756e-06
6.173e-06
5.599e-06
5.03e-06
4.467e-06
3.908e-06
3.351e-06
2.797e-06
2.242e-06
1.686e-06
1.126e-06
5.599e-07
8.489e-08
0.0002805
0.0002829
0.000284
0.0002839
0.000283
0.0002816
0.00028
0.0002785
0.000277
0.0002756
0.0002744
0.0002732
0.000272
0.000271
0.0002699
0.0002689
0.0002679
0.0002669
0.0002659
0.000265
0.000264
0.0002631
0.0002621
0.0002611
0.0002601
0.0002592
0.0002582
0.0002571
0.0002561
0.000255
0.000254
0.0002528
0.0002517
0.0002505
0.0002492
0.0002479
0.0002465
0.0002451
0.0002435
0.0002419
0.0002402
0.0002384
0.0002364
0.0002343
0.0002321
0.0002297
0.000227
0.0002242
0.0002211
0.0002177
0.0002141
0.0002101
0.0002059
0.0002013
0.0001964
0.0001911
0.0001855
0.0001796
0.0001734
0.000167
0.0001603
0.0001535
0.0001465
0.0001394
0.0001324
0.0001255
0.0001187
0.0001121
0.0001058
9.96e-05
9.367e-05
8.798e-05
8.256e-05
7.742e-05
7.256e-05
6.801e-05
6.376e-05
5.98e-05
5.613e-05
5.274e-05
4.961e-05
4.673e-05
4.407e-05
4.161e-05
3.933e-05
3.722e-05
3.526e-05
3.343e-05
3.172e-05
3.012e-05
2.861e-05
2.72e-05
2.586e-05
2.46e-05
2.34e-05
2.226e-05
2.117e-05
2.014e-05
1.915e-05
1.821e-05
1.73e-05
1.643e-05
1.559e-05
1.479e-05
1.401e-05
1.326e-05
1.253e-05
1.182e-05
1.114e-05
1.047e-05
9.814e-06
9.177e-06
8.554e-06
7.943e-06
7.343e-06
6.753e-06
6.172e-06
5.598e-06
5.031e-06
4.469e-06
3.911e-06
3.356e-06
2.803e-06
2.25e-06
1.695e-06
1.136e-06
5.71e-07
9.271e-08
0.0002772
0.0002794
0.0002807
0.0002809
0.0002803
0.0002793
0.0002781
0.0002768
0.0002755
0.0002743
0.0002732
0.0002721
0.0002711
0.0002701
0.0002691
0.0002682
0.0002673
0.0002664
0.0002655
0.0002646
0.0002637
0.0002628
0.0002619
0.000261
0.00026
0.0002591
0.0002581
0.0002571
0.0002561
0.0002551
0.000254
0.0002529
0.0002518
0.0002506
0.0002494
0.0002481
0.0002467
0.0002453
0.0002439
0.0002423
0.0002406
0.0002388
0.0002369
0.0002349
0.0002327
0.0002304
0.0002278
0.000225
0.000222
0.0002187
0.0002151
0.0002112
0.0002069
0.0002023
0.0001973
0.000192
0.0001864
0.0001804
0.0001741
0.0001675
0.0001607
0.0001537
0.0001465
0.0001393
0.0001321
0.0001251
0.0001182
0.0001115
0.000105
9.875e-05
9.274e-05
8.699e-05
8.151e-05
7.633e-05
7.145e-05
6.69e-05
6.266e-05
5.873e-05
5.511e-05
5.178e-05
4.871e-05
4.59e-05
4.331e-05
4.092e-05
3.871e-05
3.667e-05
3.477e-05
3.3e-05
3.134e-05
2.978e-05
2.832e-05
2.693e-05
2.563e-05
2.439e-05
2.321e-05
2.209e-05
2.102e-05
2e-05
1.903e-05
1.81e-05
1.72e-05
1.634e-05
1.551e-05
1.471e-05
1.394e-05
1.319e-05
1.247e-05
1.176e-05
1.108e-05
1.042e-05
9.768e-06
9.135e-06
8.515e-06
7.908e-06
7.311e-06
6.725e-06
6.147e-06
5.577e-06
5.013e-06
4.455e-06
3.901e-06
3.35e-06
2.8e-06
2.251e-06
1.7e-06
1.145e-06
5.835e-07
1.03e-07
0.0002745
0.0002765
0.0002778
0.0002782
0.000278
0.0002773
0.0002763
0.0002753
0.0002742
0.0002731
0.0002721
0.0002711
0.0002702
0.0002693
0.0002684
0.0002676
0.0002667
0.0002659
0.0002651
0.0002642
0.0002634
0.0002625
0.0002617
0.0002608
0.0002599
0.000259
0.0002581
0.0002571
0.0002562
0.0002552
0.0002542
0.0002531
0.000252
0.0002509
0.0002497
0.0002484
0.0002471
0.0002458
0.0002444
0.0002428
0.0002412
0.0002395
0.0002377
0.0002358
0.0002337
0.0002314
0.0002289
0.0002262
0.0002233
0.00022
0.0002165
0.0002126
0.0002084
0.0002038
0.0001988
0.0001934
0.0001876
0.0001815
0.000175
0.0001683
0.0001613
0.000154
0.0001466
0.0001392
0.0001318
0.0001245
0.0001174
0.0001106
0.0001039
9.756e-05
9.144e-05
8.558e-05
8.003e-05
7.479e-05
6.989e-05
6.533e-05
6.111e-05
5.723e-05
5.367e-05
5.041e-05
4.743e-05
4.471e-05
4.221e-05
3.992e-05
3.78e-05
3.584e-05
3.402e-05
3.232e-05
3.072e-05
2.923e-05
2.782e-05
2.648e-05
2.522e-05
2.402e-05
2.287e-05
2.178e-05
2.074e-05
1.975e-05
1.879e-05
1.788e-05
1.7e-05
1.615e-05
1.534e-05
1.455e-05
1.379e-05
1.306e-05
1.234e-05
1.165e-05
1.098e-05
1.032e-05
9.679e-06
9.053e-06
8.441e-06
7.841e-06
7.251e-06
6.671e-06
6.099e-06
5.535e-06
4.978e-06
4.426e-06
3.877e-06
3.332e-06
2.789e-06
2.246e-06
1.701e-06
1.152e-06
5.974e-07
1.158e-07
0.0002722
0.000274
0.0002754
0.0002759
0.0002759
0.0002755
0.0002748
0.0002739
0.000273
0.000272
0.0002711
0.0002702
0.0002694
0.0002686
0.0002678
0.000267
0.0002662
0.0002655
0.0002647
0.0002639
0.0002631
0.0002623
0.0002615
0.0002607
0.0002599
0.000259
0.0002581
0.0002572
0.0002563
0.0002554
0.0002544
0.0002534
0.0002523
0.0002512
0.0002501
0.0002489
0.0002477
0.0002464
0.000245
0.0002436
0.0002421
0.0002405
0.0002388
0.0002369
0.0002349
0.0002328
0.0002304
0.0002278
0.000225
0.0002219
0.0002184
0.0002146
0.0002104
0.0002058
0.0002008
0.0001953
0.0001894
0.0001831
0.0001764
0.0001694
0.0001622
0.0001546
0.0001469
0.0001391
0.0001313
0.0001237
0.0001164
0.0001093
0.0001025
9.596e-05
8.967e-05
8.369e-05
7.804e-05
7.274e-05
6.781e-05
6.325e-05
5.907e-05
5.525e-05
5.178e-05
4.862e-05
4.576e-05
4.315e-05
4.077e-05
3.86e-05
3.659e-05
3.474e-05
3.301e-05
3.14e-05
2.989e-05
2.847e-05
2.713e-05
2.585e-05
2.464e-05
2.349e-05
2.239e-05
2.134e-05
2.034e-05
1.937e-05
1.845e-05
1.756e-05
1.671e-05
1.588e-05
1.509e-05
1.432e-05
1.358e-05
1.286e-05
1.216e-05
1.148e-05
1.082e-05
1.018e-05
9.55e-06
8.936e-06
8.334e-06
7.744e-06
7.164e-06
6.593e-06
6.03e-06
5.475e-06
4.926e-06
4.382e-06
3.842e-06
3.305e-06
2.77e-06
2.235e-06
1.698e-06
1.159e-06
6.127e-07
1.309e-07
0.0002702
0.000272
0.0002733
0.0002739
0.0002741
0.0002739
0.0002734
0.0002727
0.0002719
0.0002711
0.0002703
0.0002695
0.0002687
0.000268
0.0002672
0.0002665
0.0002658
0.0002651
0.0002644
0.0002637
0.0002629
0.0002622
0.0002614
0.0002607
0.0002599
0.0002591
0.0002583
0.0002574
0.0002565
0.0002556
0.0002547
0.0002538
0.0002528
0.0002517
0.0002507
0.0002496
0.0002484
0.0002472
0.0002459
0.0002446
0.0002431
0.0002416
0.00024
0.0002383
0.0002365
0.0002344
0.0002322
0.0002298
0.0002271
0.0002241
0.0002208
0.0002171
0.000213
0.0002084
0.0002034
0.0001979
0.0001918
0.0001853
0.0001784
0.0001711
0.0001635
0.0001555
0.0001473
0.000139
0.0001308
0.0001228
0.0001151
0.0001077
0.0001006
9.38e-05
8.732e-05
8.118e-05
7.543e-05
7.008e-05
6.514e-05
6.061e-05
5.65e-05
5.278e-05
4.942e-05
4.64e-05
4.369e-05
4.123e-05
3.901e-05
3.697e-05
3.511e-05
3.338e-05
3.177e-05
3.027e-05
2.886e-05
2.753e-05
2.626e-05
2.506e-05
2.391e-05
2.282e-05
2.178e-05
2.077e-05
1.981e-05
1.889e-05
1.8e-05
1.715e-05
1.633e-05
1.553e-05
1.477e-05
1.402e-05
1.33e-05
1.261e-05
1.193e-05
1.127e-05
1.062e-05
9.998e-06
9.384e-06
8.784e-06
8.196e-06
7.619e-06
7.051e-06
6.492e-06
5.941e-06
5.396e-06
4.858e-06
4.324e-06
3.795e-06
3.268e-06
2.743e-06
2.218e-06
1.693e-06
1.164e-06
6.293e-07
1.482e-07
0.0002686
0.0002702
0.0002715
0.0002722
0.0002725
0.0002724
0.0002721
0.0002716
0.0002709
0.0002703
0.0002695
0.0002688
0.0002681
0.0002674
0.0002668
0.0002661
0.0002654
0.0002648
0.0002641
0.0002635
0.0002628
0.0002621
0.0002614
0.0002607
0.0002599
0.0002592
0.0002584
0.0002576
0.0002568
0.000256
0.0002551
0.0002542
0.0002533
0.0002523
0.0002513
0.0002503
0.0002492
0.0002481
0.0002469
0.0002457
0.0002444
0.000243
0.0002415
0.00024
0.0002383
0.0002364
0.0002344
0.0002322
0.0002297
0.0002269
0.0002238
0.0002203
0.0002163
0.0002118
0.0002068
0.0002012
0.0001951
0.0001884
0.0001812
0.0001736
0.0001655
0.0001569
0.000148
0.000139
0.0001301
0.0001215
0.0001132
0.0001054
9.796e-05
9.089e-05
8.418e-05
7.79e-05
7.207e-05
6.67e-05
6.179e-05
5.735e-05
5.335e-05
4.977e-05
4.659e-05
4.375e-05
4.122e-05
3.896e-05
3.692e-05
3.506e-05
3.336e-05
3.178e-05
3.032e-05
2.894e-05
2.764e-05
2.641e-05
2.523e-05
2.412e-05
2.305e-05
2.202e-05
2.104e-05
2.009e-05
1.919e-05
1.831e-05
1.747e-05
1.666e-05
1.587e-05
1.511e-05
1.438e-05
1.366e-05
1.297e-05
1.23e-05
1.165e-05
1.101e-05
1.039e-05
9.779e-06
9.185e-06
8.602e-06
8.031e-06
7.469e-06
6.916e-06
6.371e-06
5.833e-06
5.302e-06
4.776e-06
4.255e-06
3.737e-06
3.222e-06
2.709e-06
2.197e-06
1.684e-06
1.168e-06
6.47e-07
1.675e-07
0.0002672
0.0002687
0.00027
0.0002707
0.0002711
0.0002712
0.000271
0.0002706
0.0002701
0.0002695
0.0002689
0.0002683
0.0002676
0.000267
0.0002664
0.0002658
0.0002651
0.0002645
0.0002639
0.0002633
0.0002627
0.000262
0.0002614
0.0002607
0.00026
0.0002594
0.0002586
0.0002579
0.0002572
0.0002564
0.0002556
0.0002548
0.0002539
0.000253
0.0002521
0.0002512
0.0002502
0.0002492
0.0002481
0.000247
0.0002458
0.0002446
0.0002433
0.0002419
0.0002403
0.0002387
0.0002369
0.0002349
0.0002327
0.0002302
0.0002273
0.000224
0.0002203
0.000216
0.0002111
0.0002056
0.0001995
0.0001927
0.0001853
0.0001772
0.0001686
0.0001593
0.0001493
0.0001392
0.0001292
0.0001195
0.0001104
0.0001021
9.426e-05
8.69e-05
8.001e-05
7.365e-05
6.782e-05
6.25e-05
5.77e-05
5.341e-05
4.959e-05
4.622e-05
4.327e-05
4.067e-05
3.838e-05
3.635e-05
3.453e-05
3.288e-05
3.137e-05
2.997e-05
2.866e-05
2.742e-05
2.625e-05
2.514e-05
2.407e-05
2.304e-05
2.206e-05
2.111e-05
2.02e-05
1.932e-05
1.847e-05
1.765e-05
1.686e-05
1.609e-05
1.535e-05
1.463e-05
1.393e-05
1.325e-05
1.259e-05
1.195e-05
1.132e-05
1.071e-05
1.011e-05
9.529e-06
8.956e-06
8.393e-06
7.841e-06
7.297e-06
6.761e-06
6.232e-06
5.71e-06
5.193e-06
4.682e-06
4.174e-06
3.67e-06
3.169e-06
2.67e-06
2.171e-06
1.672e-06
1.171e-06
6.658e-07
1.885e-07
0.000266
0.0002674
0.0002686
0.0002694
0.0002699
0.0002701
0.00027
0.0002697
0.0002693
0.0002688
0.0002683
0.0002678
0.0002672
0.0002666
0.000266
0.0002655
0.0002649
0.0002643
0.0002638
0.0002632
0.0002626
0.000262
0.0002614
0.0002608
0.0002602
0.0002596
0.0002589
0.0002582
0.0002576
0.0002568
0.0002561
0.0002554
0.0002546
0.0002538
0.000253
0.0002521
0.0002512
0.0002503
0.0002494
0.0002484
0.0002474
0.0002463
0.0002451
0.0002439
0.0002426
0.0002412
0.0002397
0.000238
0.0002361
0.0002339
0.0002313
0.0002284
0.000225
0.000221
0.0002164
0.0002112
0.0002052
0.0001985
0.000191
0.0001827
0.0001735
0.0001633
0.0001517
0.0001395
0.0001277
0.0001163
0.0001061
9.703e-05
8.893e-05
8.142e-05
7.449e-05
6.82e-05
6.251e-05
5.739e-05
5.281e-05
4.876e-05
4.522e-05
4.214e-05
3.948e-05
3.718e-05
3.519e-05
3.344e-05
3.188e-05
3.047e-05
2.918e-05
2.797e-05
2.684e-05
2.576e-05
2.473e-05
2.374e-05
2.278e-05
2.186e-05
2.097e-05
2.01e-05
1.927e-05
1.846e-05
1.767e-05
1.691e-05
1.618e-05
1.546e-05
1.476e-05
1.409e-05
1.343e-05
1.279e-05
1.217e-05
1.156e-05
1.096e-05
1.038e-05
9.811e-06
9.252e-06
8.702e-06
8.162e-06
7.63e-06
7.106e-06
6.589e-06
6.078e-06
5.573e-06
5.073e-06
4.577e-06
4.085e-06
3.596e-06
3.11e-06
2.625e-06
2.141e-06
1.658e-06
1.173e-06
6.853e-07
2.11e-07
0.000265
0.0002664
0.0002675
0.0002683
0.0002688
0.0002691
0.0002691
0.0002689
0.0002686
0.0002683
0.0002678
0.0002673
0.0002668
0.0002663
0.0002658
0.0002653
0.0002647
0.0002642
0.0002637
0.0002632
0.0002626
0.0002621
0.0002615
0.000261
0.0002604
0.0002598
0.0002592
0.0002586
0.000258
0.0002574
0.0002567
0.000256
0.0002553
0.0002546
0.0002539
0.0002532
0.0002524
0.0002516
0.0002508
0.0002499
0.000249
0.0002481
0.0002472
0.0002462
0.0002451
0.000244
0.0002427
0.0002414
0.0002398
0.000238
0.0002359
0.0002334
0.0002304
0.0002269
0.0002228
0.0002181
0.0002126
0.0002064
0.0001993
0.0001911
0.0001818
0.0001708
0.0001563
0.0001402
0.0001247
0.0001104
9.858e-05
8.925e-05
8.116e-05
7.389e-05
6.728e-05
6.137e-05
5.607e-05
5.132e-05
4.711e-05
4.343e-05
4.026e-05
3.756e-05
3.528e-05
3.335e-05
3.17e-05
3.027e-05
2.901e-05
2.787e-05
2.682e-05
2.583e-05
2.488e-05
2.397e-05
2.309e-05
2.224e-05
2.14e-05
2.059e-05
1.979e-05
1.902e-05
1.827e-05
1.753e-05
1.682e-05
1.612e-05
1.544e-05
1.478e-05
1.414e-05
1.351e-05
1.29e-05
1.23e-05
1.171e-05
1.114e-05
1.058e-05
1.003e-05
9.485e-06
8.953e-06
8.429e-06
7.913e-06
7.404e-06
6.901e-06
6.404e-06
5.912e-06
5.425e-06
4.943e-06
4.464e-06
3.988e-06
3.515e-06
3.045e-06
2.576e-06
2.109e-06
1.642e-06
1.174e-06
7.054e-07
2.346e-07
0.0002641
0.0002654
0.0002665
0.0002674
0.0002679
0.0002682
0.0002683
0.0002682
0.000268
0.0002677
0.0002674
0.000267
0.0002665
0.000266
0.0002656
0.0002651
0.0002646
0.0002641
0.0002636
0.0002632
0.0002627
0.0002622
0.0002617
0.0002612
0.0002607
0.0002601
0.0002596
0.000259
0.0002585
0.0002579
0.0002573
0.0002568
0.0002561
0.0002555
0.0002549
0.0002542
0.0002536
0.0002529
0.0002522
0.0002515
0.0002508
0.00025
0.0002493
0.0002485
0.0002477
0.0002468
0.0002459
0.0002449
0.0002438
0.0002424
0.0002408
0.0002388
0.0002365
0.0002336
0.0002302
0.0002262
0.0002216
0.0002165
0.0002107
0.0002036
0.0001948
0.0001833
0.0001646
0.0001408
0.0001195
0.0001008
8.716e-05
7.772e-05
7.018e-05
6.386e-05
5.809e-05
5.304e-05
4.853e-05
4.439e-05
4.07e-05
3.752e-05
3.482e-05
3.257e-05
3.073e-05
2.923e-05
2.798e-05
2.692e-05
2.599e-05
2.514e-05
2.435e-05
2.358e-05
2.284e-05
2.21e-05
2.138e-05
2.066e-05
1.995e-05
1.925e-05
1.856e-05
1.788e-05
1.721e-05
1.656e-05
1.592e-05
1.529e-05
1.467e-05
1.407e-05
1.348e-05
1.29e-05
1.233e-05
1.178e-05
1.123e-05
1.07e-05
1.017e-05
9.653e-06
9.142e-06
8.639e-06
8.142e-06
7.651e-06
7.166e-06
6.686e-06
6.21e-06
5.738e-06
5.27e-06
4.806e-06
4.345e-06
3.886e-06
3.43e-06
2.977e-06
2.525e-06
2.074e-06
1.624e-06
1.175e-06
7.258e-07
2.588e-07
0.0002634
0.0002646
0.0002657
0.0002665
0.0002671
0.0002675
0.0002676
0.0002676
0.0002675
0.0002673
0.000267
0.0002666
0.0002662
0.0002658
0.0002654
0.000265
0.0002645
0.0002641
0.0002636
0.0002632
0.0002628
0.0002623
0.0002618
0.0002614
0.0002609
0.0002605
0.00026
0.0002595
0.000259
0.0002585
0.000258
0.0002575
0.000257
0.0002564
0.0002559
0.0002553
0.0002548
0.0002542
0.0002537
0.0002531
0.0002525
0.000252
0.0002514
0.0002509
0.0002503
0.0002498
0.0002492
0.0002486
0.0002478
0.000247
0.0002459
0.0002446
0.0002428
0.0002407
0.0002381
0.0002351
0.0002318
0.0002286
0.0002241
0.0002181
0.0002142
0.0002065
0.0001643
0.0001342
0.0001257
9.259e-05
6.639e-05
6.203e-05
5.862e-05
5.297e-05
4.699e-05
4.345e-05
4.012e-05
3.682e-05
3.381e-05
3.121e-05
2.905e-05
2.732e-05
2.598e-05
2.494e-05
2.413e-05
2.347e-05
2.288e-05
2.234e-05
2.181e-05
2.128e-05
2.074e-05
2.019e-05
1.962e-05
1.905e-05
1.847e-05
1.788e-05
1.729e-05
1.671e-05
1.613e-05
1.556e-05
1.499e-05
1.443e-05
1.388e-05
1.333e-05
1.28e-05
1.227e-05
1.175e-05
1.124e-05
1.074e-05
1.024e-05
9.753e-06
9.268e-06
8.79e-06
8.316e-06
7.847e-06
7.382e-06
6.921e-06
6.464e-06
6.01e-06
5.559e-06
5.111e-06
4.665e-06
4.222e-06
3.781e-06
3.343e-06
2.906e-06
2.471e-06
2.038e-06
1.606e-06
1.176e-06
7.463e-07
2.834e-07
0.0002628
0.000264
0.000265
0.0002658
0.0002664
0.0002668
0.0002671
0.0002671
0.0002671
0.0002669
0.0002667
0.0002664
0.000266
0.0002657
0.0002653
0.0002649
0.0002645
0.0002641
0.0002637
0.0002633
0.0002629
0.0002625
0.000262
0.0002616
0.0002612
0.0002608
0.0002604
0.00026
0.0002595
0.0002591
0.0002587
0.0002582
0.0002578
0.0002574
0.0002569
0.0002565
0.000256
0.0002556
0.0002552
0.0002547
0.0002543
0.0002539
0.0002536
0.0002532
0.0002529
0.0002527
0.0002524
0.0002522
0.0002519
0.0002515
0.000251
0.0002503
0.0002492
0.0002477
0.0002459
0.0002438
0.0002418
0.0002393
0.000239
0.0002246
0.0001668
0.0001698
0.0001398
0.0001274
0.0001366
0.0001163
0.0001021
0.0001052
5.936e-05
3.946e-05
3.631e-05
3.415e-05
3.146e-05
2.91e-05
2.678e-05
2.479e-05
2.318e-05
2.198e-05
2.116e-05
2.062e-05
2.027e-05
2.001e-05
1.978e-05
1.955e-05
1.929e-05
1.899e-05
1.865e-05
1.827e-05
1.786e-05
1.743e-05
1.697e-05
1.65e-05
1.602e-05
1.553e-05
1.504e-05
1.454e-05
1.405e-05
1.356e-05
1.307e-05
1.259e-05
1.211e-05
1.164e-05
1.117e-05
1.07e-05
1.024e-05
9.784e-06
9.331e-06
8.881e-06
8.434e-06
7.99e-06
7.549e-06
7.111e-06
6.675e-06
6.241e-06
5.809e-06
5.378e-06
4.95e-06
4.524e-06
4.099e-06
3.675e-06
3.254e-06
2.834e-06
2.417e-06
2.001e-06
1.587e-06
1.176e-06
7.664e-07
3.078e-07
0.0002623
0.0002634
0.0002644
0.0002652
0.0002658
0.0002663
0.0002665
0.0002667
0.0002667
0.0002666
0.0002664
0.0002661
0.0002659
0.0002655
0.0002652
0.0002649
0.0002645
0.0002641
0.0002637
0.0002634
0.000263
0.0002626
0.0002623
0.0002619
0.0002615
0.0002612
0.0002608
0.0002604
0.0002601
0.0002597
0.0002594
0.000259
0.0002586
0.0002583
0.0002579
0.0002576
0.0002572
0.0002569
0.0002566
0.0002563
0.0002561
0.0002558
0.0002556
0.0002555
0.0002554
0.0002554
0.0002555
0.0002556
0.0002558
0.0002559
0.0002559
0.0002557
0.0002551
0.0002541
0.0002528
0.0002511
0.0002496
0.0002459
0.0002221
0.0001806
0.000119
7.341e-05
-1.745e-05
0.000102
0.0001863
0.0002492
0.0001595
0.0001428
9.806e-05
7.582e-05
3.366e-05
2.523e-05
2.454e-05
2.181e-05
2.006e-05
1.859e-05
1.745e-05
1.675e-05
1.644e-05
1.64e-05
1.65e-05
1.664e-05
1.677e-05
1.683e-05
1.683e-05
1.675e-05
1.66e-05
1.639e-05
1.613e-05
1.583e-05
1.55e-05
1.514e-05
1.476e-05
1.436e-05
1.396e-05
1.354e-05
1.312e-05
1.27e-05
1.228e-05
1.186e-05
1.143e-05
1.101e-05
1.059e-05
1.017e-05
9.749e-06
9.331e-06
8.914e-06
8.498e-06
8.083e-06
7.669e-06
7.256e-06
6.843e-06
6.431e-06
6.02e-06
5.61e-06
5.2e-06
4.791e-06
4.383e-06
3.977e-06
3.571e-06
3.166e-06
2.764e-06
2.363e-06
1.964e-06
1.568e-06
1.175e-06
7.859e-07
3.317e-07
0.0002618
0.0002629
0.0002639
0.0002647
0.0002653
0.0002658
0.0002661
0.0002663
0.0002663
0.0002663
0.0002662
0.000266
0.0002657
0.0002654
0.0002651
0.0002648