/*--------------------------------*- C++ -*----------------------------------*\
  =========                 |
  \\      /  F ield         | OpenFOAM: The Open Source CFD Toolbox
   \\    /   O peration     | Website:  https://openfoam.org
    \\  /    A nd           | Version:  7
     \\/     M anipulation  |
\*---------------------------------------------------------------------------*/
FoamFile
{
    version     2.0;
    format      ascii;
    class       surfaceScalarField;
    location    "899.999473410711744";
    object      phi;
}
// * * * * * * * * * * * * * * * * * * * * * * * * * * * * * * * * * * * * * //

dimensions      [0 3 -1 0 0 0 0];

internalField   nonuniform List<scalar> 
8032
(
6.857e-10
2.518e-10
4.804e-10
2.053e-10
3.48e-10
1.324e-10
2.643e-10
8.372e-11
2.101e-10
5.415e-11
1.738e-10
3.636e-11
1.483e-10
2.549e-11
1.296e-10
1.863e-11
1.155e-10
1.412e-11
1.045e-10
1.1e-11
9.576e-11
8.768e-12
8.866e-11
7.101e-12
8.284e-11
5.821e-12
7.803e-11
4.811e-12
7.403e-11
3.996e-12
7.071e-11
3.326e-12
6.794e-11
2.764e-12
6.566e-11
2.286e-12
6.378e-11
1.874e-12
6.227e-11
1.511e-12
6.108e-11
1.189e-12
6.019e-11
8.967e-13
5.956e-11
6.289e-13
5.918e-11
3.793e-13
5.904e-11
1.43e-13
5.912e-11
-8.392e-14
5.942e-11
-3.05e-13
5.995e-11
-5.234e-13
6.069e-11
-7.416e-13
6.165e-11
-9.622e-13
6.284e-11
-1.187e-12
6.426e-11
-1.418e-12
6.591e-11
-1.657e-12
6.782e-11
-1.905e-12
6.998e-11
-2.163e-12
7.241e-11
-2.431e-12
7.512e-11
-2.711e-12
7.813e-11
-3.001e-12
8.143e-11
-3.302e-12
8.504e-11
-3.612e-12
8.897e-11
-3.929e-12
9.322e-11
-4.251e-12
9.78e-11
-4.575e-12
1.027e-10
-4.896e-12
1.079e-10
-5.21e-12
1.134e-10
-5.51e-12
1.192e-10
-5.789e-12
1.252e-10
-6.041e-12
1.315e-10
-6.256e-12
1.379e-10
-6.425e-12
1.445e-10
-6.538e-12
1.51e-10
-6.587e-12
1.576e-10
-6.561e-12
1.641e-10
-6.452e-12
1.703e-10
-6.252e-12
1.763e-10
-5.957e-12
1.818e-10
-5.562e-12
1.869e-10
-5.068e-12
1.914e-10
-4.477e-12
1.952e-10
-3.797e-12
1.982e-10
-3.038e-12
2.004e-10
-2.215e-12
2.018e-10
-1.347e-12
2.022e-10
-4.533e-13
2.018e-10
4.435e-13
2.005e-10
1.322e-12
1.983e-10
2.162e-12
1.954e-10
2.948e-12
1.917e-10
3.664e-12
1.874e-10
4.302e-12
1.825e-10
4.854e-12
1.772e-10
5.318e-12
1.715e-10
5.692e-12
1.655e-10
5.979e-12
1.594e-10
6.182e-12
1.531e-10
6.306e-12
1.467e-10
6.357e-12
1.404e-10
6.341e-12
1.341e-10
6.266e-12
1.279e-10
6.14e-12
1.22e-10
5.971e-12
1.162e-10
5.765e-12
1.107e-10
5.531e-12
1.054e-10
5.275e-12
1.004e-10
5.003e-12
9.568e-11
4.722e-12
9.125e-11
4.436e-12
8.71e-11
4.149e-12
8.323e-11
3.866e-12
7.964e-11
3.588e-12
7.632e-11
3.32e-12
7.326e-11
3.062e-12
7.045e-11
2.815e-12
6.787e-11
2.582e-12
6.55e-11
2.362e-12
6.335e-11
2.155e-12
6.139e-11
1.962e-12
5.96e-11
1.783e-12
5.799e-11
1.617e-12
5.653e-11
1.463e-12
5.52e-11
1.322e-12
5.401e-11
1.192e-12
5.294e-11
1.073e-12
5.197e-11
9.649e-13
5.111e-11
8.66e-13
5.033e-11
7.761e-13
4.964e-11
6.944e-13
4.902e-11
6.204e-13
4.846e-11
5.535e-13
4.797e-11
4.931e-13
4.753e-11
4.388e-13
4.714e-11
3.9e-13
4.679e-11
3.463e-13
4.649e-11
3.074e-13
4.621e-11
2.729e-13
4.597e-11
2.427e-13
4.575e-11
2.165e-13
4.556e-11
1.942e-13
4.538e-11
1.759e-13
4.522e-11
1.617e-13
4.507e-11
1.52e-13
4.492e-11
1.475e-13
4.477e-11
1.494e-13
4.461e-11
1.603e-13
4.443e-11
1.847e-13
4.42e-11
2.304e-13
4.389e-11
3.061e-13
3.978e-13
9.523e-10
2.37e-10
8.501e-10
3.075e-10
7.275e-10
2.55e-10
6.183e-10
1.929e-10
5.294e-10
1.43e-10
4.593e-10
1.064e-10
4.043e-10
8.049e-11
3.609e-10
6.208e-11
3.262e-10
4.883e-11
2.981e-10
3.908e-11
2.751e-10
3.173e-11
2.562e-10
2.605e-11
2.404e-10
2.157e-11
2.273e-10
1.797e-11
2.162e-10
1.502e-11
2.07e-10
1.256e-11
1.993e-10
1.048e-11
1.929e-10
8.7e-12
1.876e-10
7.149e-12
1.833e-10
5.781e-12
1.8e-10
4.557e-12
1.774e-10
3.447e-12
1.756e-10
2.424e-12
1.745e-10
1.47e-12
1.741e-10
5.651e-13
1.743e-10
-3.043e-13
1.752e-10
-1.151e-12
1.766e-10
-1.987e-12
1.787e-10
-2.821e-12
1.814e-10
-3.663e-12
1.847e-10
-4.519e-12
1.887e-10
-5.397e-12
1.934e-10
-6.302e-12
1.987e-10
-7.238e-12
2.047e-10
-8.209e-12
2.115e-10
-9.218e-12
2.191e-10
-1.026e-11
2.274e-10
-1.135e-11
2.366e-10
-1.246e-11
2.466e-10
-1.361e-11
2.574e-10
-1.478e-11
2.692e-10
-1.596e-11
2.817e-10
-1.715e-11
2.952e-10
-1.832e-11
3.094e-10
-1.945e-11
3.244e-10
-2.053e-11
3.402e-10
-2.153e-11
3.565e-10
-2.242e-11
3.735e-10
-2.317e-11
3.908e-10
-2.375e-11
4.084e-10
-2.413e-11
4.26e-10
-2.426e-11
4.436e-10
-2.412e-11
4.608e-10
-2.368e-11
4.775e-10
-2.291e-11
4.933e-10
-2.18e-11
5.081e-10
-2.033e-11
5.215e-10
-1.85e-11
5.334e-10
-1.634e-11
5.434e-10
-1.385e-11
5.515e-10
-1.109e-11
5.574e-10
-8.099e-12
5.61e-10
-4.948e-12
5.622e-10
-1.709e-12
5.611e-10
1.544e-12
5.577e-10
4.736e-12
5.521e-10
7.796e-12
5.444e-10
1.066e-11
5.347e-10
1.329e-11
5.234e-10
1.564e-11
5.106e-10
1.768e-11
4.965e-10
1.941e-11
4.814e-10
2.083e-11
4.654e-10
2.192e-11
4.489e-10
2.271e-11
4.32e-10
2.321e-11
4.149e-10
2.345e-11
3.978e-10
2.343e-11
3.809e-10
2.321e-11
3.642e-10
2.279e-11
3.48e-10
2.22e-11
3.323e-10
2.148e-11
3.171e-10
2.065e-11
3.027e-10
1.974e-11
2.889e-10
1.876e-11
2.759e-10
1.774e-11
2.636e-10
1.67e-11
2.521e-10
1.565e-11
2.414e-10
1.461e-11
2.314e-10
1.359e-11
2.221e-10
1.26e-11
2.135e-10
1.164e-11
2.056e-10
1.073e-11
1.983e-10
9.856e-12
1.917e-10
9.033e-12
1.856e-10
8.258e-12
1.8e-10
7.533e-12
1.749e-10
6.858e-12
1.703e-10
6.23e-12
1.661e-10
5.649e-12
1.623e-10
5.114e-12
1.589e-10
4.621e-12
1.558e-10
4.168e-12
1.53e-10
3.754e-12
1.505e-10
3.376e-12
1.482e-10
3.032e-12
1.462e-10
2.718e-12
1.444e-10
2.434e-12
1.428e-10
2.176e-12
1.413e-10
1.943e-12
1.4e-10
1.733e-12
1.389e-10
1.544e-12
1.379e-10
1.375e-12
1.369e-10
1.224e-12
1.361e-10
1.09e-12
1.354e-10
9.72e-13
1.347e-10
8.695e-13
1.342e-10
7.82e-13
1.336e-10
7.094e-13
1.331e-10
6.522e-13
1.327e-10
6.111e-13
1.322e-10
5.878e-13
1.318e-10
5.85e-13
1.313e-10
6.067e-13
1.309e-10
6.59e-13
1.304e-10
7.487e-13
1.298e-10
8.747e-13
9.936e-13
9.779e-10
1.966e-10
9.637e-10
3.217e-10
9.013e-10
3.174e-10
8.213e-10
2.73e-10
7.41e-10
2.232e-10
6.682e-10
1.793e-10
6.049e-10
1.438e-10
5.511e-10
1.159e-10
5.057e-10
9.419e-11
4.676e-10
7.725e-11
4.354e-10
6.389e-11
4.082e-10
5.321e-11
3.853e-10
4.455e-11
3.658e-10
3.743e-11
3.493e-10
3.149e-11
3.354e-10
2.649e-11
3.237e-10
2.22e-11
3.139e-10
1.849e-11
3.058e-10
1.524e-11
2.992e-10
1.235e-11
2.94e-10
9.757e-12
2.901e-10
7.389e-12
2.873e-10
5.201e-12
2.856e-10
3.151e-12
2.85e-10
1.205e-12
2.853e-10
-6.68e-13
2.867e-10
-2.494e-12
2.89e-10
-4.297e-12
2.923e-10
-6.096e-12
2.965e-10
-7.91e-12
3.018e-10
-9.754e-12
3.08e-10
-1.164e-11
3.153e-10
-1.358e-11
3.236e-10
-1.559e-11
3.331e-10
-1.767e-11
3.437e-10
-1.982e-11
3.555e-10
-2.205e-11
3.685e-10
-2.435e-11
3.827e-10
-2.672e-11
3.983e-10
-2.915e-11
4.151e-10
-3.162e-11
4.333e-10
-3.411e-11
4.527e-10
-3.659e-11
4.734e-10
-3.904e-11
4.954e-10
-4.141e-11
5.185e-10
-4.366e-11
5.427e-10
-4.573e-11
5.678e-10
-4.756e-11
5.938e-10
-4.91e-11
6.203e-10
-5.027e-11
6.472e-10
-5.1e-11
6.741e-10
-5.123e-11
7.009e-10
-5.089e-11
7.271e-10
-4.991e-11
7.525e-10
-4.825e-11
7.765e-10
-4.588e-11
7.99e-10
-4.276e-11
8.194e-10
-3.89e-11
8.374e-10
-3.434e-11
8.526e-10
-2.912e-11
8.649e-10
-2.332e-11
8.738e-10
-1.706e-11
8.793e-10
-1.046e-11
8.813e-10
-3.674e-12
8.797e-10
3.14e-12
8.746e-10
9.829e-12
8.662e-10
1.625e-11
8.545e-10
2.228e-11
8.4e-10
2.781e-11
8.229e-10
3.277e-11
8.035e-10
3.71e-11
7.821e-10
4.078e-11
7.591e-10
4.38e-11
7.349e-10
4.616e-11
7.097e-10
4.788e-11
6.839e-10
4.9e-11
6.578e-10
4.955e-11
6.317e-10
4.959e-11
6.057e-10
4.917e-11
5.801e-10
4.835e-11
5.552e-10
4.717e-11
5.31e-10
4.57e-11
5.076e-10
4.399e-11
4.853e-10
4.21e-11
4.64e-10
4.006e-11
4.438e-10
3.794e-11
4.247e-10
3.576e-11
4.068e-10
3.356e-11
3.9e-10
3.138e-11
3.744e-10
2.922e-11
3.599e-10
2.712e-11
3.464e-10
2.51e-11
3.34e-10
2.315e-11
3.225e-10
2.13e-11
3.12e-10
1.955e-11
3.024e-10
1.79e-11
2.936e-10
1.635e-11
2.855e-10
1.49e-11
2.782e-10
1.355e-11
2.716e-10
1.231e-11
2.655e-10
1.115e-11
2.6e-10
1.009e-11
2.551e-10
9.117e-12
2.506e-10
8.223e-12
2.466e-10
7.405e-12
2.43e-10
6.659e-12
2.397e-10
5.98e-12
2.368e-10
5.362e-12
2.342e-10
4.802e-12
2.318e-10
4.295e-12
2.297e-10
3.837e-12
2.278e-10
3.424e-12
2.261e-10
3.054e-12
2.246e-10
2.724e-12
2.233e-10
2.429e-12
2.221e-10
2.17e-12
2.21e-10
1.944e-12
2.201e-10
1.75e-12
2.192e-10
1.587e-12
2.184e-10
1.457e-12
2.176e-10
1.359e-12
2.169e-10
1.296e-12
2.162e-10
1.271e-12
2.156e-10
1.286e-12
2.149e-10
1.347e-12
2.142e-10
1.452e-12
2.135e-10
1.587e-12
1.698e-12
9.752e-10
1.589e-10
9.93e-10
3.038e-10
9.728e-10
3.376e-10
9.27e-10
3.188e-10
8.692e-10
2.81e-10
8.087e-10
2.398e-10
7.507e-10
2.017e-10
6.977e-10
1.689e-10
6.504e-10
1.415e-10
6.088e-10
1.188e-10
5.726e-10
1.001e-10
5.413e-10
8.458e-11
5.142e-10
7.165e-11
4.908e-10
6.077e-11
4.708e-10
5.153e-11
4.537e-10
4.36e-11
4.391e-10
3.674e-11
4.269e-10
3.072e-11
4.168e-10
2.54e-11
4.085e-10
2.064e-11
4.019e-10
1.632e-11
3.969e-10
1.237e-11
3.934e-10
8.692e-12
3.914e-10
5.239e-12
3.906e-10
1.949e-12
3.912e-10
-1.226e-12
3.93e-10
-4.325e-12
3.961e-10
-7.388e-12
4.004e-10
-1.045e-11
4.061e-10
-1.353e-11
4.13e-10
-1.666e-11
4.212e-10
-1.987e-11
4.308e-10
-2.316e-11
4.417e-10
-2.656e-11
4.541e-10
-3.007e-11
4.68e-10
-3.37e-11
4.834e-10
-3.746e-11
5.004e-10
-4.134e-11
5.19e-10
-4.532e-11
5.393e-10
-4.939e-11
5.612e-10
-5.352e-11
5.847e-10
-5.768e-11
6.1e-10
-6.182e-11
6.368e-10
-6.589e-11
6.652e-10
-6.982e-11
6.951e-10
-7.354e-11
7.263e-10
-7.695e-11
7.587e-10
-7.997e-11
7.921e-10
-8.248e-11
8.262e-10
-8.437e-11
8.608e-10
-8.554e-11
8.954e-10
-8.586e-11
9.297e-10
-8.523e-11
9.634e-10
-8.354e-11
9.958e-10
-8.072e-11
1.027e-09
-7.671e-11
1.055e-09
-7.148e-11
1.081e-09
-6.502e-11
1.105e-09
-5.739e-11
1.124e-09
-4.867e-11
1.14e-09
-3.9e-11
1.151e-09
-2.856e-11
1.158e-09
-1.756e-11
1.161e-09
-6.253e-12
1.159e-09
5.106e-12
1.153e-09
1.626e-11
1.142e-09
2.698e-11
1.127e-09
3.704e-11
1.109e-09
4.63e-11
1.087e-09
5.46e-11
1.062e-09
6.188e-11
1.035e-09
6.808e-11
1.005e-09
7.318e-11
9.743e-10
7.719e-11
9.42e-10
8.014e-11
9.089e-10
8.209e-11
8.754e-10
8.31e-11
8.417e-10
8.324e-11
8.083e-10
8.262e-11
7.753e-10
8.131e-11
7.431e-10
7.941e-11
7.118e-10
7.702e-11
6.815e-10
7.422e-11
6.525e-10
7.11e-11
6.248e-10
6.774e-11
5.986e-10
6.422e-11
5.737e-10
6.06e-11
5.504e-10
5.694e-11
5.284e-10
5.329e-11
5.08e-10
4.968e-11
4.889e-10
4.617e-11
4.713e-10
4.277e-11
4.549e-10
3.95e-11
4.398e-10
3.638e-11
4.26e-10
3.342e-11
4.132e-10
3.063e-11
4.016e-10
2.801e-11
3.909e-10
2.556e-11
3.812e-10
2.328e-11
3.723e-10
2.116e-11
3.643e-10
1.92e-11
3.57e-10
1.739e-11
3.504e-10
1.573e-11
3.444e-10
1.421e-11
3.39e-10
1.281e-11
3.341e-10
1.153e-11
3.297e-10
1.037e-11
3.258e-10
9.309e-12
3.222e-10
8.347e-12
3.19e-10
7.475e-12
3.162e-10
6.687e-12
3.136e-10
5.977e-12
3.114e-10
5.338e-12
3.093e-10
4.766e-12
3.075e-10
4.257e-12
3.059e-10
3.807e-12
3.044e-10
3.413e-12
3.031e-10
3.073e-12
3.019e-10
2.785e-12
3.008e-10
2.55e-12
2.998e-10
2.367e-12
2.988e-10
2.238e-12
2.979e-10
2.165e-12
2.971e-10
2.149e-12
2.962e-10
2.19e-12
2.954e-10
2.281e-12
2.946e-10
2.4e-12
2.491e-12
9.668e-10
1.296e-10
9.945e-10
2.762e-10
9.98e-10
3.341e-10
9.782e-10
3.386e-10
9.428e-10
3.164e-10
8.99e-10
2.836e-10
8.524e-10
2.484e-10
8.063e-10
2.15e-10
7.628e-10
1.85e-10
7.229e-10
1.588e-10
6.868e-10
1.362e-10
6.546e-10
1.168e-10
6.262e-10
1.001e-10
6.012e-10
8.571e-11
5.795e-10
7.326e-11
5.607e-10
6.24e-11
5.446e-10
5.285e-11
5.309e-10
4.439e-11
5.195e-10
3.682e-11
5.102e-10
2.998e-11
5.027e-10
2.374e-11
4.971e-10
1.798e-11
4.932e-10
1.26e-11
4.909e-10
7.521e-12
4.902e-10
2.662e-12
4.91e-10
-2.04e-12
4.933e-10
-6.642e-12
4.972e-10
-1.12e-11
5.025e-10
-1.575e-11
5.093e-10
-2.034e-11
5.176e-10
-2.5e-11
5.275e-10
-2.977e-11
5.39e-10
-3.467e-11
5.522e-10
-3.972e-11
5.671e-10
-4.494e-11
5.837e-10
-5.032e-11
6.021e-10
-5.589e-11
6.224e-10
-6.162e-11
6.446e-10
-6.75e-11
6.687e-10
-7.35e-11
6.947e-10
-7.959e-11
7.228e-10
-8.57e-11
7.527e-10
-9.178e-11
7.846e-10
-9.775e-11
8.183e-10
-1.035e-10
8.536e-10
-1.089e-10
8.906e-10
-1.139e-10
9.289e-10
-1.183e-10
9.683e-10
-1.219e-10
1.009e-09
-1.246e-10
1.049e-09
-1.263e-10
1.09e-09
-1.267e-10
1.131e-09
-1.257e-10
1.17e-09
-1.232e-10
1.209e-09
-1.19e-10
1.245e-09
-1.131e-10
1.279e-09
-1.053e-10
1.31e-09
-9.581e-11
1.337e-09
-8.457e-11
1.36e-09
-7.174e-11
1.378e-09
-5.752e-11
1.392e-09
-4.216e-11
1.4e-09
-2.598e-11
1.403e-09
-9.35e-12
1.401e-09
7.359e-12
1.394e-09
2.377e-11
1.381e-09
3.954e-11
1.364e-09
5.436e-11
1.342e-09
6.799e-11
1.316e-09
8.024e-11
1.287e-09
9.099e-11
1.255e-09
1.002e-10
1.221e-09
1.077e-10
1.184e-09
1.137e-10
1.146e-09
1.181e-10
1.107e-09
1.211e-10
1.068e-09
1.227e-10
1.028e-09
1.23e-10
9.884e-10
1.221e-10
9.494e-10
1.203e-10
9.112e-10
1.176e-10
8.741e-10
1.141e-10
8.382e-10
1.101e-10
8.038e-10
1.056e-10
7.709e-10
1.007e-10
7.396e-10
9.551e-11
7.1e-10
9.021e-11
6.821e-10
8.484e-11
6.559e-10
7.947e-11
6.314e-10
7.417e-11
6.086e-10
6.899e-11
5.873e-10
6.397e-11
5.677e-10
5.914e-11
5.496e-10
5.452e-11
5.328e-10
5.014e-11
5.175e-10
4.6e-11
5.034e-10
4.211e-11
4.905e-10
3.846e-11
4.787e-10
3.507e-11
4.679e-10
3.191e-11
4.582e-10
2.898e-11
4.493e-10
2.628e-11
4.412e-10
2.379e-11
4.339e-10
2.151e-11
4.273e-10
1.941e-11
4.213e-10
1.75e-11
4.16e-10
1.575e-11
4.111e-10
1.415e-11
4.068e-10
1.271e-11
4.028e-10
1.139e-11
3.993e-10
1.02e-11
3.962e-10
9.13e-12
3.933e-10
8.163e-12
3.908e-10
7.297e-12
3.885e-10
6.524e-12
3.865e-10
5.839e-12
3.847e-10
5.236e-12
3.831e-10
4.713e-12
3.816e-10
4.267e-12
3.802e-10
3.896e-12
3.79e-10
3.6e-12
3.779e-10
3.377e-12
3.768e-10
3.23e-12
3.758e-10
3.155e-12
3.748e-10
3.15e-12
3.739e-10
3.202e-12
3.73e-10
3.288e-12
3.356e-12
9.592e-10
1.079e-10
9.876e-10
2.478e-10
1.003e-09
3.189e-10
1e-09
3.41e-10
9.829e-10
3.339e-10
9.55e-10
3.115e-10
9.211e-10
2.823e-10
8.847e-10
2.514e-10
8.48e-10
2.216e-10
8.127e-10
1.941e-10
7.796e-10
1.692e-10
7.492e-10
1.472e-10
7.217e-10
1.276e-10
6.971e-10
1.104e-10
6.753e-10
9.508e-11
6.561e-10
8.152e-11
6.396e-10
6.943e-11
6.254e-10
5.856e-11
6.135e-10
4.873e-11
6.037e-10
3.977e-11
5.959e-10
3.152e-11
5.901e-10
2.384e-11
5.86e-10
1.663e-11
5.838e-10
9.787e-12
5.832e-10
3.212e-12
5.843e-10
-3.173e-12
5.871e-10
-9.439e-12
5.916e-10
-1.565e-11
5.977e-10
-2.187e-11
6.055e-10
-2.815e-11
6.151e-10
-3.453e-11
6.263e-10
-4.105e-11
6.394e-10
-4.775e-11
6.544e-10
-5.465e-11
6.712e-10
-6.178e-11
6.9e-10
-6.913e-11
7.108e-10
-7.671e-11
7.337e-10
-8.452e-11
7.587e-10
-9.252e-11
7.859e-10
-1.007e-10
8.153e-10
-1.089e-10
8.468e-10
-1.172e-10
8.805e-10
-1.255e-10
9.163e-10
-1.335e-10
9.541e-10
-1.413e-10
9.938e-10
-1.486e-10
1.035e-09
-1.553e-10
1.078e-09
-1.612e-10
1.122e-09
-1.661e-10
1.167e-09
-1.698e-10
1.213e-09
-1.719e-10
1.259e-09
-1.725e-10
1.304e-09
-1.711e-10
1.349e-09
-1.676e-10
1.392e-09
-1.619e-10
1.432e-09
-1.538e-10
1.47e-09
-1.433e-10
1.505e-09
-1.304e-10
1.535e-09
-1.151e-10
1.561e-09
-9.768e-11
1.582e-09
-7.835e-11
1.597e-09
-5.747e-11
1.607e-09
-3.548e-11
1.611e-09
-1.287e-11
1.608e-09
9.85e-12
1.6e-09
3.216e-11
1.586e-09
5.359e-11
1.566e-09
7.374e-11
1.542e-09
9.227e-11
1.513e-09
1.089e-10
1.481e-09
1.236e-10
1.445e-09
1.36e-10
1.406e-09
1.464e-10
1.365e-09
1.546e-10
1.323e-09
1.606e-10
1.279e-09
1.647e-10
1.235e-09
1.67e-10
1.19e-09
1.675e-10
1.146e-09
1.665e-10
1.102e-09
1.641e-10
1.059e-09
1.605e-10
1.018e-09
1.559e-10
9.773e-10
1.504e-10
9.385e-10
1.443e-10
9.014e-10
1.377e-10
8.662e-10
1.308e-10
8.328e-10
1.236e-10
8.013e-10
1.163e-10
7.717e-10
1.091e-10
7.439e-10
1.019e-10
7.181e-10
9.484e-11
6.941e-10
8.801e-11
6.718e-10
8.144e-11
6.511e-10
7.515e-11
6.321e-10
6.917e-11
6.146e-10
6.351e-11
5.985e-10
5.819e-11
5.838e-10
5.32e-11
5.703e-10
4.854e-11
5.58e-10
4.421e-11
5.468e-10
4.02e-11
5.366e-10
3.648e-11
5.273e-10
3.306e-11
5.189e-10
2.991e-11
5.113e-10
2.702e-11
5.044e-10
2.438e-11
4.982e-10
2.196e-11
4.926e-10
1.976e-11
4.876e-10
1.776e-11
4.83e-10
1.594e-11
4.789e-10
1.429e-11
4.753e-10
1.28e-11
4.72e-10
1.145e-11
4.69e-10
1.025e-11
4.664e-10
9.169e-12
4.64e-10
8.21e-12
4.619e-10
7.365e-12
4.6e-10
6.627e-12
4.582e-10
5.992e-12
4.567e-10
5.457e-12
4.553e-10
5.02e-12
4.54e-10
4.678e-12
4.528e-10
4.43e-12
4.516e-10
4.272e-12
4.506e-10
4.198e-12
4.496e-10
4.193e-12
4.487e-10
4.233e-12
4.274e-12
9.536e-10
9.18e-11
9.796e-10
2.218e-10
9.998e-10
2.987e-10
1.008e-09
3.33e-10
1.003e-09
3.385e-10
9.884e-10
3.263e-10
9.664e-10
3.043e-10
9.399e-10
2.779e-10
9.113e-10
2.502e-10
8.822e-10
2.231e-10
8.538e-10
1.976e-10
8.269e-10
1.741e-10
8.019e-10
1.526e-10
7.79e-10
1.332e-10
7.584e-10
1.157e-10
7.4e-10
9.985e-11
7.24e-10
8.549e-11
7.101e-10
7.241e-11
6.984e-10
6.045e-11
6.887e-10
4.942e-11
6.811e-10
3.918e-11
6.753e-10
2.958e-11
6.715e-10
2.051e-11
6.694e-10
1.184e-11
6.691e-10
3.476e-12
6.707e-10
-4.677e-12
6.739e-10
-1.27e-11
6.789e-10
-2.068e-11
6.858e-10
-2.868e-11
6.944e-10
-3.676e-11
7.048e-10
-4.499e-11
7.172e-10
-5.339e-11
7.314e-10
-6.203e-11
7.477e-10
-7.092e-11
7.66e-10
-8.01e-11
7.865e-10
-8.957e-11
8.091e-10
-9.932e-11
8.339e-10
-1.094e-10
8.611e-10
-1.196e-10
8.905e-10
-1.301e-10
9.223e-10
-1.407e-10
9.564e-10
-1.513e-10
9.928e-10
-1.619e-10
1.031e-09
-1.722e-10
1.072e-09
-1.822e-10
1.115e-09
-1.915e-10
1.16e-09
-2.001e-10
1.206e-09
-2.076e-10
1.254e-09
-2.139e-10
1.303e-09
-2.185e-10
1.352e-09
-2.213e-10
1.402e-09
-2.219e-10
1.451e-09
-2.202e-10
1.499e-09
-2.157e-10
1.545e-09
-2.084e-10
1.59e-09
-1.98e-10
1.631e-09
-1.845e-10
1.668e-09
-1.679e-10
1.702e-09
-1.483e-10
1.73e-09
-1.259e-10
1.753e-09
-1.01e-10
1.769e-09
-7.415e-11
1.78e-09
-4.583e-11
1.783e-09
-1.671e-11
1.781e-09
1.255e-11
1.772e-09
4.128e-11
1.756e-09
6.886e-11
1.735e-09
9.476e-11
1.709e-09
1.186e-10
1.678e-09
1.4e-10
1.643e-09
1.588e-10
1.604e-09
1.749e-10
1.562e-09
1.882e-10
1.518e-09
1.987e-10
1.472e-09
2.066e-10
1.425e-09
2.119e-10
1.377e-09
2.149e-10
1.329e-09
2.156e-10
1.281e-09
2.144e-10
1.234e-09
2.114e-10
1.187e-09
2.068e-10
1.142e-09
2.01e-10
1.098e-09
1.941e-10
1.056e-09
1.863e-10
1.016e-09
1.779e-10
9.78e-10
1.69e-10
9.418e-10
1.599e-10
9.075e-10
1.506e-10
8.754e-10
1.412e-10
8.453e-10
1.32e-10
8.171e-10
1.23e-10
7.909e-10
1.142e-10
7.666e-10
1.057e-10
7.441e-10
9.765e-11
7.233e-10
8.994e-11
7.042e-10
8.265e-11
6.866e-10
7.578e-11
6.705e-10
6.934e-11
6.557e-10
6.332e-11
6.422e-10
5.772e-11
6.299e-10
5.252e-11
6.186e-10
4.771e-11
6.084e-10
4.327e-11
5.992e-10
3.918e-11
5.907e-10
3.543e-11
5.831e-10
3.199e-11
5.763e-10
2.885e-11
5.7e-10
2.597e-11
5.644e-10
2.336e-11
5.594e-10
2.098e-11
5.549e-10
1.883e-11
5.508e-10
1.688e-11
5.471e-10
1.512e-11
5.438e-10
1.354e-11
5.409e-10
1.212e-11
5.382e-10
1.086e-11
5.358e-10
9.74e-12
5.337e-10
8.76e-12
5.318e-10
7.911e-12
5.301e-10
7.188e-12
5.285e-10
6.586e-12
5.271e-10
6.103e-12
5.258e-10
5.732e-12
5.246e-10
5.47e-12
5.234e-10
5.308e-12
5.224e-10
5.231e-12
5.214e-10
5.216e-12
5.228e-12
9.498e-10
7.95e-11
9.725e-10
1.991e-10
9.941e-10
2.771e-10
1.008e-09
3.191e-10
1.012e-09
3.342e-10
1.007e-09
3.311e-10
9.953e-10
3.164e-10
9.78e-10
2.952e-10
9.574e-10
2.708e-10
9.351e-10
2.455e-10
9.122e-10
2.205e-10
8.897e-10
1.966e-10
8.682e-10
1.742e-10
8.481e-10
1.534e-10
8.296e-10
1.342e-10
8.129e-10
1.165e-10
7.981e-10
1.003e-10
7.852e-10
8.528e-11
7.743e-10
7.139e-11
7.653e-10
5.846e-11
7.581e-10
4.634e-11
7.528e-10
3.489e-11
7.493e-10
2.399e-11
7.476e-10
1.351e-11
7.478e-10
3.355e-12
7.497e-10
-6.588e-12
7.534e-10
-1.641e-11
7.589e-10
-2.62e-11
7.662e-10
-3.603e-11
7.755e-10
-4.598e-11
7.866e-10
-5.611e-11
7.997e-10
-6.648e-11
8.148e-10
-7.713e-11
8.319e-10
-8.81e-11
8.513e-10
-9.942e-11
8.728e-10
-1.111e-10
8.966e-10
-1.231e-10
9.227e-10
-1.355e-10
9.512e-10
-1.481e-10
9.821e-10
-1.61e-10
1.015e-09
-1.741e-10
1.051e-09
-1.871e-10
1.089e-09
-2.001e-10
1.13e-09
-2.128e-10
1.173e-09
-2.251e-10
1.218e-09
-2.366e-10
1.265e-09
-2.471e-10
1.314e-09
-2.564e-10
1.364e-09
-2.641e-10
1.415e-09
-2.698e-10
1.467e-09
-2.732e-10
1.519e-09
-2.74e-10
1.571e-09
-2.719e-10
1.622e-09
-2.664e-10
1.671e-09
-2.574e-10
1.717e-09
-2.447e-10
1.761e-09
-2.281e-10
1.801e-09
-2.077e-10
1.836e-09
-1.835e-10
1.866e-09
-1.559e-10
1.89e-09
-1.251e-10
1.908e-09
-9.188e-11
1.919e-09
-5.682e-11
1.923e-09
-2.076e-11
1.92e-09
1.546e-11
1.91e-09
5.099e-11
1.894e-09
8.507e-11
1.872e-09
1.17e-10
1.844e-09
1.464e-10
1.811e-09
1.728e-10
1.774e-09
1.96e-10
1.733e-09
2.158e-10
1.689e-09
2.322e-10
1.643e-09
2.452e-10
1.594e-09
2.549e-10
1.545e-09
2.615e-10
1.494e-09
2.652e-10
1.444e-09
2.662e-10
1.393e-09
2.647e-10
1.344e-09
2.611e-10
1.295e-09
2.556e-10
1.247e-09
2.485e-10
1.201e-09
2.4e-10
1.157e-09
2.305e-10
1.115e-09
2.202e-10
1.075e-09
2.093e-10
1.037e-09
1.98e-10
1.001e-09
1.866e-10
9.667e-10
1.751e-10
9.35e-10
1.638e-10
9.053e-10
1.526e-10
8.777e-10
1.418e-10
8.52e-10
1.314e-10
8.282e-10
1.214e-10
8.063e-10
1.119e-10
7.86e-10
1.029e-10
7.674e-10
9.442e-11
7.502e-10
8.645e-11
7.346e-10
7.901e-11
7.202e-10
7.207e-11
7.071e-10
6.562e-11
6.952e-10
5.965e-11
6.843e-10
5.414e-11
6.744e-10
4.907e-11
6.654e-10
4.44e-11
6.573e-10
4.012e-11
6.499e-10
3.621e-11
6.433e-10
3.263e-11
6.373e-10
2.937e-11
6.319e-10
2.64e-11
6.27e-10
2.371e-11
6.226e-10
2.127e-11
6.187e-10
1.907e-11
6.151e-10
1.708e-11
6.119e-10
1.53e-11
6.091e-10
1.371e-11
6.065e-10
1.23e-11
6.042e-10
1.106e-11
6.022e-10
9.974e-12
6.003e-10
9.043e-12
5.986e-10
8.258e-12
5.971e-10
7.614e-12
5.957e-10
7.104e-12
5.945e-10
6.721e-12
5.933e-10
6.457e-12
5.923e-10
6.297e-12
5.913e-10
6.22e-12
6.2e-12
9.472e-10
6.981e-11
9.669e-10
1.793e-10
9.881e-10
2.56e-10
1.005e-09
3.023e-10
1.015e-09
3.243e-10
1.017e-09
3.285e-10
1.013e-09
3.205e-10
1.004e-09
3.046e-10
9.906e-10
2.841e-10
9.749e-10
2.613e-10
9.577e-10
2.377e-10
9.4e-10
2.143e-10
9.225e-10
1.917e-10
9.057e-10
1.702e-10
8.9e-10
1.499e-10
8.755e-10
1.31e-10
8.625e-10
1.132e-10
8.512e-10
9.667e-11
8.414e-10
8.113e-11
8.334e-10
6.651e-11
8.27e-10
5.268e-11
8.224e-10
3.951e-11
8.195e-10
2.688e-11
8.183e-10
1.468e-11
8.189e-10
2.78e-12
8.212e-10
-8.917e-12
8.253e-10
-2.051e-11
8.312e-10
-3.21e-11
8.39e-10
-4.377e-11
8.486e-10
-5.559e-11
8.601e-10
-6.764e-11
8.736e-10
-7.999e-11
8.892e-10
-9.268e-11
9.068e-10
-1.058e-10
9.267e-10
-1.192e-10
9.487e-10
-1.332e-10
9.731e-10
-1.475e-10
9.998e-10
-1.622e-10
1.029e-09
-1.773e-10
1.061e-09
-1.927e-10
1.095e-09
-2.082e-10
1.131e-09
-2.238e-10
1.171e-09
-2.392e-10
1.212e-09
-2.544e-10
1.256e-09
-2.69e-10
1.302e-09
-2.827e-10
1.35e-09
-2.953e-10
1.4e-09
-3.064e-10
1.452e-09
-3.156e-10
1.504e-09
-3.224e-10
1.558e-09
-3.266e-10
1.611e-09
-3.277e-10
1.665e-09
-3.252e-10
1.717e-09
-3.188e-10
1.768e-09
-3.081e-10
1.816e-09
-2.93e-10
1.861e-09
-2.733e-10
1.903e-09
-2.49e-10
1.939e-09
-2.201e-10
1.97e-09
-1.87e-10
1.995e-09
-1.502e-10
2.014e-09
-1.103e-10
2.025e-09
-6.822e-11
2.029e-09
-2.49e-11
2.026e-09
1.858e-11
2.016e-09
6.12e-11
1.999e-09
1.02e-10
1.976e-09
1.402e-10
1.947e-09
1.753e-10
1.913e-09
2.068e-10
1.875e-09
2.344e-10
1.833e-09
2.579e-10
1.787e-09
2.775e-10
1.739e-09
2.93e-10
1.69e-09
3.046e-10
1.639e-09
3.125e-10
1.587e-09
3.17e-10
1.535e-09
3.182e-10
1.483e-09
3.165e-10
1.432e-09
3.122e-10
1.382e-09
3.056e-10
1.333e-09
2.972e-10
1.286e-09
2.871e-10
1.241e-09
2.758e-10
1.198e-09
2.635e-10
1.156e-09
2.506e-10
1.117e-09
2.372e-10
1.08e-09
2.235e-10
1.046e-09
2.099e-10
1.013e-09
1.964e-10
9.825e-10
1.831e-10
9.541e-10
1.702e-10
9.277e-10
1.578e-10
9.032e-10
1.459e-10
8.806e-10
1.345e-10
8.598e-10
1.238e-10
8.406e-10
1.136e-10
8.229e-10
1.041e-10
8.068e-10
9.519e-11
7.919e-10
8.688e-11
7.784e-10
7.916e-11
7.66e-10
7.201e-11
7.548e-10
6.54e-11
7.445e-10
5.931e-11
7.352e-10
5.37e-11
7.268e-10
4.856e-11
7.192e-10
4.385e-11
7.122e-10
3.955e-11
7.06e-10
3.562e-11
7.003e-10
3.205e-11
6.952e-10
2.88e-11
6.907e-10
2.585e-11
6.865e-10
2.319e-11
6.828e-10
2.079e-11
6.795e-10
1.863e-11
6.765e-10
1.67e-11
6.738e-10
1.498e-11
6.714e-10
1.346e-11
6.693e-10
1.213e-11
6.674e-10
1.097e-11
6.656e-10
9.992e-12
6.641e-10
9.174e-12
6.627e-10
8.511e-12
6.614e-10
7.997e-12
6.602e-10
7.62e-12
6.591e-10
7.368e-12
6.581e-10
7.226e-12
7.172e-12
9.454e-10
6.195e-11
9.626e-10
1.621e-10
9.826e-10
2.359e-10
1.001e-09
2.842e-10
1.014e-09
3.109e-10
1.022e-09
3.209e-10
1.024e-09
3.185e-10
1.021e-09
3.075e-10
1.014e-09
2.91e-10
1.004e-09
2.71e-10
9.926e-10
2.494e-10
9.797e-10
2.271e-10
9.664e-10
2.05e-10
9.533e-10
1.834e-10
9.406e-10
1.626e-10
9.287e-10
1.428e-10
9.179e-10
1.24e-10
9.084e-10
1.062e-10
9.002e-10
8.936e-11
8.934e-10
7.33e-11
8.881e-10
5.798e-11
8.843e-10
4.327e-11
8.821e-10
2.907e-11
8.815e-10
1.525e-11
8.826e-10
1.719e-12
8.853e-10
-1.164e-11
8.898e-10
-2.494e-11
8.959e-10
-3.827e-11
9.039e-10
-5.172e-11
9.137e-10
-6.537e-11
9.253e-10
-7.931e-11
9.389e-10
-9.36e-11
9.546e-10
-1.083e-10
9.723e-10
-1.235e-10
9.921e-10
-1.391e-10
1.014e-09
-1.552e-10
1.039e-09
-1.719e-10
1.065e-09
-1.889e-10
1.094e-09
-2.064e-10
1.126e-09
-2.243e-10
1.16e-09
-2.423e-10
1.197e-09
-2.604e-10
1.236e-09
-2.784e-10
1.277e-09
-2.96e-10
1.321e-09
-3.129e-10
1.368e-09
-3.289e-10
1.416e-09
-3.436e-10
1.466e-09
-3.565e-10
1.518e-09
-3.673e-10
1.571e-09
-3.754e-10
1.625e-09
-3.804e-10
1.679e-09
-3.817e-10
1.732e-09
-3.79e-10
1.785e-09
-3.717e-10
1.837e-09
-3.595e-10
1.886e-09
-3.421e-10
1.932e-09
-3.192e-10
1.974e-09
-2.91e-10
2.011e-09
-2.574e-10
2.043e-09
-2.188e-10
2.068e-09
-1.758e-10
2.087e-09
-1.291e-10
2.099e-09
-7.98e-11
2.103e-09
-2.901e-11
2.099e-09
2.193e-11
2.089e-09
7.178e-11
2.072e-09
1.194e-10
2.048e-09
1.639e-10
2.018e-09
2.047e-10
1.984e-09
2.412e-10
1.945e-09
2.732e-10
1.902e-09
3.005e-10
1.857e-09
3.232e-10
1.809e-09
3.412e-10
1.759e-09
3.547e-10
1.707e-09
3.638e-10
1.655e-09
3.69e-10
1.603e-09
3.704e-10
1.551e-09
3.684e-10
1.5e-09
3.635e-10
1.449e-09
3.559e-10
1.401e-09
3.46e-10
1.353e-09
3.344e-10
1.308e-09
3.213e-10
1.264e-09
3.07e-10
1.223e-09
2.92e-10
1.184e-09
2.764e-10
1.147e-09
2.606e-10
1.112e-09
2.447e-10
1.079e-09
2.29e-10
1.049e-09
2.137e-10
1.02e-09
1.987e-10
9.936e-10
1.842e-10
9.691e-10
1.704e-10
9.464e-10
1.572e-10
9.255e-10
1.447e-10
9.062e-10
1.329e-10
8.884e-10
1.218e-10
8.722e-10
1.115e-10
8.573e-10
1.018e-10
8.436e-10
9.28e-11
8.312e-10
8.446e-11
8.198e-10
7.675e-11
8.095e-10
6.965e-11
8.001e-10
6.311e-11
7.915e-10
5.71e-11
7.838e-10
5.159e-11
7.768e-10
4.656e-11
7.704e-10
4.196e-11
7.647e-10
3.778e-11
7.595e-10
3.397e-11
7.549e-10
3.051e-11
7.507e-10
2.738e-11
7.469e-10
2.456e-11
7.435e-10
2.201e-11
7.405e-10
1.974e-11
7.378e-10
1.77e-11
7.353e-10
1.59e-11
7.331e-10
1.431e-11
7.312e-10
1.293e-11
7.294e-10
1.174e-11
7.279e-10
1.074e-11
7.265e-10
9.922e-12
7.252e-10
9.267e-12
7.24e-10
8.772e-12
7.23e-10
8.425e-12
7.22e-10
8.214e-12
8.125e-12
9.441e-10
5.539e-11
9.591e-10
1.471e-10
9.779e-10
2.171e-10
9.963e-10
2.657e-10
1.012e-09
2.954e-10
1.023e-09
3.096e-10
1.03e-09
3.119e-10
1.032e-09
3.053e-10
1.03e-09
2.925e-10
1.026e-09
2.756e-10
1.019e-09
2.562e-10
1.011e-09
2.354e-10
1.002e-09
2.141e-10
9.921e-10
1.929e-10
9.826e-10
1.721e-10
9.735e-10
1.519e-10
9.651e-10
1.325e-10
9.575e-10
1.138e-10
9.51e-10
9.588e-11
9.456e-10
7.867e-11
9.415e-10
6.209e-11
9.388e-10
4.605e-11
9.374e-10
3.046e-11
9.374e-10
1.52e-11
9.39e-10
1.736e-13
9.42e-10
-1.473e-11
9.467e-10
-2.961e-11
9.53e-10
-4.457e-11
9.61e-10
-5.971e-11
9.707e-10
-7.511e-11
9.823e-10
-9.085e-11
9.957e-10
-1.07e-10
1.011e-09
-1.236e-10
1.028e-09
-1.408e-10
1.048e-09
-1.585e-10
1.069e-09
-1.768e-10
1.093e-09
-1.957e-10
1.119e-09
-2.15e-10
1.148e-09
-2.349e-10
1.179e-09
-2.551e-10
1.212e-09
-2.756e-10
1.248e-09
-2.962e-10
1.286e-09
-3.166e-10
1.327e-09
-3.366e-10
1.37e-09
-3.56e-10
1.415e-09
-3.742e-10
1.462e-09
-3.91e-10
1.512e-09
-4.058e-10
1.562e-09
-4.182e-10
1.615e-09
-4.275e-10
1.668e-09
-4.334e-10
1.721e-09
-4.351e-10
1.774e-09
-4.322e-10
1.827e-09
-4.241e-10
1.878e-09
-4.104e-10
1.926e-09
-3.908e-10
1.972e-09
-3.649e-10
2.014e-09
-3.329e-10
2.051e-09
-2.946e-10
2.083e-09
-2.506e-10
2.108e-09
-2.014e-10
2.127e-09
-1.479e-10
2.139e-09
-9.127e-11
2.143e-09
-3.293e-11
2.139e-09
2.553e-11
2.128e-09
8.261e-11
2.111e-09
1.37e-10
2.087e-09
1.877e-10
2.058e-09
2.34e-10
2.023e-09
2.754e-10
1.985e-09
3.117e-10
1.943e-09
3.426e-10
1.898e-09
3.683e-10
1.85e-09
3.887e-10
1.801e-09
4.039e-10
1.75e-09
4.144e-10
1.699e-09
4.202e-10
1.648e-09
4.218e-10
1.597e-09
4.196e-10
1.546e-09
4.139e-10
1.497e-09
4.053e-10
1.449e-09
3.941e-10
1.402e-09
3.808e-10
1.358e-09
3.659e-10
1.315e-09
3.497e-10
1.274e-09
3.326e-10
1.236e-09
3.149e-10
1.2e-09
2.969e-10
1.166e-09
2.789e-10
1.134e-09
2.611e-10
1.104e-09
2.436e-10
1.076e-09
2.266e-10
1.05e-09
2.102e-10
1.026e-09
1.944e-10
1.004e-09
1.794e-10
9.83e-10
1.652e-10
9.641e-10
1.518e-10
9.467e-10
1.392e-10
9.308e-10
1.274e-10
9.161e-10
1.164e-10
9.027e-10
1.062e-10
8.905e-10
9.67e-11
8.793e-10
8.792e-11
8.692e-10
7.982e-11
8.599e-10
7.237e-11
8.515e-10
6.551e-11
8.438e-10
5.923e-11
8.369e-10
5.348e-11
8.307e-10
4.823e-11
8.25e-10
4.344e-11
8.199e-10
3.908e-11
8.153e-10
3.512e-11
8.111e-10
3.154e-11
8.074e-10
2.83e-11
8.04e-10
2.537e-11
8.01e-10
2.275e-11
7.983e-10
2.04e-11
7.959e-10
1.832e-11
7.937e-10
1.648e-11
7.918e-10
1.487e-11
7.9e-10
1.347e-11
7.885e-10
1.229e-11
7.871e-10
1.13e-11
7.859e-10
1.051e-11
7.848e-10
9.889e-12
7.837e-10
9.445e-12
7.828e-10
9.164e-12
9.041e-12
9.431e-10
4.98e-11
9.565e-10
1.337e-10
9.739e-10
1.997e-10
9.921e-10
2.475e-10
1.009e-09
2.788e-10
1.022e-09
2.96e-10
1.032e-09
3.019e-10
1.039e-09
2.99e-10
1.041e-09
2.896e-10
1.041e-09
2.756e-10
1.039e-09
2.585e-10
1.035e-09
2.395e-10
1.03e-09
2.195e-10
1.023e-09
1.99e-10
1.017e-09
1.785e-10
1.011e-09
1.582e-10
1.005e-09
1.385e-10
9.993e-10
1.193e-10
9.946e-10
1.006e-10
9.907e-10
8.252e-11
9.879e-10
6.495e-11
9.861e-10
4.781e-11
9.855e-10
3.104e-11
9.862e-10
1.453e-11
9.882e-10
-1.818e-12
9.916e-10
-1.81e-11
9.964e-10
-3.441e-11
1.003e-09
-5.086e-11
1.011e-09
-6.755e-11
1.02e-09
-8.456e-11
1.031e-09
-1.02e-10
1.044e-09
-1.199e-10
1.059e-09
-1.383e-10
1.075e-09
-1.574e-10
1.094e-09
-1.771e-10
1.114e-09
-1.974e-10
1.137e-09
-2.184e-10
1.162e-09
-2.399e-10
1.189e-09
-2.62e-10
1.218e-09
-2.846e-10
1.25e-09
-3.074e-10
1.284e-09
-3.303e-10
1.321e-09
-3.531e-10
1.36e-09
-3.755e-10
1.401e-09
-3.971e-10
1.444e-09
-4.176e-10
1.49e-09
-4.364e-10
1.537e-09
-4.531e-10
1.586e-09
-4.671e-10
1.636e-09
-4.777e-10
1.687e-09
-4.845e-10
1.739e-09
-4.866e-10
1.79e-09
-4.836e-10
1.841e-09
-4.748e-10
1.89e-09
-4.597e-10
1.937e-09
-4.38e-10