/*--------------------------------*- C++ -*----------------------------------*\
  =========                 |
  \\      /  F ield         | OpenFOAM: The Open Source CFD Toolbox
   \\    /   O peration     | Website:  https://openfoam.org
    \\  /    A nd           | Version:  7
     \\/     M anipulation  |
\*---------------------------------------------------------------------------*/
FoamFile
{
    version     2.0;
    format      ascii;
    class       volVectorField;
    location    "899.999473410711744";
    object      U;
}
// * * * * * * * * * * * * * * * * * * * * * * * * * * * * * * * * * * * * * //

dimensions      [0 1 -1 0 0 0 0];

internalField   nonuniform List<vector> 
4096
(
(0.001039 0.0001611 0)
(0.0007463 0.0001314 0)
(0.0005302 8.474e-05 0)
(0.0003919 5.358e-05 0)
(0.0003036 3.466e-05 0)
(0.0002457 2.327e-05 0)
(0.0002061 1.631e-05 0)
(0.0001779 1.192e-05 0)
(0.0001569 9.034e-06 0)
(0.0001408 7.042e-06 0)
(0.0001282 5.611e-06 0)
(0.000118 4.545e-06 0)
(0.0001098 3.725e-06 0)
(0.000103 3.079e-06 0)
(9.732e-05 2.557e-06 0)
(9.263e-05 2.128e-06 0)
(8.874e-05 1.769e-06 0)
(8.55e-05 1.463e-06 0)
(8.284e-05 1.199e-06 0)
(8.068e-05 9.672e-07 0)
(7.895e-05 7.606e-07 0)
(7.761e-05 5.739e-07 0)
(7.664e-05 4.025e-07 0)
(7.599e-05 2.427e-07 0)
(7.566e-05 9.152e-08 0)
(7.562e-05 -5.371e-08 0)
(7.587e-05 -1.952e-07 0)
(7.64e-05 -3.35e-07 0)
(7.721e-05 -4.747e-07 0)
(7.83e-05 -6.158e-07 0)
(7.967e-05 -7.597e-07 0)
(8.134e-05 -9.076e-07 0)
(8.331e-05 -1.06e-06 0)
(8.559e-05 -1.219e-06 0)
(8.819e-05 -1.384e-06 0)
(9.113e-05 -1.556e-06 0)
(9.442e-05 -1.735e-06 0)
(9.808e-05 -1.921e-06 0)
(0.0001021 -2.113e-06 0)
(0.0001065 -2.312e-06 0)
(0.0001114 -2.515e-06 0)
(0.0001166 -2.721e-06 0)
(0.0001223 -2.928e-06 0)
(0.0001283 -3.134e-06 0)
(0.0001348 -3.334e-06 0)
(0.0001416 -3.526e-06 0)
(0.0001489 -3.705e-06 0)
(0.0001564 -3.866e-06 0)
(0.0001643 -4.004e-06 0)
(0.0001724 -4.112e-06 0)
(0.0001807 -4.184e-06 0)
(0.0001891 -4.215e-06 0)
(0.0001975 -4.199e-06 0)
(0.0002059 -4.129e-06 0)
(0.000214 -4.002e-06 0)
(0.0002218 -3.812e-06 0)
(0.0002292 -3.56e-06 0)
(0.000236 -3.244e-06 0)
(0.0002421 -2.865e-06 0)
(0.0002474 -2.43e-06 0)
(0.0002518 -1.944e-06 0)
(0.0002551 -1.418e-06 0)
(0.0002574 -8.62e-07 0)
(0.0002586 -2.901e-07 0)
(0.0002586 2.838e-07 0)
(0.0002574 8.461e-07 0)
(0.0002552 1.384e-06 0)
(0.0002519 1.887e-06 0)
(0.0002477 2.345e-06 0)
(0.0002426 2.753e-06 0)
(0.0002367 3.107e-06 0)
(0.0002302 3.403e-06 0)
(0.0002232 3.643e-06 0)
(0.0002157 3.827e-06 0)
(0.0002079 3.957e-06 0)
(0.0001999 4.036e-06 0)
(0.0001918 4.068e-06 0)
(0.0001837 4.058e-06 0)
(0.0001756 4.01e-06 0)
(0.0001677 3.93e-06 0)
(0.00016 3.821e-06 0)
(0.0001524 3.69e-06 0)
(0.0001452 3.54e-06 0)
(0.0001383 3.376e-06 0)
(0.0001317 3.202e-06 0)
(0.0001255 3.022e-06 0)
(0.0001196 2.839e-06 0)
(0.0001141 2.655e-06 0)
(0.000109 2.474e-06 0)
(0.0001042 2.297e-06 0)
(9.982e-05 2.125e-06 0)
(9.574e-05 1.959e-06 0)
(9.198e-05 1.802e-06 0)
(8.852e-05 1.652e-06 0)
(8.536e-05 1.511e-06 0)
(8.247e-05 1.379e-06 0)
(7.983e-05 1.256e-06 0)
(7.744e-05 1.141e-06 0)
(7.526e-05 1.035e-06 0)
(7.329e-05 9.364e-07 0)
(7.151e-05 8.46e-07 0)
(6.99e-05 7.63e-07 0)
(6.845e-05 6.87e-07 0)
(6.714e-05 6.176e-07 0)
(6.597e-05 5.543e-07 0)
(6.492e-05 4.967e-07 0)
(6.398e-05 4.444e-07 0)
(6.314e-05 3.971e-07 0)
(6.239e-05 3.543e-07 0)
(6.172e-05 3.156e-07 0)
(6.112e-05 2.808e-07 0)
(6.059e-05 2.496e-07 0)
(6.012e-05 2.216e-07 0)
(5.97e-05 1.967e-07 0)
(5.933e-05 1.747e-07 0)
(5.9e-05 1.553e-07 0)
(5.87e-05 1.386e-07 0)
(5.844e-05 1.243e-07 0)
(5.82e-05 1.126e-07 0)
(5.799e-05 1.035e-07 0)
(5.779e-05 9.729e-08 0)
(5.76e-05 9.438e-08 0)
(5.741e-05 9.561e-08 0)
(5.721e-05 1.026e-07 0)
(5.699e-05 1.182e-07 0)
(5.672e-05 1.475e-07 0)
(5.638e-05 1.959e-07 0)
(5.593e-05 2.546e-07 0)
(0.001209 0.0003128 0)
(0.001154 0.0003282 0)
(0.00101 0.000248 0)
(0.0008613 0.000177 0)
(0.0007345 0.0001262 0)
(0.0006328 9.14e-05 0)
(0.0005527 6.782e-05 0)
(0.0004897 5.166e-05 0)
(0.0004397 4.029e-05 0)
(0.0003995 3.205e-05 0)
(0.0003669 2.592e-05 0)
(0.00034 2.122e-05 0)
(0.0003178 1.753e-05 0)
(0.0002993 1.458e-05 0)
(0.0002838 1.217e-05 0)
(0.0002709 1.017e-05 0)
(0.00026 8.478e-06 0)
(0.000251 7.031e-06 0)
(0.0002435 5.775e-06 0)
(0.0002374 4.667e-06 0)
(0.0002325 3.677e-06 0)
(0.0002287 2.78e-06 0)
(0.0002259 1.954e-06 0)
(0.0002241 1.183e-06 0)
(0.0002231 4.532e-07 0)
(0.000223 -2.485e-07 0)
(0.0002237 -9.32e-07 0)
(0.0002252 -1.607e-06 0)
(0.0002274 -2.28e-06 0)
(0.0002305 -2.96e-06 0)
(0.0002343 -3.652e-06 0)
(0.000239 -4.362e-06 0)
(0.0002445 -5.094e-06 0)
(0.0002509 -5.852e-06 0)
(0.0002582 -6.638e-06 0)
(0.0002664 -7.455e-06 0)
(0.0002756 -8.304e-06 0)
(0.0002858 -9.183e-06 0)
(0.000297 -1.009e-05 0)
(0.0003092 -1.102e-05 0)
(0.0003226 -1.197e-05 0)
(0.000337 -1.294e-05 0)
(0.0003526 -1.39e-05 0)
(0.0003692 -1.486e-05 0)
(0.0003869 -1.578e-05 0)
(0.0004056 -1.667e-05 0)
(0.0004253 -1.748e-05 0)
(0.0004459 -1.822e-05 0)
(0.0004672 -1.883e-05 0)
(0.0004891 -1.931e-05 0)
(0.0005115 -1.962e-05 0)
(0.000534 -1.974e-05 0)
(0.0005566 -1.964e-05 0)
(0.0005788 -1.928e-05 0)
(0.0006005 -1.867e-05 0)
(0.0006213 -1.776e-05 0)
(0.0006409 -1.657e-05 0)
(0.000659 -1.509e-05 0)
(0.0006752 -1.332e-05 0)
(0.0006892 -1.129e-05 0)
(0.0007008 -9.04e-06 0)
(0.0007097 -6.601e-06 0)
(0.0007158 -4.029e-06 0)
(0.0007189 -1.384e-06 0)
(0.000719 1.272e-06 0)
(0.0007161 3.877e-06 0)
(0.0007103 6.373e-06 0)
(0.0007017 8.711e-06 0)
(0.0006906 1.085e-05 0)
(0.0006772 1.276e-05 0)
(0.0006618 1.442e-05 0)
(0.0006445 1.583e-05 0)
(0.0006258 1.697e-05 0)
(0.0006059 1.786e-05 0)
(0.0005851 1.849e-05 0)
(0.0005638 1.889e-05 0)
(0.000542 1.907e-05 0)
(0.0005201 1.906e-05 0)
(0.0004983 1.886e-05 0)
(0.0004768 1.851e-05 0)
(0.0004558 1.803e-05 0)
(0.0004354 1.744e-05 0)
(0.0004156 1.676e-05 0)
(0.0003967 1.601e-05 0)
(0.0003786 1.521e-05 0)
(0.0003615 1.438e-05 0)
(0.0003453 1.353e-05 0)
(0.0003301 1.267e-05 0)
(0.0003159 1.183e-05 0)
(0.0003026 1.1e-05 0)
(0.0002902 1.019e-05 0)
(0.0002788 9.411e-06 0)
(0.0002682 8.667e-06 0)
(0.0002585 7.96e-06 0)
(0.0002496 7.292e-06 0)
(0.0002414 6.664e-06 0)
(0.000234 6.077e-06 0)
(0.0002271 5.53e-06 0)
(0.0002209 5.022e-06 0)
(0.0002153 4.552e-06 0)
(0.0002102 4.119e-06 0)
(0.0002056 3.72e-06 0)
(0.0002014 3.355e-06 0)
(0.0001976 3.02e-06 0)
(0.0001942 2.715e-06 0)
(0.0001912 2.437e-06 0)
(0.0001885 2.184e-06 0)
(0.000186 1.955e-06 0)
(0.0001838 1.747e-06 0)
(0.0001818 1.559e-06 0)
(0.0001801 1.39e-06 0)
(0.0001785 1.238e-06 0)
(0.0001771 1.102e-06 0)
(0.0001759 9.801e-07 0)
(0.0001748 8.722e-07 0)
(0.0001738 7.774e-07 0)
(0.0001729 6.95e-07 0)
(0.0001721 6.248e-07 0)
(0.0001714 5.666e-07 0)
(0.0001707 5.209e-07 0)
(0.0001701 4.884e-07 0)
(0.0001695 4.706e-07 0)
(0.000169 4.7e-07 0)
(0.0001684 4.909e-07 0)
(0.0001678 5.4e-07 0)
(0.0001672 6.267e-07 0)
(0.0001665 7.557e-07 0)
(0.0001657 8.905e-07 0)
(0.001226 0.0002775 0)
(0.001243 0.0004027 0)
(0.001194 0.0003664 0)
(0.001102 0.0002982 0)
(0.0009999 0.0002344 0)
(0.0009019 0.0001829 0)
(0.0008147 0.0001435 0)
(0.0007398 0.0001139 0)
(0.0006764 9.153e-05 0)
(0.0006229 7.445e-05 0)
(0.0005779 6.12e-05 0)
(0.0005399 5.073e-05 0)
(0.0005078 4.232e-05 0)
(0.0004807 3.545e-05 0)
(0.0004577 2.977e-05 0)
(0.0004382 2.499e-05 0)
(0.0004218 2.092e-05 0)
(0.000408 1.74e-05 0)
(0.0003966 1.433e-05 0)
(0.0003872 1.161e-05 0)
(0.0003797 9.161e-06 0)
(0.0003738 6.935e-06 0)
(0.0003695 4.88e-06 0)
(0.0003667 2.957e-06 0)
(0.0003652 1.133e-06 0)
(0.000365 -6.222e-07 0)
(0.0003661 -2.333e-06 0)
(0.0003684 -4.022e-06 0)
(0.000372 -5.707e-06 0)
(0.0003768 -7.407e-06 0)
(0.0003829 -9.135e-06 0)
(0.0003902 -1.09e-05 0)
(0.0003989 -1.273e-05 0)
(0.0004089 -1.461e-05 0)
(0.0004203 -1.656e-05 0)
(0.0004331 -1.858e-05 0)
(0.0004475 -2.068e-05 0)
(0.0004633 -2.285e-05 0)
(0.0004808 -2.508e-05 0)
(0.0004998 -2.737e-05 0)
(0.0005206 -2.97e-05 0)
(0.000543 -3.205e-05 0)
(0.000567 -3.439e-05 0)
(0.0005927 -3.671e-05 0)
(0.00062 -3.895e-05 0)
(0.0006489 -4.108e-05 0)
(0.0006792 -4.304e-05 0)
(0.0007107 -4.479e-05 0)
(0.0007434 -4.625e-05 0)
(0.000777 -4.737e-05 0)
(0.0008112 -4.808e-05 0)
(0.0008456 -4.831e-05 0)
(0.00088 -4.801e-05 0)
(0.0009139 -4.71e-05 0)
(0.0009469 -4.555e-05 0)
(0.0009786 -4.331e-05 0)
(0.001008 -4.038e-05 0)
(0.001036 -3.674e-05 0)
(0.00106 -3.243e-05 0)
(0.001082 -2.75e-05 0)
(0.001099 -2.202e-05 0)
(0.001113 -1.61e-05 0)
(0.001122 -9.86e-06 0)
(0.001127 -3.445e-06 0)
(0.001127 2.998e-06 0)
(0.001123 9.322e-06 0)
(0.001114 1.539e-05 0)
(0.001101 2.108e-05 0)
(0.001085 2.63e-05 0)
(0.001064 3.098e-05 0)
(0.001041 3.506e-05 0)
(0.001015 3.853e-05 0)
(0.0009864 4.136e-05 0)
(0.0009562 4.357e-05 0)
(0.0009246 4.518e-05 0)
(0.0008919 4.621e-05 0)
(0.0008587 4.672e-05 0)
(0.0008253 4.674e-05 0)
(0.0007919 4.632e-05 0)
(0.0007589 4.552e-05 0)
(0.0007266 4.44e-05 0)
(0.0006951 4.3e-05 0)
(0.0006647 4.137e-05 0)
(0.0006355 3.957e-05 0)
(0.0006075 3.765e-05 0)
(0.0005809 3.564e-05 0)
(0.0005558 3.358e-05 0)
(0.0005322 3.15e-05 0)
(0.00051 2.943e-05 0)
(0.0004892 2.74e-05 0)
(0.0004699 2.542e-05 0)
(0.000452 2.351e-05 0)
(0.0004355 2.168e-05 0)
(0.0004202 1.994e-05 0)
(0.0004061 1.829e-05 0)
(0.0003932 1.674e-05 0)
(0.0003814 1.528e-05 0)
(0.0003706 1.392e-05 0)
(0.0003608 1.266e-05 0)
(0.0003519 1.149e-05 0)
(0.0003437 1.041e-05 0)
(0.0003364 9.417e-06 0)
(0.0003297 8.503e-06 0)
(0.0003237 7.666e-06 0)
(0.0003182 6.9e-06 0)
(0.0003133 6.202e-06 0)
(0.0003089 5.567e-06 0)
(0.000305 4.989e-06 0)
(0.0003014 4.466e-06 0)
(0.0002982 3.992e-06 0)
(0.0002954 3.565e-06 0)
(0.0002928 3.18e-06 0)
(0.0002905 2.835e-06 0)
(0.0002885 2.526e-06 0)
(0.0002867 2.252e-06 0)
(0.0002851 2.011e-06 0)
(0.0002836 1.801e-06 0)
(0.0002823 1.62e-06 0)
(0.0002811 1.47e-06 0)
(0.00028 1.35e-06 0)
(0.000279 1.261e-06 0)
(0.0002781 1.206e-06 0)
(0.0002772 1.188e-06 0)
(0.0002764 1.212e-06 0)
(0.0002755 1.284e-06 0)
(0.0002746 1.408e-06 0)
(0.0002737 1.576e-06 0)
(0.0002728 1.722e-06 0)
(0.001224 0.0002275 0)
(0.00126 0.0004003 0)
(0.001258 0.0004192 0)
(0.001216 0.0003788 0)
(0.00115 0.0003227 0)
(0.001074 0.0002682 0)
(0.0009981 0.0002211 0)
(0.000927 0.0001823 0)
(0.0008628 0.0001508 0)
(0.0008059 0.0001255 0)
(0.0007562 0.0001049 0)
(0.0007129 8.819e-05 0)
(0.0006755 7.437e-05 0)
(0.0006432 6.285e-05 0)
(0.0006154 5.313e-05 0)
(0.0005917 4.486e-05 0)
(0.0005714 3.772e-05 0)
(0.0005543 3.15e-05 0)
(0.0005399 2.601e-05 0)
(0.0005281 2.111e-05 0)
(0.0005186 1.669e-05 0)
(0.0005113 1.264e-05 0)
(0.0005058 8.892e-06 0)
(0.0005023 5.37e-06 0)
(0.0005005 2.018e-06 0)
(0.0005003 -1.212e-06 0)
(0.0005019 -4.365e-06 0)
(0.000505 -7.479e-06 0)
(0.0005098 -1.059e-05 0)
(0.0005162 -1.372e-05 0)
(0.0005242 -1.691e-05 0)
(0.0005339 -2.016e-05 0)
(0.0005453 -2.352e-05 0)
(0.0005584 -2.697e-05 0)
(0.0005734 -3.055e-05 0)
(0.0005902 -3.426e-05 0)
(0.0006089 -3.809e-05 0)
(0.0006297 -4.204e-05 0)
(0.0006524 -4.61e-05 0)
(0.0006773 -5.026e-05 0)
(0.0007043 -5.449e-05 0)
(0.0007334 -5.874e-05 0)
(0.0007646 -6.299e-05 0)
(0.0007979 -6.716e-05 0)
(0.0008333 -7.119e-05 0)
(0.0008706 -7.5e-05 0)
(0.0009097 -7.851e-05 0)
(0.0009504 -8.162e-05 0)
(0.0009925 -8.421e-05 0)
(0.001036 -8.617e-05 0)
(0.00108 -8.739e-05 0)
(0.001124 -8.774e-05 0)
(0.001168 -8.711e-05 0)
(0.001212 -8.541e-05 0)
(0.001254 -8.255e-05 0)
(0.001294 -7.846e-05 0)
(0.001333 -7.311e-05 0)
(0.001368 -6.651e-05 0)
(0.001399 -5.87e-05 0)
(0.001426 -4.978e-05 0)
(0.001449 -3.988e-05 0)
(0.001466 -2.919e-05 0)
(0.001478 -1.793e-05 0)
(0.001484 -6.353e-06 0)
(0.001485 5.277e-06 0)
(0.001479 1.67e-05 0)
(0.001468 2.766e-05 0)
(0.001452 3.797e-05 0)
(0.001431 4.743e-05 0)
(0.001405 5.592e-05 0)
(0.001375 6.335e-05 0)
(0.001342 6.967e-05 0)
(0.001306 7.486e-05 0)
(0.001267 7.894e-05 0)
(0.001226 8.193e-05 0)
(0.001185 8.389e-05 0)
(0.001142 8.49e-05 0)
(0.001099 8.502e-05 0)
(0.001056 8.435e-05 0)
(0.001014 8.298e-05 0)
(0.0009718 8.101e-05 0)
(0.0009311 7.854e-05 0)
(0.0008917 7.565e-05 0)
(0.0008538 7.245e-05 0)
(0.0008175 6.9e-05 0)
(0.000783 6.538e-05 0)
(0.0007503 6.167e-05 0)
(0.0007194 5.792e-05 0)
(0.0006904 5.418e-05 0)
(0.0006633 5.05e-05 0)
(0.000638 4.691e-05 0)
(0.0006145 4.343e-05 0)
(0.0005928 4.01e-05 0)
(0.0005727 3.692e-05 0)
(0.0005541 3.39e-05 0)
(0.0005371 3.106e-05 0)
(0.0005215 2.839e-05 0)
(0.0005072 2.589e-05 0)
(0.0004941 2.357e-05 0)
(0.0004823 2.142e-05 0)
(0.0004714 1.943e-05 0)
(0.0004616 1.759e-05 0)
(0.0004527 1.59e-05 0)
(0.0004446 1.435e-05 0)
(0.0004374 1.294e-05 0)
(0.0004308 1.164e-05 0)
(0.0004248 1.046e-05 0)
(0.0004195 9.389e-06 0)
(0.0004147 8.415e-06 0)
(0.0004104 7.533e-06 0)
(0.0004066 6.735e-06 0)
(0.0004031 6.017e-06 0)
(0.0004 5.371e-06 0)
(0.0003972 4.793e-06 0)
(0.0003948 4.279e-06 0)
(0.0003925 3.825e-06 0)
(0.0003906 3.428e-06 0)
(0.0003888 3.086e-06 0)
(0.0003872 2.798e-06 0)
(0.0003857 2.564e-06 0)
(0.0003843 2.385e-06 0)
(0.0003831 2.262e-06 0)
(0.0003819 2.199e-06 0)
(0.0003808 2.199e-06 0)
(0.0003797 2.263e-06 0)
(0.0003786 2.389e-06 0)
(0.0003776 2.552e-06 0)
(0.0003766 2.681e-06 0)
(0.001219 0.0001846 0)
(0.001255 0.0003712 0)
(0.001275 0.0004299 0)
(0.001265 0.0004208 0)
(0.001229 0.0003824 0)
(0.001179 0.0003349 0)
(0.001121 0.0002881 0)
(0.001062 0.0002457 0)
(0.001004 0.0002089 0)
(0.0009509 0.0001777 0)
(0.0009022 0.0001512 0)
(0.0008585 0.0001289 0)
(0.0008197 0.0001099 0)
(0.0007856 9.375e-05 0)
(0.0007557 7.987e-05 0)
(0.0007297 6.784e-05 0)
(0.0007074 5.734e-05 0)
(0.0006883 4.807e-05 0)
(0.0006723 3.982e-05 0)
(0.000659 3.24e-05 0)
(0.0006483 2.564e-05 0)
(0.0006399 1.942e-05 0)
(0.0006338 1.363e-05 0)
(0.0006299 8.166e-06 0)
(0.0006279 2.951e-06 0)
(0.000628 -2.09e-06 0)
(0.00063 -7.019e-06 0)
(0.0006339 -1.189e-05 0)
(0.0006398 -1.676e-05 0)
(0.0006475 -2.168e-05 0)
(0.0006572 -2.667e-05 0)
(0.0006689 -3.177e-05 0)
(0.0006826 -3.701e-05 0)
(0.0006984 -4.242e-05 0)
(0.0007163 -4.8e-05 0)
(0.0007365 -5.378e-05 0)
(0.0007589 -5.974e-05 0)
(0.0007837 -6.589e-05 0)
(0.0008109 -7.22e-05 0)
(0.0008405 -7.865e-05 0)
(0.0008726 -8.519e-05 0)
(0.0009072 -9.176e-05 0)
(0.0009443 -9.831e-05 0)
(0.0009839 -0.0001047 0)
(0.001026 -0.0001109 0)
(0.00107 -0.0001168 0)
(0.001116 -0.0001221 0)
(0.001164 -0.0001269 0)
(0.001214 -0.0001308 0)
(0.001265 -0.0001338 0)
(0.001317 -0.0001356 0)
(0.001369 -0.000136 0)
(0.001421 -0.000135 0)
(0.001473 -0.0001323 0)
(0.001522 -0.0001278 0)
(0.00157 -0.0001214 0)
(0.001615 -0.0001132 0)
(0.001657 -0.0001029 0)
(0.001694 -9.085e-05 0)
(0.001726 -7.706e-05 0)
(0.001752 -6.177e-05 0)
(0.001773 -4.526e-05 0)
(0.001787 -2.787e-05 0)
(0.001794 -9.986e-06 0)
(0.001795 7.978e-06 0)
(0.001789 2.562e-05 0)
(0.001776 4.257e-05 0)
(0.001757 5.85e-05 0)
(0.001732 7.314e-05 0)
(0.001701 8.63e-05 0)
(0.001666 9.784e-05 0)
(0.001627 0.0001077 0)
(0.001585 0.0001158 0)
(0.001539 0.0001222 0)
(0.001491 0.0001269 0)
(0.001442 0.00013 0)
(0.001392 0.0001317 0)
(0.001341 0.000132 0)
(0.00129 0.000131 0)
(0.00124 0.000129 0)
(0.001191 0.0001261 0)
(0.001143 0.0001223 0)
(0.001096 0.000118 0)
(0.001051 0.0001131 0)
(0.001008 0.0001078 0)
(0.0009667 0.0001022 0)
(0.0009277 9.652e-05 0)
(0.0008909 9.074e-05 0)
(0.0008563 8.497e-05 0)
(0.0008238 7.927e-05 0)
(0.0007936 7.37e-05 0)
(0.0007654 6.831e-05 0)
(0.0007392 6.313e-05 0)
(0.0007151 5.818e-05 0)
(0.0006927 5.348e-05 0)
(0.0006722 4.904e-05 0)
(0.0006533 4.488e-05 0)
(0.0006361 4.098e-05 0)
(0.0006203 3.734e-05 0)
(0.0006059 3.396e-05 0)
(0.0005927 3.084e-05 0)
(0.0005808 2.795e-05 0)
(0.0005699 2.53e-05 0)
(0.0005601 2.286e-05 0)
(0.0005512 2.062e-05 0)
(0.0005431 1.858e-05 0)
(0.0005359 1.671e-05 0)
(0.0005293 1.502e-05 0)
(0.0005234 1.347e-05 0)
(0.0005181 1.208e-05 0)
(0.0005134 1.081e-05 0)
(0.0005091 9.668e-06 0)
(0.0005053 8.641e-06 0)
(0.0005019 7.72e-06 0)
(0.0004988 6.9e-06 0)
(0.000496 6.173e-06 0)
(0.0004936 5.535e-06 0)
(0.0004914 4.983e-06 0)
(0.0004894 4.513e-06 0)
(0.0004875 4.125e-06 0)
(0.0004859 3.819e-06 0)
(0.0004844 3.594e-06 0)
(0.000483 3.452e-06 0)
(0.0004816 3.394e-06 0)
(0.0004804 3.417e-06 0)
(0.0004792 3.509e-06 0)
(0.000478 3.64e-06 0)
(0.0004769 3.742e-06 0)
(0.001214 0.000152 0)
(0.001246 0.0003353 0)
(0.001274 0.0004179 0)
(0.001282 0.000435 0)
(0.001269 0.0004162 0)
(0.00124 0.0003808 0)
(0.001201 0.0003396 0)
(0.001156 0.0002985 0)
(0.001109 0.0002602 0)
(0.001063 0.0002258 0)
(0.001019 0.0001955 0)
(0.0009785 0.0001689 0)
(0.0009414 0.0001457 0)
(0.000908 0.0001255 0)
(0.0008783 0.0001077 0)
(0.0008521 9.211e-05 0)
(0.0008292 7.826e-05 0)
(0.0008096 6.589e-05 0)
(0.0007929 5.476e-05 0)
(0.000779 4.464e-05 0)
(0.0007677 3.536e-05 0)
(0.000759 2.677e-05 0)
(0.0007527 1.871e-05 0)
(0.0007487 1.108e-05 0)
(0.0007469 3.76e-06 0)
(0.0007472 -3.336e-06 0)
(0.0007497 -1.029e-05 0)
(0.0007544 -1.718e-05 0)
(0.0007612 -2.408e-05 0)
(0.0007701 -3.103e-05 0)
(0.0007812 -3.81e-05 0)
(0.0007945 -4.533e-05 0)
(0.0008101 -5.275e-05 0)
(0.000828 -6.04e-05 0)
(0.0008483 -6.83e-05 0)
(0.0008712 -7.645e-05 0)
(0.0008965 -8.487e-05 0)
(0.0009245 -9.353e-05 0)
(0.0009552 -0.0001024 0)
(0.0009886 -0.0001115 0)
(0.001025 -0.0001207 0)
(0.001064 -0.0001299 0)
(0.001105 -0.000139 0)
(0.00115 -0.000148 0)
(0.001197 -0.0001567 0)
(0.001247 -0.0001648 0)
(0.001299 -0.0001723 0)
(0.001353 -0.0001789 0)
(0.001408 -0.0001843 0)
(0.001466 -0.0001884 0)
(0.001524 -0.0001909 0)
(0.001582 -0.0001915 0)
(0.00164 -0.0001899 0)
(0.001698 -0.0001861 0)
(0.001754 -0.0001798 0)
(0.001807 -0.0001708 0)
(0.001858 -0.0001591 0)
(0.001904 -0.0001448 0)
(0.001946 -0.0001278 0)
(0.001982 -0.0001084 0)
(0.002012 -8.695e-05 0)
(0.002035 -6.376e-05 0)
(0.002051 -3.934e-05 0)
(0.002059 -1.422e-05 0)
(0.00206 1.101e-05 0)
(0.002053 3.58e-05 0)
(0.002039 5.961e-05 0)
(0.002017 8.198e-05 0)
(0.001989 0.0001026 0)
(0.001955 0.0001211 0)
(0.001916 0.0001373 0)
(0.001872 0.0001512 0)
(0.001825 0.0001626 0)
(0.001774 0.0001717 0)
(0.00172 0.0001784 0)
(0.001665 0.0001829 0)
(0.001609 0.0001854 0)
(0.001552 0.0001859 0)
(0.001495 0.0001847 0)
(0.001439 0.000182 0)
(0.001383 0.000178 0)
(0.001329 0.0001728 0)
(0.001277 0.0001667 0)
(0.001226 0.0001599 0)
(0.001178 0.0001526 0)
(0.001131 0.0001448 0)
(0.001087 0.0001368 0)
(0.001046 0.0001288 0)
(0.001007 0.0001207 0)
(0.00097 0.0001127 0)
(0.0009357 0.0001049 0)
(0.0009038 9.727e-05 0)
(0.0008741 8.997e-05 0)
(0.0008466 8.299e-05 0)
(0.0008213 7.636e-05 0)
(0.0007979 7.009e-05 0)
(0.0007764 6.419e-05 0)
(0.0007567 5.866e-05 0)
(0.0007386 5.351e-05 0)
(0.0007221 4.872e-05 0)
(0.0007071 4.427e-05 0)
(0.0006934 4.017e-05 0)
(0.0006809 3.639e-05 0)
(0.0006696 3.291e-05 0)
(0.0006593 2.972e-05 0)
(0.0006501 2.68e-05 0)
(0.0006417 2.414e-05 0)
(0.0006341 2.171e-05 0)
(0.0006273 1.95e-05 0)
(0.0006212 1.749e-05 0)
(0.0006156 1.567e-05 0)
(0.0006107 1.403e-05 0)
(0.0006062 1.255e-05 0)
(0.0006022 1.123e-05 0)
(0.0005986 1.004e-05 0)
(0.0005954 8.991e-06 0)
(0.0005926 8.064e-06 0)
(0.00059 7.258e-06 0)
(0.0005876 6.566e-06 0)
(0.0005855 5.986e-06 0)
(0.0005836 5.516e-06 0)
(0.0005819 5.155e-06 0)
(0.0005803 4.902e-06 0)
(0.0005788 4.753e-06 0)
(0.0005774 4.702e-06 0)
(0.0005761 4.733e-06 0)
(0.0005749 4.813e-06 0)
(0.0005737 4.883e-06 0)
(0.00121 0.0001278 0)
(0.001237 0.0003005 0)
(0.001267 0.0003952 0)
(0.001285 0.0004314 0)
(0.001287 0.0004303 0)
(0.001275 0.0004081 0)
(0.001251 0.0003754 0)
(0.00122 0.0003388 0)
(0.001185 0.000302 0)
(0.001148 0.000267 0)
(0.001111 0.0002348 0)
(0.001076 0.0002056 0)
(0.001042 0.0001794 0)
(0.001012 0.0001559 0)
(0.0009839 0.0001349 0)
(0.000959 0.0001161 0)
(0.000937 9.914e-05 0)
(0.0009178 8.382e-05 0)
(0.0009014 6.988e-05 0)
(0.0008878 5.708e-05 0)
(0.0008767 4.524e-05 0)
(0.0008681 3.419e-05 0)
(0.000862 2.377e-05 0)
(0.0008582 1.384e-05 0)
(0.0008567 4.28e-06 0)
(0.0008575 -5.024e-06 0)
(0.0008605 -1.417e-05 0)
(0.0008658 -2.325e-05 0)
(0.0008734 -3.235e-05 0)
(0.0008833 -4.154e-05 0)
(0.0008955 -5.089e-05 0)
(0.0009101 -6.045e-05 0)
(0.0009271 -7.026e-05 0)
(0.0009467 -8.037e-05 0)
(0.0009688 -9.08e-05 0)
(0.0009936 -0.0001016 0)
(0.001021 -0.0001127 0)
(0.001052 -0.0001241 0)
(0.001085 -0.0001358 0)
(0.001121 -0.0001477 0)
(0.00116 -0.0001598 0)
(0.001202 -0.0001719 0)
(0.001247 -0.0001839 0)
(0.001296 -0.0001957 0)
(0.001346 -0.000207 0)
(0.0014 -0.0002177 0)
(0.001456 -0.0002275 0)
(0.001515 -0.0002361 0)
(0.001575 -0.0002432 0)
(0.001637 -0.0002485 0)
(0.001699 -0.0002517 0)
(0.001763 -0.0002524 0)
(0.001826 -0.0002504 0)
(0.001888 -0.0002453 0)
(0.001948 -0.000237 0)
(0.002006 -0.0002252 0)
(0.002061 -0.0002098 0)
(0.002112 -0.0001909 0)
(0.002157 -0.0001686 0)
(0.002196 -0.0001431 0)
(0.002229 -0.0001148 0)
(0.002254 -8.424e-05 0)
(0.002271 -5.204e-05 0)
(0.00228 -1.893e-05 0)
(0.002281 1.434e-05 0)
(0.002273 4.7e-05 0)
(0.002258 7.837e-05 0)
(0.002235 0.0001078 0)
(0.002204 0.0001349 0)
(0.002168 0.0001593 0)
(0.002125 0.0001807 0)
(0.002078 0.000199 0)
(0.002026 0.0002141 0)
(0.001971 0.0002261 0)
(0.001914 0.000235 0)
(0.001854 0.0002411 0)
(0.001793 0.0002444 0)
(0.001732 0.0002452 0)
(0.00167 0.0002437 0)
(0.001609 0.0002403 0)
(0.001549 0.0002351 0)
(0.001491 0.0002284 0)
(0.001434 0.0002205 0)
(0.001379 0.0002116 0)
(0.001327 0.000202 0)
(0.001276 0.0001919 0)
(0.001229 0.0001814 0)
(0.001184 0.0001708 0)
(0.001141 0.0001602 0)
(0.001101 0.0001497 0)
(0.001064 0.0001394 0)
(0.001029 0.0001294 0)
(0.0009968 0.0001198 0)
(0.0009669 0.0001106 0)
(0.0009392 0.0001018 0)
(0.0009136 9.354e-05 0)
(0.0008901 8.574e-05 0)
(0.0008685 7.843e-05 0)
(0.0008487 7.159e-05 0)
(0.0008306 6.524e-05 0)
(0.0008141 5.934e-05 0)
(0.000799 5.388e-05 0)
(0.0007853 4.885e-05 0)
(0.0007728 4.422e-05 0)
(0.0007615 3.997e-05 0)
(0.0007513 3.608e-05 0)
(0.000742 3.252e-05 0)
(0.0007336 2.927e-05 0)
(0.0007261 2.632e-05 0)
(0.0007193 2.363e-05 0)
(0.0007131 2.12e-05 0)
(0.0007076 1.899e-05 0)
(0.0007026 1.701e-05 0)
(0.0006982 1.522e-05 0)
(0.0006942 1.363e-05 0)
(0.0006906 1.22e-05 0)
(0.0006874 1.095e-05 0)
(0.0006845 9.847e-06 0)
(0.0006819 8.898e-06 0)
(0.0006796 8.093e-06 0)
(0.0006775 7.428e-06 0)
(0.0006755 6.9e-06 0)
(0.0006738 6.504e-06 0)
(0.0006722 6.235e-06 0)
(0.0006707 6.084e-06 0)
(0.0006694 6.031e-06 0)
(0.0006681 6.047e-06 0)
(0.0006668 6.081e-06 0)
(0.001208 0.0001096 0)
(0.00123 0.0002694 0)
(0.001259 0.0003685 0)
(0.001281 0.0004174 0)
(0.001293 0.0004305 0)
(0.001293 0.0004207 0)
(0.001282 0.0003973 0)
(0.001263 0.0003668 0)
(0.001239 0.0003335 0)
(0.001211 0.0002999 0)
(0.001182 0.0002676 0)
(0.001153 0.0002372 0)
(0.001125 0.0002092 0)
(0.001098 0.0001834 0)
(0.001074 0.0001599 0)
(0.001051 0.0001385 0)
(0.001031 0.0001189 0)
(0.001013 0.0001009 0)
(0.0009981 8.438e-05 0)
(0.0009853 6.904e-05 0)
(0.0009749 5.473e-05 0)
(0.000967 4.126e-05 0)
(0.0009613 2.848e-05 0)
(0.000958 1.623e-05 0)
(0.0009571 4.372e-06 0)
(0.0009584 -7.21e-06 0)
(0.000962 -1.863e-05 0)
(0.0009679 -3e-05 0)
(0.0009761 -4.142e-05 0)
(0.0009867 -5.296e-05 0)
(0.0009997 -6.47e-05 0)
(0.001015 -7.672e-05 0)
(0.001033 -8.906e-05 0)
(0.001054 -0.0001018 0)
(0.001077 -0.0001149 0)
(0.001103 -0.0001284 0)
(0.001132 -0.0001424 0)
(0.001164 -0.0001567 0)
(0.001199 -0.0001714 0)
(0.001237 -0.0001863 0)
(0.001278 -0.0002015 0)
(0.001323 -0.0002166 0)
(0.00137 -0.0002317 0)
(0.001421 -0.0002464 0)
(0.001474 -0.0002606 0)
(0.00153 -0.000274 0)
(0.001589 -0.0002862 0)
(0.00165 -0.000297 0)
(0.001714 -0.0003059 0)
(0.001779 -0.0003125 0)
(0.001845 -0.0003165 0)
(0.001911 -0.0003174 0)
(0.001978 -0.0003149 0)
(0.002043 -0.0003086 0)
(0.002107 -0.0002981 0)
(0.002168 -0.0002833 0)
(0.002226 -0.0002641 0)
(0.00228 -0.0002404 0)
(0.002328 -0.0002124 0)
(0.002369 -0.0001803 0)
(0.002404 -0.0001447 0)
(0.002431 -0.0001063 0)
(0.002449 -6.57e-05 0)
(0.002459 -2.398e-05 0)
(0.002459 1.793e-05 0)
(0.002451 5.905e-05 0)
(0.002435 9.851e-05 0)
(0.00241 0.0001356 0)
(0.002378 0.0001696 0)
(0.002339 0.0002002 0)
(0.002294 0.000227 0)
(0.002244 0.00025 0)
(0.00219 0.000269 0)
(0.002132 0.0002841 0)
(0.002072 0.0002954 0)
(0.002009 0.000303 0)
(0.001945 0.0003073 0)
(0.00188 0.0003084 0)
(0.001816 0.0003066 0)
(0.001752 0.0003024 0)
(0.001689 0.0002959 0)
(0.001627 0.0002876 0)
(0.001567 0.0002778 0)
(0.00151 0.0002668 0)
(0.001454 0.0002548 0)
(0.001401 0.0002421 0)
(0.001351 0.000229 0)
(0.001304 0.0002158 0)
(0.001259 0.0002025 0)
(0.001217 0.0001893 0)
(0.001178 0.0001764 0)
(0.001141 0.0001639 0)
(0.001107 0.0001518 0)
(0.001075 0.0001402 0)
(0.001046 0.0001292 0)
(0.001019 0.0001188 0)
(0.0009941 0.0001089 0)
(0.0009713 9.971e-05 0)
(0.0009503 9.109e-05 0)
(0.0009311 8.306e-05 0)
(0.0009135 7.561e-05 0)
(0.0008975 6.871e-05 0)
(0.0008829 6.234e-05 0)
(0.0008696 5.648e-05 0)
(0.0008575 5.109e-05 0)
(0.0008466 4.615e-05 0)
(0.0008366 4.163e-05 0)
(0.0008277 3.751e-05 0)
(0.0008196 3.375e-05 0)
(0.0008123 3.033e-05 0)
(0.0008057 2.722e-05 0)
(0.0007997 2.442e-05 0)
(0.0007944 2.188e-05 0)
(0.0007896 1.96e-05 0)
(0.0007853 1.755e-05 0)
(0.0007814 1.572e-05 0)
(0.000778 1.411e-05 0)
(0.0007749 1.268e-05 0)
(0.0007721 1.145e-05 0)
(0.0007696 1.039e-05 0)
(0.0007673 9.501e-06 0)
(0.0007653 8.779e-06 0)
(0.0007634 8.215e-06 0)
(0.0007617 7.803e-06 0)
(0.0007602 7.53e-06 0)
(0.0007588 7.378e-06 0)
(0.0007575 7.319e-06 0)
(0.0007562 7.314e-06 0)
(0.001206 9.556e-05 0)
(0.001225 0.0002422 0)
(0.001251 0.0003412 0)
(0.001276 0.0003977 0)
(0.001293 0.0004215 0)
(0.001301 0.0004222 0)
(0.0013 0.0004076 0)
(0.001291 0.0003839 0)
(0.001276 0.0003551 0)
(0.001258 0.0003243 0)
(0.001237 0.0002932 0)
(0.001215 0.000263 0)
(0.001192 0.0002341 0)
(0.00117 0.0002071 0)
(0.001149 0.0001818 0)
(0.00113 0.0001584 0)
(0.001112 0.0001367 0)
(0.001097 0.0001165 0)
(0.001083 9.762e-05 0)
(0.001072 7.998e-05 0)
(0.001063 6.337e-05 0)
(0.001056 4.762e-05 0)
(0.001051 3.256e-05 0)
(0.001048 1.804e-05 0)
(0.001048 3.926e-06 0)
(0.00105 -9.923e-06 0)
(0.001054 -2.363e-05 0)
(0.00106 -3.731e-05 0)
(0.001069 -5.107e-05 0)
(0.00108 -6.501e-05 0)
(0.001094 -7.92e-05 0)
(0.00111 -9.374e-05 0)
(0.001128 -0.0001087 0)
(0.001149 -0.0001241 0)
(0.001173 -0.0001399 0)
(0.0012 -0.0001563 0)
(0.00123 -0.0001732 0)
(0.001263 -0.0001905 0)
(0.001298 -0.0002083 0)
(0.001337 -0.0002264 0)
(0.001379 -0.0002446 0)
(0.001425 -0.000263 0)
(0.001473 -0.0002812 0)
(0.001525 -0.000299 0)
(0.00158 -0.0003162 0)
(0.001637 -0.0003323 0)
(0.001698 -0.0003471 0)
(0.00176 -0.0003602 0)
(0.001825 -0.0003709 0)
(0.001892 -0.000379 0)
(0.00196 -0.0003839 0)
(0.002028 -0.0003851 0)
(0.002097 -0.0003821 0)
(0.002164 -0.0003745 0)
(0.00223 -0.000362 0)
(0.002294 -0.0003442 0)
(0.002354 -0.0003209 0)
(0.002409 -0.0002923 0)
(0.002459 -0.0002583 0)
(0.002502 -0.0002194 0)
(0.002538 -0.0001762 0)
(0.002566 -0.0001294 0)
(0.002585 -8.003e-05 0)
(0.002595 -2.922e-05 0)
(0.002596 2.179e-05 0)
(0.002587 7.18e-05 0)
(0.00257 0.0001197 0)
(0.002544 0.0001647 0)
(0.002511 0.0002059 0)
(0.002471 0.0002429 0)
(0.002424 0.0002754 0)
(0.002373 0.0003032 0)
(0.002317 0.0003262 0)
(0.002257 0.0003444 0)
(0.002195 0.0003581 0)
(0.00213 0.0003674 0)
(0.002064 0.0003726 0)
(0.001998 0.000374 0)
(0.001932 0.000372 0)
(0.001866 0.0003669 0)
(0.001801 0.0003592 0)
(0.001738 0.0003492 0)
(0.001677 0.0003373 0)
(0.001618 0.000324 0)
(0.001561 0.0003096 0)
(0.001507 0.0002943 0)
(0.001455 0.0002785 0)
(0.001406 0.0002625 0)
(0.001361 0.0002464 0)
(0.001317 0.0002305 0)
(0.001277 0.0002149 0)
(0.001239 0.0001997 0)
(0.001204 0.0001851 0)
(0.001172 0.0001711 0)
(0.001142 0.0001577 0)
(0.001114 0.0001451 0)
(0.001088 0.0001331 0)
(0.001065 0.000122 0)
(0.001043 0.0001115 0)
(0.001023 0.0001017 0)
(0.001005 9.266e-05 0)
(0.0009884 8.426e-05 0)
(0.0009733 7.651e-05 0)
(0.0009596 6.936e-05 0)
(0.0009471 6.279e-05 0)
(0.0009357 5.676e-05 0)
(0.0009254 5.124e-05 0)
(0.0009161 4.619e-05 0)
(0.0009077 4.159e-05 0)
(0.0009 3.741e-05 0)
(0.0008932 3.361e-05 0)
(0.000887 3.016e-05 0)
(0.0008814 2.704e-05 0)
(0.0008764 2.424e-05 0)
(0.0008719 2.172e-05 0)
(0.0008679 1.946e-05 0)
(0.0008642 1.746e-05 0)
(0.000861 1.569e-05 0)
(0.0008581 1.414e-05 0)
(0.0008555 1.281e-05 0)
(0.0008531 1.168e-05 0)
(0.000851 1.074e-05 0)
(0.0008491 9.994e-06 0)
(0.0008474 9.42e-06 0)
(0.0008458 9.009e-06 0)
(0.0008444 8.745e-06 0)
(0.0008431 8.605e-06 0)
(0.0008418 8.558e-06 0)
(0.001205 8.433e-05 0)
(0.001221 0.0002185 0)
(0.001245 0.0003148 0)
(0.001269 0.0003753 0)
(0.00129 0.0004066 0)
(0.001303 0.0004156 0)
(0.001309 0.0004089 0)
(0.001309 0.0003917 0)
(0.001302 0.000368 0)
(0.001292 0.0003407 0)
(0.001278 0.0003117 0)
(0.001262 0.0002825 0)
(0.001246 0.0002538 0)
(0.001229 0.0002263 0)
(0.001212 0.0002 0)
(0.001196 0.0001752 0)
(0.001182 0.0001519 0)
(0.001169 0.0001299 0)
(0.001157 0.0001091 0)
(0.001148 8.948e-05 0)
(0.00114 7.082e-05 0)
(0.001134 5.298e-05 0)
(0.001131 3.581e-05 0)
(0.001129 1.916e-05 0)
(0.001129 2.879e-06 0)
(0.001131 -1.316e-05 0)
(0.001136 -2.909e-05 0)
(0.001143 -4.503e-05 0)
(0.001152 -6.111e-05 0)
(0.001163 -7.742e-05 0)
(0.001177 -9.405e-05 0)
(0.001193 -0.0001111 0)
(0.001212 -0.0001286 0)
(0.001233 -0.0001467 0)
(0.001257 -0.0001653 0)
(0.001284 -0.0001846 0)
(0.001314 -0.0002044 0)
(0.001347 -0.0002247 0)
(0.001382 -0.0002456 0)
(0.001421 -0.0002668 0)
(0.001463 -0.0002883 0)
(0.001508 -0.0003099 0)
(0.001557 -0.0003313 0)
(0.001609 -0.0003522 0)
(0.001663 -0.0003724 0)
(0.001721 -0.0003914 0)
(0.001782 -0.0004089 0)
(0.001845 -0.0004243 0)
(0.00191 -0.000437 0)
(0.001977 -0.0004466 0)
(0.002045 -0.0004525 0)
(0.002114 -0.000454 0)
(0.002183 -0.0004507 0)
(0.002251 -0.0004419 0)
(0.002318 -0.0004273 0)
(0.002382 -0.0004065 0)
(0.002443 -0.0003792 0)
(0.002499 -0.0003456 0)
(0.00255 -0.0003056 0)
(0.002594 -0.0002597 0)
(0.002631 -0.0002087 0)
(0.00266 -0.0001532 0)
(0.002679 -9.473e-05 0)
(0.002689 -3.451e-05 0)
(0.002689 2.593e-05 0)
(0.002681 8.511e-05 0)
(0.002663 0.0001417 0)
(0.002636 0.0001947 0)
(0.002602 0.0002432 0)
(0.002561 0.0002867 0)
(0.002515 0.0003248 0)
(0.002462 0.0003574 0)
(0.002406 0.0003844 0)
(0.002346 0.0004059 0)
(0.002283 0.0004219 0)
(0.002218 0.0004329 0)
(0.002152 0.000439 0)
(0.002085 0.0004407 0)
(0.002018 0.0004383 0)
(0.001952 0.0004324 0)
(0.001887 0.0004234 0)
(0.001824 0.0004117 0)
(0.001762 0.0003978 0)
(0.001703 0.0003821 0)
(0.001646 0.0003651 0)