/*--------------------------------*- C++ -*----------------------------------*\
  =========                 |
  \\      /  F ield         | OpenFOAM: The Open Source CFD Toolbox
   \\    /   O peration     | Website:  https://openfoam.org
    \\  /    A nd           | Version:  7
     \\/     M anipulation  |
\*---------------------------------------------------------------------------*/
FoamFile
{
    version     2.0;
    format      ascii;
    class       volScalarField;
    location    "899.999473410711744";
    object      Y.K;
}
// * * * * * * * * * * * * * * * * * * * * * * * * * * * * * * * * * * * * * //

dimensions      [0 0 0 0 0 0 0];

internalField   nonuniform List<scalar> 
4096
(
8.353e-70
7.456e-68
-2.587e-68
3.616e-68
-1.225e-68
-2.858e-68
1.248e-68
9.517e-69
-5.742e-69
4.462e-69
-6.523e-68
9.004e-67
-1.246e-65
1.801e-64
-2.376e-63
3.086e-62
-3.849e-61
4.778e-60
-5.772e-59
6.99e-58
-8.134e-57
9.427e-56
-1.093e-54
1.23e-53
-1.322e-52
1.385e-51
-1.38e-50
1.386e-49
-1.356e-48
1.303e-47
-1.226e-46
1.13e-45
-9.979e-45
8.642e-44
-7.202e-43
5.869e-42
-4.549e-41
3.322e-40
-2.326e-39
1.573e-38
-9.976e-38
5.983e-37
-3.388e-36
1.814e-35
-9.213e-35
4.38e-34
-1.999e-33
8.69e-33
-3.615e-32
1.436e-31
-4.677e-31
1.785e-30
-1.018e-31
1.223e-29
2.466e-28
2e-28
9.97e-27
1.987e-26
3.006e-25
1.157e-24
3.667e-24
2.69e-23
1.217e-22
9.381e-22
2.933e-21
1.013e-20
1.251e-19
1.717e-18
5.092e-18
1.119e-17
2.187e-17
4.008e-17
7.041e-17
1.197e-16
1.978e-16
3.19e-16
5.027e-16
7.753e-16
1.172e-15
1.738e-15
2.531e-15
3.624e-15
5.107e-15
7.086e-15
9.693e-15
1.308e-14
1.743e-14
2.295e-14
2.989e-14
3.852e-14
4.916e-14
6.217e-14
7.795e-14
9.698e-14
1.198e-13
1.469e-13
1.79e-13
2.168e-13
2.612e-13
3.13e-13
3.732e-13
4.43e-13
5.237e-13
6.165e-13
7.23e-13
8.448e-13
9.84e-13
1.142e-12
1.322e-12
1.526e-12
1.757e-12
2.018e-12
2.311e-12
2.642e-12
3.012e-12
3.428e-12
3.893e-12
4.412e-12
4.991e-12
5.636e-12
6.353e-12
7.147e-12
8.025e-12
8.987e-12
1.003e-11
1.113e-11
1.22e-11
1.303e-11
-2.481e-67
1.31e-66
-1.692e-66
2.612e-67
1.21e-66
-1.082e-66
2.384e-68
6.472e-67
-1.47e-67
1.868e-67
-3.893e-66
4.811e-65
-6.978e-64
9.618e-63
-1.271e-61
1.625e-60
-2.029e-59
2.49e-58
-3.014e-57
3.602e-56
-4.246e-55
4.929e-54
-5.618e-53
6.258e-52
-6.792e-51
7.085e-50
-7.096e-49
7.03e-48
-6.866e-47
6.587e-46
-6.188e-45
5.672e-44
-5.055e-43
4.365e-42
-3.64e-41
2.92e-40
-2.246e-39
1.651e-38
-1.156e-37
7.69e-37
-4.847e-36
2.893e-35
-1.629e-34
8.675e-34
-4.37e-33
2.088e-32
-9.478e-32
4.1e-31
-1.673e-30
6.641e-30
-2.122e-29
8.584e-29
3.422e-29
7.631e-28
1.221e-26
2.29e-26
4.637e-25
1.426e-24
1.492e-23
5.672e-23
1.932e-22
1.243e-21
5.345e-21
3.562e-20
1.105e-19
3.079e-19
1.791e-18
5.041e-18
1.097e-17
2.143e-17
3.933e-17
6.909e-17
1.172e-16
1.931e-16
3.099e-16
4.855e-16
7.44e-16
1.117e-15
1.645e-15
2.379e-15
3.384e-15
4.739e-15
6.538e-15
8.897e-15
1.195e-14
1.586e-14
2.082e-14
2.703e-14
3.475e-14
4.428e-14
5.592e-14
7.006e-14
8.712e-14
1.076e-13
1.32e-13
1.609e-13
1.95e-13
2.35e-13
2.819e-13
3.364e-13
3.998e-13
4.731e-13
5.576e-13
6.547e-13
7.661e-13
8.934e-13
1.039e-12
1.204e-12
1.392e-12
1.604e-12
1.844e-12
2.115e-12
2.421e-12
2.764e-12
3.149e-12
3.581e-12
4.063e-12
4.602e-12
5.203e-12
5.872e-12
6.615e-12
7.439e-12
8.351e-12
9.355e-12
1.045e-11
1.164e-11
1.287e-11
1.403e-11
5.558e-66
-3.875e-65
9.788e-65
-1.33e-64
9.479e-65
-1.606e-65
-3.412e-65
3.129e-65
4.683e-66
8.166e-66
-2.164e-64
2.477e-63
-3.547e-62
4.822e-61
-6.289e-60
7.942e-59
-9.811e-58
1.193e-56
-1.433e-55
1.702e-54
-1.995e-53
2.304e-52
-2.613e-51
2.898e-50
-3.132e-49
3.258e-48
-3.268e-47
3.239e-46
-3.163e-45
3.033e-44
-2.846e-43
2.604e-42
-2.316e-41
1.996e-40
-1.66e-39
1.328e-38
-1.018e-37
7.462e-37
-5.21e-36
3.455e-35
-2.17e-34
1.291e-33
-7.235e-33
3.833e-32
-1.92e-31
9.108e-31
-4.104e-30
1.763e-29
-7.15e-29
2.861e-28
-8.861e-28
3.915e-27
4.827e-27
4.737e-26
5.6e-25
2.004e-24
2.027e-23
9.516e-23
7.548e-22
2.793e-21
9.872e-21
5.554e-20
2.139e-19
1.101e-18
3.222e-18
7.351e-18
1.518e-17
2.944e-17
5.437e-17
9.636e-17
1.647e-16
2.723e-16
4.369e-16
6.816e-16
1.036e-15
1.538e-15
2.233e-15
3.177e-15
4.435e-15
6.086e-15
8.222e-15
1.095e-14
1.438e-14
1.868e-14
2.399e-14
3.051e-14
3.847e-14
4.809e-14
5.969e-14
7.358e-14
9.013e-14
1.098e-13
1.33e-13
1.603e-13
1.924e-13
2.299e-13
2.736e-13
3.244e-13
3.833e-13
4.512e-13
5.295e-13
6.195e-13
7.226e-13
8.406e-13
9.752e-13
1.128e-12
1.303e-12
1.5e-12
1.723e-12
1.976e-12
2.26e-12
2.581e-12
2.941e-12
3.344e-12
3.797e-12
4.302e-12
4.866e-12
5.495e-12
6.196e-12
6.973e-12
7.837e-12
8.792e-12
9.849e-12
1.101e-11
1.23e-11
1.37e-11
1.522e-11
1.692e-11
-9.106e-65
7.243e-64
-2.565e-63
5.608e-63
-8.048e-63
7.692e-63
-4.525e-63
9.773e-64
6.159e-64
5.845e-64
-1.155e-62
1.173e-61
-1.644e-60
2.181e-59
-2.78e-58
3.438e-57
-4.173e-56
5.002e-55
-5.937e-54
6.978e-53
-8.112e-52
9.302e-51
-1.049e-49
1.158e-48
-1.246e-47
1.294e-46
-1.301e-45
1.292e-44
-1.263e-43
1.212e-42
-1.137e-41
1.04e-40
-9.241e-40
7.954e-39
-6.606e-38
5.277e-37
-4.042e-36
2.958e-35
-2.062e-34
1.365e-33
-8.562e-33
5.085e-32
-2.839e-31
1.498e-30
-7.46e-30
3.515e-29
-1.571e-28
6.693e-28
-2.692e-27
1.095e-26
-3.155e-26
1.579e-25
3.333e-25
2.821e-24
2.214e-23
1.334e-22
1.032e-21
5.219e-21
3.547e-20
1.311e-19
4.225e-19
1.914e-18
5.73e-18
1.365e-17
2.942e-17
5.935e-17
1.135e-16
2.074e-16
3.633e-16
6.121e-16
9.947e-16
1.563e-15
2.38e-15
3.52e-15
5.069e-15
7.122e-15
9.783e-15
1.316e-14
1.738e-14
2.257e-14
2.886e-14
3.641e-14
4.538e-14
5.596e-14
6.836e-14
8.284e-14
9.968e-14
1.192e-13
1.418e-13
1.679e-13
1.979e-13
2.325e-13
2.724e-13
3.181e-13
3.706e-13
4.308e-13
4.998e-13
5.786e-13
6.687e-13
7.715e-13
8.886e-13
1.022e-12
1.173e-12
1.345e-12
1.539e-12
1.759e-12
2.007e-12
2.287e-12
2.602e-12
2.956e-12
3.354e-12
3.799e-12
4.298e-12
4.855e-12
5.477e-12
6.17e-12
6.94e-12
7.796e-12
8.746e-12
9.798e-12
1.096e-11
1.225e-11
1.366e-11
1.522e-11
1.693e-11
1.88e-11
2.087e-11
2.345e-11
1.287e-63
-1.112e-62
4.875e-62
-1.425e-61
2.937e-61
-4.427e-61
4.931e-61
-3.947e-61
2.044e-61
1.449e-62
-5.628e-61
5.019e-60
-6.812e-59
8.661e-58
-1.062e-56
1.269e-55
-1.497e-54
1.755e-53
-2.046e-52
2.372e-51
-2.727e-50
3.1e-49
-3.471e-48
3.813e-47
-4.091e-46
4.253e-45
-4.3e-44
4.286e-43
-4.202e-42
4.04e-41
-3.797e-40
3.478e-39
-3.093e-38
2.665e-37
-2.215e-36
1.771e-35
-1.358e-34
9.944e-34
-6.94e-33
4.601e-32
-2.889e-31
1.719e-30
-9.568e-30
5.039e-29
-2.497e-28
1.168e-27
-5.168e-27
2.18e-26
-8.632e-26
3.614e-25
-8.455e-25
5.071e-24
2.619e-23
1.606e-22
1.165e-21
7.576e-21
5.058e-20
2.51e-19
1.287e-18
4.358e-18
1.18e-17
2.883e-17
6.563e-17
1.406e-16
2.851e-16
5.486e-16
1.005e-15
1.757e-15
2.941e-15
4.726e-15
7.307e-15
1.09e-14
1.574e-14
2.205e-14
3.003e-14
3.987e-14
5.174e-14
6.576e-14
8.204e-14
1.007e-13
1.218e-13
1.454e-13
1.719e-13
2.012e-13
2.338e-13
2.699e-13
3.1e-13
3.545e-13
4.04e-13
4.593e-13
5.211e-13
5.903e-13
6.68e-13
7.553e-13
8.535e-13
9.642e-13
1.089e-12
1.23e-12
1.388e-12
1.567e-12
1.769e-12
1.996e-12
2.252e-12
2.54e-12
2.864e-12
3.227e-12
3.635e-12
4.092e-12
4.604e-12
5.176e-12
5.815e-12
6.528e-12
7.321e-12
8.205e-12
9.186e-12
1.027e-11
1.148e-11
1.282e-11
1.429e-11
1.592e-11
1.771e-11
1.968e-11
2.185e-11
2.422e-11
2.681e-11
2.964e-11
3.277e-11
3.695e-11
-1.669e-62
1.522e-61
-7.735e-61
2.781e-60
-7.381e-60
1.498e-59
-2.371e-59
2.926e-59
-2.748e-59
1.905e-59
-2.637e-59
1.886e-58
-2.422e-57
2.859e-56
-3.285e-55
3.709e-54
-4.186e-53
4.747e-52
-5.41e-51
6.175e-50
-7.026e-49
7.93e-48
-8.839e-47
9.691e-46
-1.04e-44
1.088e-43
-1.112e-42
1.116e-41
-1.101e-40
1.065e-39
-1.006e-38
9.257e-38
-8.268e-37
7.155e-36
-5.974e-35
4.8e-34
-3.697e-33
2.722e-32
-1.911e-31
1.274e-30
-8.053e-30
4.83e-29
-2.685e-28
1.417e-27
-6.996e-27
3.259e-26
-1.425e-25
5.936e-25
-2.271e-24
1.002e-23
-5.496e-24
2.126e-22
1.346e-21
8.507e-21
6.316e-20
3.58e-19
1.964e-18
7.269e-18
2.176e-17
5.873e-17
1.471e-16
3.45e-16
7.602e-16
1.578e-15
3.093e-15
5.736e-15
1.009e-14
1.69e-14
2.7e-14
4.129e-14
6.063e-14
8.575e-14
1.171e-13
1.55e-13
1.994e-13
2.498e-13
3.057e-13
3.664e-13
4.312e-13
4.996e-13
5.71e-13
6.452e-13
7.223e-13
8.026e-13
8.865e-13
9.748e-13
1.068e-12
1.169e-12
1.276e-12
1.394e-12
1.522e-12
1.663e-12
1.818e-12
1.991e-12
2.183e-12
2.397e-12
2.636e-12
2.904e-12
3.203e-12
3.539e-12
3.914e-12
4.335e-12
4.806e-12
5.333e-12
5.922e-12
6.58e-12
7.314e-12
8.133e-12
9.046e-12
1.006e-11
1.119e-11
1.244e-11
1.384e-11
1.538e-11
1.708e-11
1.897e-11
2.105e-11
2.334e-11
2.587e-11
2.864e-11
3.168e-11
3.502e-11
3.866e-11
4.264e-11
4.698e-11
5.17e-11
5.684e-11
6.408e-11
2.043e-61
-1.929e-60
1.092e-59
-4.593e-59
1.481e-58
-3.771e-58
7.731e-58
-1.284e-57
1.701e-57
-1.7e-57
3.549e-58
5.345e-57
-6.679e-56
6.856e-55
-6.939e-54
7.036e-53
-7.381e-52
8.023e-51
-8.986e-50
1.025e-48
-1.175e-47
1.341e-46
-1.512e-45
1.678e-44
-1.823e-43
1.951e-42
-2.044e-41
2.08e-40
-2.08e-39
2.036e-38
-1.946e-37
1.811e-36
-1.635e-35
1.433e-34
-1.211e-33
9.863e-33
-7.702e-32
5.753e-31
-4.103e-30
2.779e-29
-1.788e-28
1.096e-27
-6.078e-27
3.242e-26
-1.597e-25
7.46e-25
-3.227e-24
1.335e-23
-4.716e-23
2.307e-22
7.119e-22
8.339e-21
6.059e-20
4.079e-19
2.506e-18
1.037e-17
3.505e-17
1.07e-16
3.02e-16
7.938e-16
1.947e-15
4.464e-15
9.584e-15
1.93e-14
3.654e-14
6.519e-14
1.099e-13
1.758e-13
2.676e-13
3.887e-13
5.409e-13
7.238e-13
9.339e-13
1.166e-12
1.414e-12
1.669e-12
1.924e-12
2.173e-12
2.411e-12
2.634e-12
2.844e-12
3.04e-12
3.225e-12
3.402e-12
3.573e-12
3.743e-12
3.917e-12
4.099e-12
4.293e-12
4.503e-12
4.734e-12
4.99e-12
5.276e-12
5.596e-12
5.956e-12
6.36e-12
6.815e-12
7.326e-12
7.899e-12
8.542e-12
9.263e-12
1.007e-11
1.097e-11
1.198e-11
1.311e-11
1.436e-11
1.576e-11
1.731e-11
1.903e-11
2.094e-11
2.306e-11
2.541e-11
2.8e-11
3.086e-11
3.402e-11
3.75e-11
4.132e-11
4.552e-11
5.013e-11
5.518e-11
6.069e-11
6.671e-11
7.327e-11
8.041e-11
8.815e-11
9.655e-11
1.056e-10
1.188e-10
-2.389e-60
2.31e-59
-1.418e-58
6.742e-58
-2.542e-57
7.784e-57
-1.97e-56
4.148e-56
-7.213e-56
1.009e-55
-1.169e-55
1.299e-55
-9.834e-55
5.902e-54
-2.638e-53
2.401e-53
6.553e-52
-3.564e-51
-9.331e-50
2.938e-48
-5.406e-47
8.125e-46
-1.092e-44
1.366e-43
-1.621e-42
1.845e-41
-2.021e-40
2.149e-39
-2.237e-38
2.266e-37
-2.236e-36
2.15e-35
-1.998e-34
1.823e-33
-1.598e-32
1.353e-31
-1.095e-30
8.483e-30
-6.285e-29
4.408e-28
-2.959e-27
1.897e-26
-1.06e-25
5.866e-25
-2.851e-24
1.367e-23
-5.858e-23
2.515e-22
-6.066e-22
4.509e-21
4.043e-20
3.449e-19
2.455e-18
1.161e-17
4.523e-17
1.594e-16
5.182e-16
1.561e-15
4.361e-15
1.131e-14
2.726e-14
6.11e-14
1.276e-13
2.488e-13
4.538e-13
7.768e-13
1.252e-12
1.908e-12
2.759e-12
3.799e-12
5e-12
6.319e-12
7.689e-12
9.05e-12
1.033e-11
1.147e-11
1.246e-11
1.324e-11
1.384e-11
1.427e-11
1.457e-11
1.475e-11
1.483e-11
1.486e-11
1.486e-11
1.484e-11
1.485e-11
1.488e-11
1.496e-11
1.509e-11
1.529e-11
1.556e-11
1.592e-11
1.637e-11
1.693e-11
1.76e-11
1.838e-11
1.93e-11
2.035e-11
2.155e-11
2.292e-11
2.447e-11
2.622e-11
2.818e-11
3.038e-11
3.283e-11
3.556e-11
3.86e-11
4.197e-11
4.57e-11
4.983e-11
5.439e-11
5.942e-11
6.496e-11
7.105e-11
7.775e-11
8.508e-11
9.312e-11
1.019e-10
1.115e-10
1.219e-10
1.333e-10
1.457e-10
1.591e-10
1.735e-10
1.892e-10
2.059e-10
2.308e-10
2.675e-59
-2.628e-58
1.717e-57
-9.016e-57
3.871e-56
-1.385e-55
4.195e-55
-1.082e-54
2.362e-54
-4.234e-54
5.6e-54
-8.693e-54
2.601e-53
-3.574e-52
4.277e-51
-4.576e-50
4.423e-49
-4.067e-48
3.573e-47
-3.015e-46
2.446e-45
-1.901e-44
1.4e-43
-9.494e-43
5.661e-42
-2.494e-41
-9.412e-42
1.944e-39
-3.709e-38
4.907e-37
-5.803e-36
6.483e-35
-6.694e-34
7.172e-33
-6.954e-32
6.615e-31
-5.721e-30
4.664e-29
-3.621e-28
2.603e-27
-1.83e-26
1.2e-25
-7.351e-25
4.352e-24
-2.421e-23
1.305e-22
-6.05e-22
3.921e-21
2.991e-21
1.777e-19
1.685e-18
9.418e-18
4.326e-17
1.794e-16
6.848e-16
2.411e-15
7.836e-15
2.351e-14
6.509e-14
1.664e-13
3.933e-13
8.6e-13
1.743e-12
3.28e-12
5.746e-12
9.412e-12
1.446e-11
2.094e-11
2.87e-11
3.738e-11
4.643e-11
5.537e-11
6.34e-11
7.032e-11
7.54e-11
7.864e-11
8.058e-11
8.037e-11
7.935e-11
7.743e-11
7.482e-11
7.179e-11
6.858e-11
6.537e-11
6.23e-11
5.946e-11
5.692e-11
5.471e-11
5.286e-11
5.138e-11
5.024e-11
4.949e-11
4.9e-11
4.904e-11
4.932e-11
4.991e-11
5.088e-11
5.221e-11
5.39e-11
5.596e-11
5.842e-11
6.129e-11
6.461e-11
6.839e-11
7.268e-11
7.751e-11
8.292e-11
8.896e-11
9.568e-11
1.031e-10
1.114e-10
1.205e-10
1.305e-10
1.415e-10
1.536e-10
1.669e-10
1.814e-10
1.972e-10
2.145e-10
2.333e-10
2.538e-10
2.76e-10
3e-10
3.259e-10
3.539e-10
3.841e-10
4.16e-10
4.645e-10
-2.859e-58
2.837e-57
-1.946e-56
1.11e-55
-5.32e-55
2.18e-54
-7.73e-54
2.389e-53
-6.415e-53
1.461e-52
-2.612e-52
-1.502e-53
1.859e-51
-1.661e-50
1.402e-49
-1.279e-48
1.107e-47
-9.512e-47
7.979e-46
-6.567e-45
5.319e-44
-4.247e-43
3.358e-42
-2.622e-41
2.109e-40
-1.691e-39
1.378e-38
-1.279e-37
1.105e-36
-1.029e-35
9.693e-35
-8.526e-34
7.231e-33
-5.704e-32
4.322e-31
-3.289e-30
2.357e-29
-1.598e-28
9.742e-28
-7.296e-27
3.204e-26
-1.704e-25
5.081e-25
-1.119e-24
-7.015e-24
1.674e-22
2.024e-22
5.974e-20
5.386e-19
4.752e-18
2.842e-17
1.425e-16
6.484e-16
2.713e-15
1.044e-14
3.693e-14
1.2e-13
3.58e-13
9.806e-13
2.467e-12
5.703e-12
1.213e-11
2.378e-11
4.306e-11
7.223e-11
1.128e-10
1.648e-10
2.261e-10
2.929e-10
3.603e-10
4.215e-10
4.742e-10
5.092e-10
5.332e-10
5.325e-10
5.239e-10
5.053e-10
4.785e-10
4.464e-10
4.119e-10
3.77e-10
3.434e-10
3.121e-10
2.836e-10
2.582e-10
2.359e-10
2.167e-10
2.003e-10
1.865e-10
1.75e-10
1.655e-10
1.58e-10
1.521e-10
1.478e-10
1.449e-10
1.429e-10
1.427e-10
1.434e-10
1.45e-10
1.478e-10
1.516e-10
1.564e-10
1.624e-10
1.694e-10
1.776e-10
1.871e-10
1.978e-10
2.098e-10
2.233e-10
2.383e-10
2.55e-10
2.734e-10
2.938e-10
3.161e-10
3.406e-10
3.674e-10
3.967e-10
4.287e-10
4.634e-10
5.012e-10
5.421e-10
5.864e-10
6.343e-10
6.859e-10
7.413e-10
8.01e-10
8.636e-10
9.598e-10
2.888e-57
-2.881e-56
2.055e-55
-1.255e-54
6.621e-54
-3.056e-53
1.248e-52
-4.547e-52
1.479e-51
-4.253e-51
1.055e-50
-2.146e-50
4.302e-50
-1.716e-49
1.594e-48
-1.808e-47
1.489e-46
-1.22e-45
9.614e-45
-7.457e-44
5.71e-43
-4.263e-42
3.053e-41
-1.904e-40
1.288e-39
-3.276e-39
-3.174e-38
2.34e-37
-5.025e-36
5.258e-35
-4.229e-34
3.276e-33
-2.224e-32
1.312e-31
-4.618e-31
-7.62e-31
3.877e-29
-5.211e-28
5.298e-27
-4.644e-26
3.66e-25
-2.695e-24
1.787e-23
-1.155e-22
7.584e-22
-2.127e-21
1.456e-19
1.771e-18
1.266e-17
7.597e-17
4.149e-16
2.084e-15
9.621e-15
4.076e-14
1.581e-13
5.612e-13
1.82e-12
5.388e-12
1.457e-11
3.595e-11
8.108e-11
1.672e-10
3.161e-10
5.487e-10
8.781e-10
1.303e-09
1.803e-09
2.337e-09
2.859e-09
3.315e-09
3.643e-09
3.874e-09
3.866e-09
3.784e-09
3.603e-09
3.346e-09
3.043e-09
2.721e-09
2.402e-09
2.102e-09
1.828e-09
1.585e-09
1.374e-09
1.194e-09
1.041e-09
9.136e-10
8.075e-10
7.197e-10
6.473e-10
5.88e-10
5.396e-10
5.004e-10
4.69e-10
4.442e-10
4.25e-10
4.107e-10
4.008e-10
3.946e-10
3.919e-10
3.93e-10
3.966e-10
4.031e-10
4.125e-10
4.246e-10
4.397e-10
4.575e-10
4.784e-10
5.022e-10
5.293e-10
5.597e-10
5.937e-10
6.313e-10
6.73e-10
7.188e-10
7.691e-10
8.241e-10
8.841e-10
9.495e-10
1.021e-09
1.098e-09
1.181e-09
1.271e-09
1.368e-09
1.472e-09
1.584e-09
1.705e-09
1.83e-09
2.024e-09
-2.71e-56
2.708e-55
-1.992e-54
1.29e-53
-7.394e-53
3.794e-52
-1.761e-51
7.446e-51
-2.879e-50
1.012e-49
-3.155e-49
8.075e-49
-6.602e-49
-5.999e-48
5.612e-47
-4.505e-46
2.349e-45
-1.373e-44
8.785e-44
-6.697e-43
5.955e-42
-5.662e-41
5.497e-40
-4.665e-39
4.331e-38
-3.532e-37
2.313e-36
-2.911e-35
1.144e-34
-5.072e-34
1.12e-33
1.418e-32
-2.833e-31
3.4e-30
-3.386e-29
3.021e-28
-2.488e-27
1.92e-26
-1.398e-25
9.665e-25
-6.351e-24
3.951e-23
-2.357e-22
1.413e-21
-4.964e-21
2.451e-19
3.262e-18
2.557e-17
1.703e-16
1.035e-15
5.782e-15
2.964e-14
1.391e-13
5.96e-13
2.328e-12
8.27e-12
2.67e-11
7.827e-11
2.083e-10
5.029e-10
1.103e-09
2.198e-09
3.988e-09
6.609e-09
1.005e-08
1.412e-08
1.845e-08
2.253e-08
2.605e-08
2.835e-08
2.922e-08
2.875e-08
2.742e-08
2.532e-08
2.273e-08
1.992e-08
1.713e-08
1.451e-08
1.216e-08
1.012e-08
8.387e-09
6.947e-09
5.766e-09
4.806e-09
4.032e-09
3.409e-09
2.909e-09
2.508e-09
2.187e-09
1.929e-09
1.723e-09
1.557e-09
1.424e-09
1.318e-09
1.234e-09
1.169e-09
1.119e-09
1.083e-09
1.058e-09
1.043e-09
1.038e-09
1.041e-09
1.051e-09
1.069e-09
1.094e-09
1.127e-09
1.166e-09
1.212e-09
1.266e-09
1.327e-09
1.396e-09
1.474e-09
1.559e-09
1.654e-09
1.758e-09
1.872e-09
1.996e-09
2.131e-09
2.278e-09
2.437e-09
2.609e-09
2.795e-09
2.994e-09
3.208e-09
3.437e-09
3.682e-09
3.936e-09
4.333e-09
2.304e-55
-2.296e-54
1.73e-53
-1.177e-52
7.249e-52
-4.085e-51
2.126e-50
-1.031e-49
4.691e-49
-2.011e-48
8.104e-48
-3.023e-47
9.93e-47
-2.38e-46
-3.931e-46
9.301e-45
-8.707e-44
7.13e-43
-5.369e-42
3.838e-41
-2.627e-40
1.715e-39
-9.98e-39
8.329e-38
-2.041e-37
-3.933e-37
1.637e-35
-2.254e-34
2.439e-33
-2.35e-32
2.102e-31
-1.778e-30
1.436e-29
-1.113e-28
8.297e-28
-5.962e-27
4.132e-26
-2.759e-25
1.779e-24
-1.1e-23
6.576e-23
-3.746e-22
2.168e-21
-8.384e-21
3.43e-19
5.011e-18
4.323e-17
3.2e-16
2.167e-15
1.35e-14
7.716e-14
4.03e-13
1.918e-12
8.295e-12
3.252e-11
1.154e-10
3.699e-10
1.07e-09
2.793e-09
6.574e-09
1.396e-08
2.675e-08
4.641e-08
7.306e-08
1.051e-07
1.393e-07
1.714e-07
1.971e-07
2.165e-07
2.162e-07
2.1e-07
1.963e-07
1.767e-07
1.54e-07
1.307e-07
1.085e-07
8.856e-08
7.135e-08
5.699e-08
4.53e-08
3.594e-08
2.856e-08
2.279e-08
1.831e-08
1.483e-08
1.213e-08
1.003e-08
8.403e-09
7.128e-09
6.127e-09
5.339e-09
4.717e-09
4.223e-09
3.832e-09
3.521e-09
3.277e-09
3.086e-09
2.939e-09
2.83e-09
2.751e-09
2.702e-09
2.671e-09
2.674e-09
2.69e-09
2.725e-09
2.777e-09
2.848e-09
2.935e-09
3.04e-09
3.162e-09
3.302e-09
3.46e-09
3.636e-09
3.832e-09
4.048e-09
4.285e-09
4.544e-09
4.825e-09
5.131e-09
5.463e-09
5.82e-09
6.205e-09
6.618e-09
7.061e-09
7.534e-09
8.04e-09
8.559e-09
9.379e-09
-1.707e-54
1.691e-53
-1.297e-52
9.18e-52
-6.007e-51
3.664e-50
-2.101e-49
1.144e-48
-5.968e-48
3.01e-47
-1.481e-46
7.177e-46
-3.464e-45
1.689e-44
-8.463e-44
4.44e-43
-2.479e-42
1.483e-41
-9.497e-41
6.456e-40
-4.624e-39
3.47e-38
-2.716e-37
2.21e-36
-1.826e-35
1.474e-34
-1.171e-33
9.152e-33
-7.017e-32
5.275e-31
-3.885e-30
2.801e-29
-1.974e-28
1.359e-27
-9.129e-27
5.976e-26
-3.807e-25
2.359e-24
-1.415e-23
8.315e-23
-4.643e-22
2.665e-21
-1.073e-20
3.928e-19
6.304e-18
5.986e-17
4.925e-16
3.722e-15
2.59e-14
1.654e-13
9.646e-13
5.12e-12
2.464e-11
1.072e-10
4.205e-10
1.484e-09
4.706e-09
1.338e-08
3.41e-08
7.784e-08
1.592e-07
2.919e-07
4.813e-07
7.167e-07
9.709e-07
1.21e-06
1.401e-06
1.534e-06
1.525e-06
1.464e-06
1.346e-06
1.188e-06
1.011e-06
8.354e-07
6.734e-07
5.321e-07
4.143e-07
3.191e-07
2.442e-07
1.863e-07
1.423e-07
1.09e-07
8.407e-08
6.537e-08
5.136e-08
4.083e-08
3.288e-08
2.685e-08
2.225e-08
1.871e-08
1.597e-08
1.383e-08
1.216e-08
1.085e-08
9.811e-09
8.993e-09
8.35e-09
7.847e-09
7.46e-09
7.169e-09
6.958e-09
6.82e-09
6.73e-09
6.722e-09
6.751e-09
6.822e-09
6.938e-09
7.096e-09
7.295e-09
7.535e-09
7.815e-09
8.136e-09
8.499e-09
8.904e-09
9.352e-09
9.846e-09
1.039e-08
1.098e-08
1.162e-08
1.231e-08
1.306e-08
1.386e-08
1.472e-08
1.564e-08
1.662e-08
1.768e-08
1.875e-08
2.045e-08
1.051e-53
-1.033e-52
8.016e-52
-5.847e-51
4.009e-50
-2.6e-49
1.607e-48
-9.542e-48
5.489e-47
-3.082e-46
1.701e-45
-9.282e-45
5.031e-44
-2.72e-43
1.476e-42
-8.097e-42
4.548e-41
-2.657e-40
1.64e-39
-1.08e-38
7.577e-38
-5.597e-37
4.278e-36
-3.343e-35
2.576e-34
-1.924e-33
1.409e-32
-1.014e-31
7.175e-31
-4.992e-30
3.415e-29
-2.296e-28
1.516e-27
-9.822e-27
6.238e-26
-3.879e-25
2.36e-24
-1.4e-23
8.162e-23
-4.481e-22
2.582e-21
-1.06e-20
3.635e-19
6.399e-18
6.68e-17
6.102e-16
5.141e-15
3.996e-14
2.852e-13
1.86e-12
1.104e-11
5.93e-11
2.874e-10
1.252e-09
4.89e-09
1.708e-08
5.325e-08
1.479e-07
3.655e-07
8.035e-07
1.571e-06
2.739e-06
4.272e-06
5.991e-06
7.619e-06
8.937e-06
9.86e-06
9.785e-06
9.346e-06
8.514e-06
7.416e-06
6.212e-06
5.034e-06
3.967e-06
3.058e-06
2.316e-06
1.731e-06
1.283e-06
9.467e-07
6.979e-07
5.158e-07
3.833e-07
2.871e-07
2.173e-07
1.664e-07
1.292e-07
1.018e-07
8.141e-08
6.615e-08
5.462e-08
4.584e-08
3.908e-08
3.385e-08
2.977e-08
2.658e-08
2.406e-08
2.208e-08
2.052e-08
1.931e-08
1.837e-08
1.767e-08
1.716e-08
1.682e-08
1.661e-08
1.657e-08
1.663e-08
1.68e-08
1.706e-08
1.743e-08
1.789e-08
1.845e-08
1.91e-08
1.984e-08
2.067e-08
2.161e-08
2.264e-08
2.377e-08
2.5e-08
2.634e-08
2.779e-08
2.936e-08
3.104e-08
3.284e-08
3.477e-08
3.682e-08
3.901e-08
4.123e-08
4.478e-08
-5.143e-53
5.015e-52
-3.92e-51
2.921e-50
-2.07e-49
1.403e-48
-9.14e-48
5.772e-47
-3.566e-46
2.175e-45
-1.323e-44
8.092e-44
-5.004e-43
3.137e-42
-1.993e-41
1.279e-40
-8.272e-40
5.369e-39
-3.49e-38
2.269e-37
-1.475e-36
9.591e-36
-6.251e-35
4.096e-34
-2.686e-33
1.756e-32
-1.145e-31
7.437e-31
-4.804e-30
3.083e-29
-1.962e-28
1.236e-27
-7.702e-27
4.736e-26
-2.87e-25
1.712e-24
-1.002e-23
5.775e-23
-3.188e-22
1.956e-21
-8.161e-21
2.687e-19
5.182e-18
5.934e-17
6.003e-16
5.624e-15
4.873e-14
3.884e-13
2.833e-12
1.88e-11
1.129e-10
6.106e-10
2.962e-09
1.284e-08
4.954e-08
1.698e-07
5.157e-07
1.385e-06
3.287e-06
6.89e-06
1.277e-05
2.102e-05
3.089e-05
4.071e-05
4.856e-05
5.475e-05
5.453e-05
5.223e-05
4.756e-05
4.126e-05
3.432e-05
2.753e-05
2.142e-05
1.625e-05
1.208e-05
8.84e-06
6.398e-06
4.598e-06
3.295e-06
2.363e-06
1.702e-06
1.234e-06
9.036e-07
6.693e-07
5.025e-07
3.829e-07
2.964e-07
2.332e-07
1.867e-07
1.52e-07
1.259e-07
1.06e-07
9.075e-08
7.895e-08
6.975e-08
6.254e-08
5.686e-08
5.24e-08
4.889e-08
4.615e-08
4.405e-08
4.248e-08
4.135e-08
4.062e-08
4.012e-08
4.012e-08
4.03e-08
4.07e-08
4.135e-08
4.222e-08
4.331e-08
4.461e-08
4.612e-08
4.784e-08
4.977e-08
5.192e-08
5.428e-08
5.686e-08
5.967e-08
6.272e-08
6.6e-08
6.953e-08
7.331e-08
7.734e-08
8.162e-08
8.62e-08
9.082e-08
9.822e-08
1.938e-52
-1.897e-51
1.494e-50
-1.13e-49
8.167e-49
-5.65e-48
3.74e-47
-2.368e-46
1.433e-45
-8.268e-45
4.538e-44
-2.353e-43
1.139e-42
-5.026e-42
1.909e-41
-5.178e-41
-1.505e-41
1.582e-39
-1.477e-38
9.31e-38
-3.927e-37
2.356e-38
2.291e-35
-3.398e-34
3.478e-33
-3.025e-32
2.409e-31
-1.812e-30
1.308e-29
-9.143e-29
6.219e-28
-4.13e-27
2.684e-26
-1.708e-25
1.066e-24
-6.521e-24
3.914e-23
-2.287e-22
1.378e-21
-5.038e-21
1.553e-19
3.315e-18
4.162e-17
4.646e-16
4.821e-15
4.641e-14
4.121e-13
3.354e-12
2.487e-11
1.669e-10
1.008e-09
5.45e-09
2.624e-08
1.12e-07
4.226e-07
1.404e-06
4.098e-06
1.049e-05
2.358e-05
4.646e-05
8.084e-05
0.000125
0.0001727
0.0002136
0.0002443
0.0002517
0.0002433
0.0002233
0.000195
0.0001629
0.0001309
0.0001018
7.69e-05
5.678e-05
4.114e-05
2.939e-05
2.078e-05
1.461e-05
1.025e-05
7.206e-06
5.092e-06
3.627e-06
2.612e-06
1.905e-06
1.409e-06
1.059e-06
8.098e-07
6.299e-07
4.987e-07
4.02e-07
3.298e-07
2.753e-07
2.338e-07
2.018e-07
1.77e-07
1.576e-07
1.423e-07
1.303e-07
1.209e-07
1.134e-07
1.077e-07
1.033e-07
9.998e-08
9.768e-08
9.622e-08
9.537e-08
9.55e-08
9.605e-08
9.714e-08
9.875e-08
1.009e-07
1.035e-07
1.065e-07
1.101e-07
1.14e-07
1.185e-07
1.234e-07
1.289e-07
1.347e-07
1.411e-07
1.48e-07
1.554e-07
1.633e-07
1.718e-07
1.807e-07
1.903e-07
1.999e-07
2.153e-07
-7.44e-52
6.66e-51
-5.053e-50
3.891e-49
-3.005e-48
2.31e-47
-1.755e-46
1.311e-45
-9.604e-45
6.887e-44
-4.836e-43
3.33e-42
-2.252e-41
1.5e-40
-9.849e-40
6.395e-39
-4.112e-38
2.622e-37
-1.661e-36
1.046e-35
-6.557e-35
4.091e-34
-2.541e-33
1.571e-32
-9.654e-32
5.891e-31
-3.571e-30
2.149e-29
-1.284e-28
7.618e-28
-4.485e-27
2.619e-26
-1.516e-25
8.705e-25
-4.951e-24
2.79e-23
-1.552e-22
8.783e-22
-3.845e-21
5.186e-20
1.615e-18
2.288e-17
2.815e-16
3.221e-15
3.429e-14
3.378e-13
3.06e-12
2.53e-11
1.896e-10
1.278e-09
7.704e-09
4.124e-08
1.949e-07
8.095e-07
2.941e-06
9.315e-06
2.566e-05
6.149e-05
0.0001284
0.0002345
0.00038
0.0005506
0.0007129
0.0008383
0.0009083
0.0008905
0.0008329
0.000741
0.00063
0.0005147
0.0004059
0.0003104
0.0002311
0.0001682
0.0001203
8.476e-05
5.915e-05
4.105e-05
2.844e-05
1.975e-05
1.379e-05
9.718e-06
6.925e-06
5.001e-06
3.667e-06
2.734e-06
2.074e-06
1.602e-06
1.26e-06
1.009e-06
8.235e-07
6.838e-07
5.778e-07
4.964e-07
4.334e-07
3.843e-07
3.457e-07
3.152e-07
2.912e-07
2.722e-07
2.574e-07
2.459e-07
2.373e-07
2.309e-07
2.267e-07
2.241e-07
2.232e-07
2.238e-07
2.256e-07
2.285e-07
2.326e-07
2.378e-07
2.44e-07
2.512e-07
2.595e-07
2.688e-07
2.791e-07
2.904e-07
3.027e-07
3.161e-07
3.305e-07
3.46e-07
3.625e-07
3.802e-07
3.989e-07
4.189e-07
4.389e-07
4.711e-07
-2.843e-51
2.792e-50
-2.23e-49
1.728e-48
-1.292e-47
9.335e-47
-6.525e-46
4.42e-45
-2.909e-44
1.866e-43
-1.17e-42
7.197e-42
-4.365e-41
2.622e-40
-1.568e-39
9.387e-39
-5.652e-38
3.44e-37
-2.124e-36
1.333e-35
-8.504e-35
5.511e-34
-3.62e-33
2.406e-32
-1.59e-31
1.039e-30
-6.725e-30
4.311e-29
-2.739e-28
1.726e-27
-1.078e-26
6.68e-26
-4.106e-25
2.504e-24
-1.514e-23
9.09e-23
-5.38e-22
3.318e-21
-1.241e-20
4.001e-19
9.511e-18
1.334e-16
1.676e-15
1.963e-14
2.136e-13
2.144e-12
1.971e-11
1.646e-10
1.238e-09
8.322e-09
4.96e-08
2.601e-07
1.191e-06
4.739e-06
1.629e-05
4.822e-05
0.0001227
0.00027
0.0005147
0.0008642
0.001297
0.001757
0.002136
0.002422
0.002445
0.002357
0.00216
0.001893
0.001595
0.001297
0.001021
0.0007803
0.0005809
0.0004227
0.0003018
0.0002122
0.0001477
0.0001021
7.046e-05
4.871e-05
3.386e-05
2.375e-05
1.685e-05
1.212e-05
8.858e-06
6.582e-06
4.979e-06
3.835e-06
3.01e-06
2.406e-06
1.959e-06
1.624e-06
1.37e-06
1.175e-06
1.024e-06
9.063e-07
8.138e-07
7.408e-07
6.83e-07
6.374e-07
6.014e-07
5.734e-07
5.52e-07
5.361e-07
5.248e-07
5.179e-07
5.137e-07
5.144e-07
5.172e-07
5.225e-07
5.304e-07
5.408e-07
5.534e-07
5.683e-07
5.854e-07
6.047e-07
6.261e-07
6.497e-07
6.755e-07
7.034e-07
7.336e-07
7.66e-07
8.006e-07
8.375e-07
8.765e-07
9.181e-07
9.597e-07
1.027e-06
8.269e-51
-7.585e-50
5.826e-49
-4.477e-48
3.412e-47
-2.571e-46
1.909e-45
-1.395e-44
1.001e-43
-7.053e-43
4.88e-42
-3.318e-41
2.219e-40
-1.461e-39
9.489e-39
-6.087e-38
3.861e-37
-2.426e-36
1.511e-35
-9.344e-35
5.74e-34
-3.506e-33
2.13e-32
-1.288e-31
7.732e-31
-4.618e-30
2.745e-29
-1.624e-28
9.569e-28
-5.617e-27
3.286e-26
-1.916e-25
1.114e-24
-6.461e-24
3.74e-23
-2.155e-22
1.276e-21
-5.731e-21
9.864e-20
3.216e-18
4.984e-17
6.829e-16
8.744e-15
1.045e-13
1.157e-12
1.178e-11
1.093e-10
9.162e-10
6.873e-09
4.57e-08
2.667e-07
1.354e-06
5.927e-06
2.221e-05
7.089e-05
0.0001921
0.0004433
0.0008799
0.001516
0.002356
0.003246
0.004122
0.004826
0.005074
0.004991
0.004728
0.004295
0.003762
0.003194
0.002632
0.002102
0.00163
0.00123
0.000906
0.0006536
0.0004635
0.0003247
0.0002256
0.0001563
0.0001083
7.549e-05
5.305e-05
3.771e-05
2.717e-05
1.989e-05
1.48e-05
1.121e-05
8.654e-06
6.803e-06
5.448e-06
4.443e-06
3.688e-06
3.115e-06
2.675e-06
2.334e-06
2.067e-06
1.857e-06
1.691e-06
1.559e-06
1.455e-06
1.372e-06
1.308e-06
1.258e-06
1.221e-06
1.194e-06
1.177e-06
1.164e-06
1.165e-06
1.169e-06
1.179e-06
1.195e-06
1.216e-06
1.242e-06
1.272e-06
1.308e-06
1.348e-06
1.393e-06
1.442e-06
1.496e-06
1.554e-06
1.617e-06
1.685e-06
1.757e-06
1.834e-06
1.915e-06
2.001e-06
2.087e-06
2.226e-06
1.744e-50
-1.705e-49
1.369e-48
-1.076e-47
8.214e-47
-6.099e-46
4.405e-45
-3.099e-44
2.127e-43
-1.428e-42
9.395e-42
-6.077e-41
3.875e-40
-2.444e-39
1.528e-38
-9.495e-38
5.881e-37
-3.638e-36
2.252e-35
-1.397e-34
8.693e-34
-5.43e-33
3.408e-32
-2.145e-31
1.345e-30
-8.386e-30
5.204e-29
-3.216e-28
1.981e-27
-1.217e-26
7.456e-26
-4.562e-25
2.789e-24
-1.704e-23
1.042e-22
-6.34e-22
4.063e-21
-1.556e-20
5.45e-19
1.421e-17
2.189e-16
3.05e-15
3.978e-14
4.832e-13
5.423e-12
5.575e-11
5.199e-10
4.353e-09
3.236e-08
2.112e-07
1.196e-06
5.811e-06
2.398e-05
8.33e-05
0.0002424
0.000591
0.00122
0.002164
0.003388
0.005007
0.006219
0.007546
0.009772
0.01019
0.01002
0.00901
0.007149
0.006082
0.005259
0.004457
0.003648
0.002896
0.002235
0.001681
0.001236
0.000891
0.0006332
0.0004455
0.0003119
0.0002183
0.0001534
0.0001087
7.78e-05
5.645e-05
4.159e-05
3.115e-05
2.375e-05
1.844e-05
1.457e-05
1.173e-05
9.616e-06
8.02e-06
6.803e-06
5.864e-06
5.135e-06
4.562e-06
4.11e-06
3.751e-06
3.466e-06
3.239e-06
3.059e-06
2.918e-06
2.808e-06
2.726e-06
2.666e-06
2.628e-06
2.598e-06
2.598e-06
2.606e-06
2.626e-06
2.657e-06
2.7e-06
2.754e-06
2.818e-06
2.892e-06
2.976e-06
3.069e-06
3.172e-06
3.284e-06
3.406e-06
3.537e-06
3.678e-06
3.828e-06
3.987e-06
4.155e-06
4.334e-06
4.511e-06
4.797e-06
-3.53e-50
3.277e-49
-2.539e-48
1.96e-47
-1.495e-46
1.124e-45
-8.319e-45
6.051e-44
-4.322e-43
3.031e-42
-2.088e-41
1.413e-40
-9.406e-40
6.165e-39
-3.983e-38
2.54e-37
-1.601e-36
9.988e-36
-6.173e-35
3.785e-34
-2.305e-33
1.396e-32
-8.409e-32
5.042e-31
-3.005e-30
1.784e-29
-1.057e-28
6.244e-28
-3.687e-27
2.177e-26
-1.287e-25
7.618e-25
-4.524e-24
2.698e-23
-1.612e-22
1e-21
-4.572e-21
9.846e-20
3.335e-18
5.596e-17
8.421e-16
1.191e-14
1.577e-13
1.94e-12
2.2e-11
2.275e-10
2.124e-09
1.768e-08
1.295e-07
8.243e-07
4.491e-06
2.067e-05
7.937e-05
0.000252
0.0006589
0.001429
0.002636
0.004164
0.006122
0.009
0.01047
0.009981
0.01095
0.01174
0.01071
0.0102
0.01019
0.01039
0.009015
0.006909
0.005622
0.004541
0.003585
0.00276
0.002075
0.001528
0.001107
0.0007932
0.0005645
0.0004011
0.0002858
0.0002051
0.0001486
0.0001091
8.13e-05
6.156e-05
4.741e-05
3.716e-05
2.965e-05
2.408e-05
1.99e-05
1.672e-05
1.428e-05
1.239e-05
1.091e-05
9.749e-06
8.825e-06
8.089e-06
7.501e-06
7.033e-06
6.66e-06
6.368e-06
6.141e-06
5.969e-06
5.844e-06
5.766e-06
5.705e-06
5.706e-06
5.723e-06
5.765e-06
5.832e-06
5.923e-06
6.036e-06
6.17e-06
6.326e-06
6.501e-06
6.697e-06
6.911e-06
7.145e-06
7.399e-06
7.671e-06
7.962e-06
8.271e-06
8.599e-06
8.944e-06
9.309e-06
9.67e-06
1.025e-05
-5.065e-50
4.942e-49
-3.983e-48
3.157e-47
-2.444e-46
1.847e-45
-1.362e-44
9.805e-44
-6.899e-43
4.75e-42
-3.207e-41
2.127e-40
-1.388e-39
8.94e-39
-5.691e-38
3.59e-37
-2.247e-36
1.399e-35
-8.681e-35
5.372e-34
-3.322e-33
2.055e-32
-1.273e-31
7.892e-31
-4.877e-30
3.003e-29
-1.845e-28
1.132e-27
-6.949e-27
4.269e-26
-2.63e-25
1.626e-24
-1.01e-23
6.317e-23
-3.96e-22
2.641e-21
-1.02e-20
3.926e-19
1.111e-17
1.857e-16
2.833e-15
4.062e-14
5.446e-13
6.772e-12
7.734e-11
8.026e-10
7.476e-09
6.165e-08
4.434e-07
2.737e-06
1.425e-05
6.157e-05
0.0002177
0.0006249
0.001455
0.002801
0.004689
0.006668
0.01009
0.0102
0.0118
0.009982
0.01019
0.01004
0.0101
0.01024
0.0101
0.01144
0.01016
0.01028
0.008439
0.006575
0.005262
0.004127
0.003166
0.002381
0.001762
0.001288
0.0009347
0.0006768
0.0004911
0.0003586
0.0002643
0.0001971
0.0001492
0.0001146
8.951e-05
7.11e-05
5.745e-05
4.721e-05
3.945e-05
3.349e-05
2.889e-05
2.529e-05
2.245e-05
2.02e-05
1.841e-05
1.698e-05
1.583e-05
1.491e-05
1.418e-05
1.36e-05
1.316e-05
1.283e-05
1.259e-05
1.244e-05
1.233e-05
1.234e-05