/*--------------------------------*- C++ -*----------------------------------*\
  =========                 |
  \\      /  F ield         | OpenFOAM: The Open Source CFD Toolbox
   \\    /   O peration     | Website:  https://openfoam.org
    \\  /    A nd           | Version:  7
     \\/     M anipulation  |
\*---------------------------------------------------------------------------*/
FoamFile
{
    version     2.0;
    format      ascii;
    class       volScalarField;
    location    "119.999473411421";
    object      p;
}
// * * * * * * * * * * * * * * * * * * * * * * * * * * * * * * * * * * * * * //

dimensions      [0 2 -2 0 0 0 0];

internalField   nonuniform List<scalar> 
4096
(
0.0006925
0.0005216
0.0004373
0.0003952
0.0003718
0.0003579
0.0003491
0.000343
0.0003386
0.0003354
0.0003329
0.0003309
0.0003292
0.0003279
0.0003267
0.0003257
0.0003248
0.000324
0.0003233
0.0003227
0.0003221
0.0003215
0.0003209
0.0003204
0.0003199
0.0003194
0.0003189
0.0003184
0.0003178
0.0003173
0.0003167
0.0003161
0.0003155
0.0003148
0.0003141
0.0003132
0.0003123
0.0003113
0.0003102
0.0003089
0.0003074
0.0003057
0.0003038
0.0003017
0.0002993
0.0002965
0.0002934
0.0002899
0.000286
0.0002816
0.0002768
0.0002715
0.0002656
0.0002592
0.0002523
0.0002448
0.0002369
0.0002284
0.0002195
0.0002102
0.0002005
0.0001905
0.0001804
0.0001701
0.0001597
0.0001495
0.0001394
0.0001295
0.0001199
0.0001107
0.0001019
9.361e-05
8.579e-05
7.848e-05
7.168e-05
6.541e-05
5.966e-05
5.441e-05
4.965e-05
4.535e-05
4.148e-05
3.802e-05
3.494e-05
3.22e-05
2.977e-05
2.762e-05
2.573e-05
2.405e-05
2.257e-05
2.126e-05
2.01e-05
1.906e-05
1.813e-05
1.729e-05
1.653e-05
1.583e-05
1.518e-05
1.457e-05
1.4e-05
1.346e-05
1.294e-05
1.243e-05
1.194e-05
1.146e-05
1.099e-05
1.052e-05
1.005e-05
9.587e-06
9.121e-06
8.655e-06
8.186e-06
7.715e-06
7.241e-06
6.764e-06
6.283e-06
5.799e-06
5.31e-06
4.817e-06
4.321e-06
3.82e-06
3.315e-06
2.807e-06
2.298e-06
1.79e-06
1.288e-06
7.991e-07
3.434e-07
2.666e-08
0.000548
0.0004842
0.0004345
0.0004024
0.0003815
0.0003673
0.0003572
0.0003499
0.0003444
0.0003402
0.0003369
0.0003343
0.0003321
0.0003303
0.0003287
0.0003274
0.0003262
0.0003252
0.0003243
0.0003234
0.0003226
0.0003219
0.0003212
0.0003205
0.0003198
0.0003192
0.0003185
0.0003179
0.0003172
0.0003165
0.0003158
0.0003151
0.0003143
0.0003134
0.0003125
0.0003115
0.0003104
0.0003092
0.0003079
0.0003064
0.0003048
0.0003029
0.0003008
0.0002985
0.0002959
0.000293
0.0002898
0.0002862
0.0002822
0.0002777
0.0002729
0.0002675
0.0002617
0.0002554
0.0002487
0.0002414
0.0002337
0.0002255
0.000217
0.000208
0.0001988
0.0001893
0.0001796
0.0001698
0.00016
0.0001503
0.0001406
0.0001312
0.0001221
0.0001132
0.0001048
9.678e-05
8.919e-05
8.207e-05
7.542e-05
6.925e-05
6.355e-05
5.831e-05
5.352e-05
4.917e-05
4.522e-05
4.165e-05
3.844e-05
3.556e-05
3.298e-05
3.067e-05
2.861e-05
2.676e-05
2.511e-05
2.363e-05
2.23e-05
2.111e-05
2.002e-05
1.903e-05
1.813e-05
1.73e-05
1.652e-05
1.58e-05
1.512e-05
1.448e-05
1.386e-05
1.327e-05
1.27e-05
1.215e-05
1.16e-05
1.107e-05
1.055e-05
1.003e-05
9.521e-06
9.012e-06
8.505e-06
8e-06
7.496e-06
6.991e-06
6.486e-06
5.98e-06
5.473e-06
4.964e-06
4.453e-06
3.941e-06
3.428e-06
2.914e-06
2.4e-06
1.89e-06
1.385e-06
8.917e-07
4.202e-07
5.842e-08
0.0004645
0.0004428
0.0004174
0.0003966
0.0003811
0.0003694
0.0003604
0.0003534
0.0003479
0.0003434
0.0003398
0.0003368
0.0003343
0.0003322
0.0003304
0.0003288
0.0003274
0.0003262
0.0003251
0.0003241
0.0003231
0.0003222
0.0003214
0.0003205
0.0003197
0.0003189
0.0003182
0.0003174
0.0003166
0.0003158
0.0003149
0.000314
0.0003131
0.0003121
0.000311
0.0003099
0.0003086
0.0003073
0.0003058
0.0003041
0.0003023
0.0003003
0.0002981
0.0002956
0.0002929
0.0002898
0.0002865
0.0002828
0.0002787
0.0002742
0.0002694
0.0002641
0.0002583
0.0002521
0.0002455
0.0002384
0.0002309
0.000223
0.0002148
0.0002062
0.0001973
0.0001882
0.000179
0.0001696
0.0001602
0.0001509
0.0001417
0.0001327
0.0001239
0.0001154
0.0001073
9.952e-05
9.216e-05
8.522e-05
7.871e-05
7.264e-05
6.7e-05
6.179e-05
5.7e-05
5.26e-05
4.859e-05
4.495e-05
4.164e-05
3.864e-05
3.593e-05
3.349e-05
3.129e-05
2.93e-05
2.75e-05
2.587e-05
2.44e-05
2.306e-05
2.183e-05
2.071e-05
1.968e-05
1.872e-05
1.783e-05
1.7e-05
1.622e-05
1.548e-05
1.477e-05
1.41e-05
1.345e-05
1.283e-05
1.222e-05
1.163e-05
1.105e-05
1.048e-05
9.925e-06
9.375e-06
8.831e-06
8.291e-06
7.756e-06
7.225e-06
6.695e-06
6.167e-06
5.641e-06
5.115e-06
4.59e-06
4.066e-06
3.542e-06
3.019e-06
2.497e-06
1.979e-06
1.464e-06
9.57e-07
4.606e-07
6.347e-08
0.0004197
0.0004127
0.0003994
0.0003862
0.0003753
0.0003666
0.0003594
0.0003536
0.0003487
0.0003446
0.0003411
0.0003381
0.0003356
0.0003334
0.0003315
0.0003298
0.0003283
0.0003269
0.0003257
0.0003245
0.0003234
0.0003224
0.0003215
0.0003205
0.0003196
0.0003187
0.0003178
0.0003169
0.000316
0.0003151
0.0003141
0.0003131
0.000312
0.0003109
0.0003097
0.0003084
0.0003071
0.0003056
0.0003039
0.0003022
0.0003002
0.0002981
0.0002957
0.0002932
0.0002903
0.0002872
0.0002838
0.00028
0.0002759
0.0002714
0.0002666
0.0002613
0.0002556
0.0002495
0.000243
0.0002361
0.0002288
0.0002211
0.0002131
0.0002048
0.0001962
0.0001874
0.0001784
0.0001694
0.0001604
0.0001514
0.0001425
0.0001338
0.0001253
0.0001171
0.0001092
0.0001016
9.447e-05
8.768e-05
8.129e-05
7.531e-05
6.973e-05
6.456e-05
5.978e-05
5.537e-05
5.133e-05
4.763e-05
4.426e-05
4.119e-05
3.839e-05
3.585e-05
3.354e-05
3.144e-05
2.953e-05
2.779e-05
2.62e-05
2.474e-05
2.341e-05
2.218e-05
2.104e-05
1.998e-05
1.899e-05
1.807e-05
1.72e-05
1.638e-05
1.56e-05
1.485e-05
1.413e-05
1.345e-05
1.278e-05
1.214e-05
1.151e-05
1.09e-05
1.03e-05
9.712e-06
9.134e-06
8.564e-06
8.001e-06
7.444e-06
6.892e-06
6.344e-06
5.8e-06
5.258e-06
4.719e-06
4.182e-06
3.647e-06
3.113e-06
2.581e-06
2.051e-06
1.523e-06
9.992e-07
4.791e-07
5.935e-08
0.0003928
0.0003918
0.0003849
0.0003763
0.0003685
0.000362
0.0003565
0.0003518
0.0003477
0.0003442
0.0003411
0.0003384
0.000336
0.0003339
0.000332
0.0003303
0.0003287
0.0003273
0.000326
0.0003248
0.0003236
0.0003225
0.0003215
0.0003205
0.0003195
0.0003185
0.0003175
0.0003165
0.0003155
0.0003145
0.0003134
0.0003123
0.0003111
0.0003099
0.0003086
0.0003072
0.0003058
0.0003042
0.0003024
0.0003006
0.0002985
0.0002963
0.0002939
0.0002912
0.0002883
0.0002852
0.0002817
0.0002779
0.0002738
0.0002693
0.0002644
0.0002592
0.0002535
0.0002475
0.0002411
0.0002343
0.0002271
0.0002196
0.0002118
0.0002037
0.0001953
0.0001867
0.000178
0.0001692
0.0001604
0.0001517
0.000143
0.0001346
0.0001263
0.0001183
0.0001106
0.0001032
9.619e-05
8.953e-05
8.324e-05
7.734e-05
7.182e-05
6.669e-05
6.193e-05
5.753e-05
5.347e-05
4.975e-05
4.634e-05
4.322e-05
4.036e-05
3.776e-05
3.537e-05
3.32e-05
3.121e-05
2.938e-05
2.77e-05
2.616e-05
2.474e-05
2.342e-05
2.22e-05
2.106e-05
2e-05
1.9e-05
1.805e-05
1.716e-05
1.632e-05
1.551e-05
1.474e-05
1.4e-05
1.328e-05
1.259e-05
1.192e-05
1.127e-05
1.064e-05
1.001e-05
9.407e-06
8.809e-06
8.222e-06
7.643e-06
7.071e-06
6.505e-06
5.944e-06
5.388e-06
4.836e-06
4.286e-06
3.74e-06
3.195e-06
2.652e-06
2.11e-06
1.57e-06
1.03e-06
4.904e-07
5.464e-08
0.0003754
0.000377
0.0003736
0.000368
0.0003623
0.0003572
0.0003529
0.0003492
0.0003459
0.0003429
0.0003403
0.0003379
0.0003357
0.0003338
0.000332
0.0003303
0.0003288
0.0003274
0.0003261
0.0003248
0.0003237
0.0003225
0.0003214
0.0003204
0.0003193
0.0003182
0.0003172
0.0003161
0.0003151
0.000314
0.0003128
0.0003116
0.0003104
0.0003091
0.0003077
0.0003063
0.0003047
0.0003031
0.0003013
0.0002993
0.0002972
0.0002949
0.0002925
0.0002898
0.0002868
0.0002836
0.0002801
0.0002763
0.0002722
0.0002677
0.0002629
0.0002576
0.000252
0.0002461
0.0002397
0.000233
0.0002259
0.0002185
0.0002108
0.0002029
0.0001947
0.0001863
0.0001777
0.0001691
0.0001604
0.0001519
0.0001434
0.0001351
0.000127
0.0001191
0.0001116
0.0001043
9.739e-05
9.083e-05
8.463e-05
7.879e-05
7.333e-05
6.823e-05
6.349e-05
5.911e-05
5.506e-05
5.133e-05
4.791e-05
4.476e-05
4.188e-05
3.923e-05
3.681e-05
3.458e-05
3.253e-05
3.065e-05
2.891e-05
2.731e-05
2.582e-05
2.444e-05
2.315e-05
2.195e-05
2.083e-05
1.977e-05
1.877e-05
1.782e-05
1.692e-05
1.607e-05
1.525e-05
1.446e-05
1.371e-05
1.298e-05
1.227e-05
1.159e-05
1.092e-05
1.028e-05
9.642e-06
9.022e-06
8.413e-06
7.815e-06
7.226e-06
6.644e-06
6.069e-06
5.5e-06
4.936e-06
4.376e-06
3.819e-06
3.265e-06
2.712e-06
2.16e-06
1.608e-06
1.055e-06
4.995e-07
5.126e-08
0.0003635
0.000366
0.0003647
0.0003611
0.0003569
0.0003529
0.0003494
0.0003464
0.0003436
0.0003412
0.000339
0.0003369
0.000335
0.0003333
0.0003316
0.0003301
0.0003286
0.0003273
0.000326
0.0003248
0.0003236
0.0003224
0.0003213
0.0003202
0.0003191
0.000318
0.0003169
0.0003158
0.0003147
0.0003135
0.0003124
0.0003111
0.0003098
0.0003085
0.0003071
0.0003055
0.0003039
0.0003022
0.0003004
0.0002984
0.0002963
0.0002939
0.0002914
0.0002887
0.0002858
0.0002825
0.000279
0.0002752
0.0002711
0.0002666
0.0002618
0.0002566
0.0002511
0.0002451
0.0002388
0.0002322
0.0002252
0.0002178
0.0002102
0.0002023
0.0001942
0.0001859
0.0001775
0.0001689
0.0001604
0.0001519
0.0001435
0.0001353
0.0001273
0.0001196
0.0001121
0.000105
9.812e-05
9.163e-05
8.549e-05
7.97e-05
7.428e-05
6.922e-05
6.451e-05
6.015e-05
5.612e-05
5.241e-05
4.898e-05
4.584e-05
4.295e-05
4.029e-05
3.784e-05
3.559e-05
3.351e-05
3.16e-05
2.982e-05
2.818e-05
2.665e-05
2.523e-05
2.39e-05
2.265e-05
2.148e-05
2.038e-05
1.933e-05
1.835e-05
1.741e-05
1.651e-05
1.566e-05
1.484e-05
1.405e-05
1.329e-05
1.256e-05
1.185e-05
1.116e-05
1.049e-05
9.835e-06
9.196e-06
8.57e-06
7.956e-06
7.353e-06
6.759e-06
6.172e-06
5.593e-06
5.019e-06
4.45e-06
3.885e-06
3.322e-06
2.761e-06
2.2e-06
1.639e-06
1.076e-06
5.082e-07
4.992e-08
0.0003549
0.0003576
0.0003575
0.0003553
0.0003523
0.0003492
0.0003463
0.0003437
0.0003414
0.0003394
0.0003375
0.0003357
0.000334
0.0003325
0.000331
0.0003296
0.0003283
0.000327
0.0003257
0.0003245
0.0003234
0.0003222
0.0003211
0.00032
0.0003189
0.0003178
0.0003167
0.0003156
0.0003144
0.0003132
0.000312
0.0003107
0.0003094
0.000308
0.0003066
0.000305
0.0003034
0.0003017
0.0002998
0.0002978
0.0002956
0.0002933
0.0002908
0.0002881
0.0002851
0.0002819
0.0002785
0.0002747
0.0002706
0.0002661
0.0002613
0.0002561
0.0002506
0.0002447
0.0002384
0.0002317
0.0002248
0.0002175
0.0002099
0.000202
0.000194
0.0001857
0.0001773
0.0001688
0.0001603
0.0001518
0.0001435
0.0001353
0.0001274
0.0001197
0.0001123
0.0001052
9.84e-05
9.195e-05
8.584e-05
8.009e-05
7.47e-05
6.968e-05
6.5e-05
6.067e-05
5.667e-05
5.298e-05
4.959e-05
4.646e-05
4.358e-05
4.093e-05
3.849e-05
3.624e-05
3.416e-05
3.223e-05
3.044e-05
2.878e-05
2.723e-05
2.578e-05
2.442e-05
2.315e-05
2.195e-05
2.082e-05
1.975e-05
1.873e-05
1.777e-05
1.684e-05
1.596e-05
1.512e-05
1.431e-05
1.353e-05
1.277e-05
1.204e-05
1.134e-05
1.065e-05
9.98e-06
9.327e-06
8.689e-06
8.063e-06
7.45e-06
6.846e-06
6.251e-06
5.663e-06
5.082e-06
4.507e-06
3.935e-06
3.366e-06
2.799e-06
2.233e-06
1.665e-06
1.094e-06
5.174e-07
5.094e-08
0.0003484
0.0003511
0.0003517
0.0003505
0.0003483
0.0003459
0.0003435
0.0003413
0.0003394
0.0003376
0.0003359
0.0003344
0.000333
0.0003316
0.0003303
0.000329
0.0003278
0.0003266
0.0003254
0.0003242
0.0003231
0.000322
0.0003209
0.0003198
0.0003187
0.0003176
0.0003165
0.0003154
0.0003142
0.000313
0.0003118
0.0003105
0.0003092
0.0003078
0.0003063
0.0003048
0.0003031
0.0003014
0.0002995
0.0002975
0.0002954
0.0002931
0.0002906
0.0002879
0.000285
0.0002818
0.0002783
0.0002746
0.0002705
0.0002661
0.0002613
0.0002561
0.0002506
0.0002447
0.0002384
0.0002317
0.0002248
0.0002174
0.0002098
0.000202
0.0001939
0.0001856
0.0001771
0.0001686
0.0001601
0.0001516
0.0001433
0.0001351
0.0001272
0.0001195
0.0001121
0.000105
9.822e-05
9.178e-05
8.569e-05
7.997e-05
7.46e-05
6.961e-05
6.497e-05
6.068e-05
5.673e-05
5.308e-05
4.973e-05
4.664e-05
4.38e-05
4.118e-05
3.877e-05
3.654e-05
3.447e-05
3.255e-05
3.077e-05
2.911e-05
2.756e-05
2.61e-05
2.474e-05
2.345e-05
2.224e-05
2.11e-05
2.001e-05
1.898e-05
1.8e-05
1.706e-05
1.616e-05
1.53e-05
1.448e-05
1.368e-05
1.291e-05
1.217e-05
1.145e-05
1.076e-05
1.008e-05
9.414e-06
8.767e-06
8.134e-06
7.513e-06
6.903e-06
6.303e-06
5.71e-06
5.125e-06
4.545e-06
3.97e-06
3.398e-06
2.827e-06
2.257e-06
1.686e-06
1.11e-06
5.277e-07
5.457e-08
0.0003433
0.0003459
0.0003469
0.0003463
0.0003449
0.000343
0.0003411
0.0003392
0.0003375
0.0003359
0.0003345
0.0003331
0.0003319
0.0003306
0.0003294
0.0003283
0.0003272
0.0003261
0.000325
0.0003239
0.0003228
0.0003218
0.0003207
0.0003196
0.0003186
0.0003175
0.0003164
0.0003152
0.0003141
0.0003129
0.0003117
0.0003104
0.0003091
0.0003077
0.0003062
0.0003047
0.0003031
0.0003013
0.0002995
0.0002975
0.0002954
0.0002932
0.0002907
0.0002881
0.0002852
0.0002821
0.0002787
0.000275
0.000271
0.0002666
0.0002618
0.0002567
0.0002511
0.0002452
0.0002389
0.0002322
0.0002251
0.0002178
0.0002101
0.0002022
0.000194
0.0001856
0.0001771
0.0001685
0.0001599
0.0001513
0.0001429
0.0001347
0.0001267
0.0001189
0.0001115
0.0001044
9.758e-05
9.113e-05
8.504e-05
7.932e-05
7.397e-05
6.901e-05
6.442e-05
6.018e-05
5.629e-05
5.271e-05
4.942e-05
4.639e-05
4.361e-05
4.105e-05
3.868e-05
3.65e-05
3.447e-05
3.258e-05
3.082e-05
2.918e-05
2.765e-05
2.62e-05
2.484e-05
2.356e-05
2.235e-05
2.121e-05
2.012e-05
1.908e-05
1.81e-05
1.715e-05
1.625e-05
1.539e-05
1.455e-05
1.375e-05
1.298e-05
1.223e-05
1.151e-05
1.08e-05
1.012e-05
9.454e-06
8.803e-06
8.167e-06
7.543e-06
6.93e-06
6.328e-06
5.733e-06
5.146e-06
4.565e-06
3.989e-06
3.416e-06
2.845e-06
2.274e-06
1.701e-06
1.124e-06
5.393e-07
6.097e-08
0.0003393
0.0003417
0.0003429
0.0003428
0.0003418
0.0003404
0.0003389
0.0003373
0.0003358
0.0003344
0.0003332
0.0003319
0.0003308
0.0003297
0.0003286
0.0003276
0.0003266
0.0003255
0.0003245
0.0003235
0.0003225
0.0003215
0.0003205
0.0003195
0.0003184
0.0003174
0.0003163
0.0003152
0.0003141
0.0003129
0.0003117
0.0003104
0.0003091
0.0003078
0.0003063
0.0003048
0.0003032
0.0003016
0.0002998
0.0002979
0.0002958
0.0002936
0.0002912
0.0002886
0.0002859
0.0002828
0.0002795
0.0002759
0.0002719
0.0002676
0.0002629
0.0002577
0.0002522
0.0002462
0.0002399
0.0002331
0.000226
0.0002185
0.0002107
0.0002027
0.0001944
0.0001859
0.0001772
0.0001684
0.0001596
0.0001508
0.0001423
0.0001339
0.0001258
0.000118
0.0001105
0.0001033
9.643e-05
8.994e-05
8.383e-05
7.811e-05
7.279e-05
6.787e-05
6.333e-05
5.917e-05
5.535e-05
5.186e-05
4.865e-05
4.572e-05
4.302e-05
4.054e-05
3.824e-05
3.612e-05
3.415e-05
3.232e-05
3.061e-05
2.9e-05
2.75e-05
2.608e-05
2.475e-05
2.349e-05
2.229e-05
2.116e-05
2.008e-05
1.905e-05
1.807e-05
1.713e-05
1.624e-05
1.537e-05
1.454e-05
1.374e-05
1.297e-05
1.222e-05
1.15e-05
1.08e-05
1.011e-05
9.447e-06
8.797e-06
8.161e-06
7.538e-06
6.926e-06
6.325e-06
5.732e-06
5.146e-06
4.567e-06
3.992e-06
3.421e-06
2.852e-06
2.283e-06
1.712e-06
1.136e-06
5.524e-07
7.023e-08
0.000336
0.0003382
0.0003395
0.0003397
0.0003392
0.0003382
0.0003369
0.0003356
0.0003343
0.0003331
0.000332
0.0003309
0.0003298
0.0003288
0.0003279
0.0003269
0.000326
0.000325
0.0003241
0.0003232
0.0003222
0.0003213
0.0003203
0.0003193
0.0003183
0.0003173
0.0003163
0.0003152
0.0003141
0.000313
0.0003118
0.0003106
0.0003093
0.000308
0.0003066
0.0003052
0.0003036
0.000302
0.0003003
0.0002984
0.0002965
0.0002944
0.0002921
0.0002896
0.0002869
0.000284
0.0002808
0.0002772
0.0002734
0.0002691
0.0002645
0.0002594
0.0002538
0.0002479
0.0002414
0.0002346
0.0002274
0.0002197
0.0002118
0.0002036
0.0001951
0.0001863
0.0001773
0.0001683
0.0001592
0.0001502
0.0001414
0.0001328
0.0001246
0.0001166
0.000109
0.0001016
9.471e-05
8.817e-05
8.203e-05
7.631e-05
7.102e-05
6.615e-05
6.169e-05
5.762e-05
5.392e-05
5.054e-05
4.745e-05
4.463e-05
4.204e-05
3.966e-05
3.747e-05
3.543e-05
3.354e-05
3.178e-05
3.013e-05
2.859e-05
2.713e-05
2.576e-05
2.446e-05
2.323e-05
2.207e-05
2.096e-05
1.99e-05
1.889e-05
1.793e-05
1.7e-05
1.612e-05
1.526e-05
1.444e-05
1.365e-05
1.289e-05
1.215e-05
1.143e-05
1.073e-05
1.005e-05
9.393e-06
8.748e-06
8.117e-06
7.499e-06
6.892e-06
6.295e-06
5.706e-06
5.125e-06
4.55e-06
3.98e-06
3.414e-06
2.849e-06
2.284e-06
1.717e-06
1.146e-06
5.672e-07
8.241e-08
0.0003333
0.0003353
0.0003366
0.0003371
0.0003369
0.0003362
0.0003352
0.0003341
0.000333
0.0003319
0.0003309
0.0003299
0.000329
0.0003281
0.0003272
0.0003263
0.0003255
0.0003246
0.0003237
0.0003229
0.000322
0.0003211
0.0003202
0.0003192
0.0003183
0.0003173
0.0003163
0.0003153
0.0003143
0.0003132
0.0003121
0.0003109
0.0003097
0.0003084
0.0003071
0.0003057
0.0003042
0.0003027
0.0003011
0.0002993
0.0002974
0.0002954
0.0002933
0.0002909
0.0002884
0.0002856
0.0002825
0.0002791
0.0002754
0.0002712
0.0002667
0.0002617
0.0002561
0.0002501
0.0002437
0.0002367
0.0002294
0.0002216
0.0002134
0.0002049
0.0001962
0.0001871
0.0001777
0.0001682
0.0001588
0.0001494
0.0001402
0.0001313
0.0001228
0.0001147
0.0001068
9.935e-05
9.232e-05
8.572e-05
7.956e-05
7.385e-05
6.861e-05
6.383e-05
5.948e-05
5.554e-05
5.198e-05
4.875e-05
4.581e-05
4.314e-05
4.069e-05
3.844e-05
3.637e-05
3.445e-05
3.266e-05
3.098e-05
2.942e-05
2.794e-05
2.655e-05
2.524e-05
2.399e-05
2.281e-05
2.168e-05
2.061e-05
1.959e-05
1.861e-05
1.767e-05
1.676e-05
1.59e-05
1.506e-05
1.426e-05
1.348e-05
1.273e-05
1.201e-05
1.13e-05
1.061e-05
9.947e-06
9.296e-06
8.66e-06
8.037e-06
7.427e-06
6.828e-06
6.238e-06
5.657e-06
5.083e-06
4.516e-06
3.953e-06
3.393e-06
2.836e-06
2.278e-06
1.719e-06
1.155e-06
5.836e-07
9.746e-08
0.000331
0.0003329
0.0003342
0.0003348
0.0003348
0.0003344
0.0003337
0.0003328
0.0003319
0.0003309
0.00033
0.0003291
0.0003282
0.0003274
0.0003266
0.0003258
0.000325
0.0003242
0.0003234
0.0003226
0.0003218
0.0003209
0.0003201
0.0003192
0.0003183
0.0003174
0.0003165
0.0003155
0.0003145
0.0003135
0.0003124
0.0003113
0.0003102
0.000309
0.0003077
0.0003064
0.000305
0.0003036
0.000302
0.0003004
0.0002987
0.0002968
0.0002948
0.0002926
0.0002902
0.0002876
0.0002847
0.0002815
0.0002779
0.0002739
0.0002695
0.0002646
0.0002592
0.0002532
0.0002467
0.0002397
0.0002322
0.0002242
0.0002158
0.000207
0.0001979
0.0001883
0.0001783
0.0001682
0.0001582
0.0001483
0.0001385
0.0001292
0.0001204
0.000112
0.0001039
9.624e-05
8.913e-05
8.249e-05
7.634e-05
7.068e-05
6.552e-05
6.086e-05
5.667e-05
5.291e-05
4.954e-05
4.65e-05
4.375e-05
4.126e-05
3.898e-05
3.689e-05
3.497e-05
3.318e-05
3.151e-05
2.995e-05
2.848e-05
2.71e-05
2.579e-05
2.454e-05
2.336e-05
2.223e-05
2.116e-05
2.013e-05
1.915e-05
1.82e-05
1.73e-05
1.643e-05
1.559e-05
1.478e-05
1.4e-05
1.325e-05
1.251e-05
1.181e-05
1.112e-05
1.045e-05
9.793e-06
9.156e-06
8.533e-06
7.922e-06
7.324e-06
6.736e-06
6.157e-06
5.586e-06
5.022e-06
4.464e-06
3.911e-06
3.361e-06
2.813e-06
2.265e-06
1.716e-06
1.162e-06
6.016e-07
1.153e-07
0.0003291
0.0003309
0.0003322
0.0003329
0.000333
0.0003328
0.0003323
0.0003316
0.0003308
0.00033
0.0003292
0.0003284
0.0003276
0.0003268
0.0003261
0.0003253
0.0003246
0.0003239
0.0003231
0.0003224
0.0003216
0.0003208
0.00032
0.0003192
0.0003184
0.0003175
0.0003167
0.0003158
0.0003148
0.0003139
0.0003129
0.0003118
0.0003108
0.0003097
0.0003085
0.0003073
0.000306
0.0003047
0.0003032
0.0003017
0.0003001
0.0002984
0.0002966
0.0002946
0.0002924
0.00029
0.0002873
0.0002843
0.000281
0.0002773
0.0002731
0.0002683
0.000263
0.0002571
0.0002507
0.0002437
0.0002361
0.000228
0.0002192
0.00021
0.0002006
0.0001903
0.0001794
0.0001684
0.0001576
0.0001467
0.0001361
0.0001261
0.000117
0.0001083
9.986e-05
9.21e-05
8.497e-05
7.837e-05
7.227e-05
6.671e-05
6.17e-05
5.723e-05
5.326e-05
4.974e-05
4.66e-05
4.38e-05
4.129e-05
3.901e-05
3.694e-05
3.504e-05
3.329e-05
3.166e-05
3.013e-05
2.87e-05
2.734e-05
2.606e-05
2.484e-05
2.368e-05
2.258e-05
2.152e-05
2.05e-05
1.953e-05
1.86e-05
1.77e-05
1.683e-05
1.6e-05
1.52e-05
1.442e-05
1.367e-05
1.294e-05
1.223e-05
1.155e-05
1.088e-05
1.023e-05
9.597e-06
8.977e-06
8.371e-06
7.776e-06
7.192e-06
6.618e-06
6.052e-06
5.495e-06
4.943e-06
4.398e-06
3.856e-06
3.318e-06
2.782e-06
2.246e-06
1.709e-06
1.168e-06
6.211e-07
1.356e-07
0.0003275
0.0003292
0.0003304
0.0003312
0.0003315
0.0003314
0.000331
0.0003305
0.0003299
0.0003292
0.0003285
0.0003277
0.000327
0.0003263
0.0003256
0.000325
0.0003243
0.0003236
0.0003229
0.0003222
0.0003215
0.0003208
0.0003201
0.0003193
0.0003185
0.0003178
0.0003169
0.0003161
0.0003152
0.0003144
0.0003134
0.0003125
0.0003115
0.0003105
0.0003094
0.0003083
0.0003071
0.0003059
0.0003046
0.0003033
0.0003018
0.0003003
0.0002987
0.0002969
0.0002949
0.0002928
0.0002904
0.0002877
0.0002846
0.0002812
0.0002773
0.0002728
0.0002677
0.000262
0.0002557
0.0002488
0.0002414
0.0002332
0.0002241
0.0002146
0.0002049
0.0001936
0.0001812
0.0001688
0.0001566
0.0001444
0.0001324
0.0001216
0.0001122
0.0001031
9.446e-05
8.667e-05
7.968e-05
7.322e-05
6.726e-05
6.189e-05
5.712e-05
5.293e-05
4.925e-05
4.604e-05
4.32e-05
4.069e-05
3.845e-05
3.644e-05
3.461e-05
3.292e-05
3.137e-05
2.991e-05
2.855e-05
2.726e-05
2.603e-05
2.487e-05
2.375e-05
2.269e-05
2.166e-05
2.068e-05
1.973e-05
1.882e-05
1.795e-05
1.71e-05
1.628e-05
1.55e-05
1.473e-05
1.399e-05
1.328e-05
1.258e-05
1.19e-05
1.124e-05
1.06e-05
9.976e-06
9.363e-06
8.764e-06
8.177e-06
7.601e-06
7.034e-06
6.477e-06
5.927e-06
5.385e-06
4.848e-06
4.317e-06
3.79e-06
3.266e-06
2.743e-06
2.222e-06
1.699e-06
1.173e-06
6.421e-07
1.583e-07
0.0003262
0.0003277
0.0003289
0.0003297
0.0003301
0.0003302
0.00033
0.0003296
0.0003291
0.0003285
0.0003279
0.0003272
0.0003266
0.0003259
0.0003253
0.0003247
0.000324
0.0003234
0.0003228
0.0003221
0.0003215
0.0003208
0.0003202
0.0003195
0.0003188
0.000318
0.0003173
0.0003165
0.0003157
0.0003149
0.0003141
0.0003132
0.0003123
0.0003114
0.0003104
0.0003094
0.0003084
0.0003073
0.0003062
0.000305
0.0003037
0.0003024
0.000301
0.0002994
0.0002977
0.0002959
0.0002938
0.0002914
0.0002888
0.0002857
0.0002822
0.0002781
0.0002734
0.0002679
0.0002619
0.0002554
0.0002484
0.0002404
0.0002312
0.0002216
0.0002119
0.0001994
0.0001843
0.0001695
0.0001553
0.0001408
0.0001263
0.0001144
0.0001051
9.6e-05
8.721e-05
7.967e-05
7.31e-05
6.696e-05
6.127e-05
5.62e-05
5.178e-05
4.797e-05
4.469e-05
4.185e-05
3.938e-05
3.721e-05
3.53e-05
3.358e-05
3.202e-05
3.058e-05
2.924e-05
2.798e-05
2.68e-05
2.566e-05
2.458e-05
2.354e-05
2.253e-05
2.157e-05
2.064e-05
1.974e-05
1.887e-05
1.803e-05
1.721e-05
1.643e-05
1.566e-05
1.492e-05
1.42e-05
1.351e-05
1.283e-05
1.217e-05
1.152e-05
1.09e-05
1.028e-05
9.684e-06
9.097e-06
8.522e-06
7.957e-06
7.401e-06
6.855e-06
6.316e-06
5.784e-06
5.259e-06
4.739e-06
4.224e-06
3.713e-06
3.204e-06
2.698e-06
2.192e-06
1.686e-06
1.177e-06
6.642e-07
1.83e-07
0.000325
0.0003265
0.0003277
0.0003285
0.0003289
0.0003291
0.000329
0.0003287
0.0003283
0.0003279
0.0003273
0.0003268
0.0003262
0.0003256
0.000325
0.0003244
0.0003239
0.0003233
0.0003227
0.0003221
0.0003215
0.0003209
0.0003203
0.0003197
0.000319
0.0003184
0.0003177
0.000317
0.0003163
0.0003155
0.0003148
0.000314
0.0003132
0.0003124
0.0003115
0.0003107
0.0003097
0.0003088
0.0003078
0.0003068
0.0003057
0.0003046
0.0003034
0.0003022
0.0003008
0.0002992
0.0002975
0.0002956
0.0002933
0.0002907
0.0002877
0.0002841
0.0002799
0.0002749
0.0002693
0.0002634
0.0002574
0.0002501
0.0002407
0.0002319
0.0002249
0.0002101
0.0001889
0.0001702
0.0001536
0.0001355
0.0001153
0.0001015
9.49e-05
8.643e-05
7.762e-05
7.08e-05
6.514e-05
5.959e-05
5.433e-05
4.97e-05
4.577e-05
4.244e-05
3.963e-05
3.725e-05
3.52e-05
3.344e-05
3.188e-05
3.05e-05
2.923e-05
2.806e-05
2.696e-05
2.591e-05
2.491e-05
2.395e-05
2.301e-05
2.21e-05
2.122e-05
2.036e-05
1.953e-05
1.872e-05
1.793e-05
1.716e-05
1.641e-05
1.569e-05
1.498e-05
1.429e-05
1.363e-05
1.297e-05
1.234e-05
1.172e-05
1.111e-05
1.051e-05
9.933e-06
9.363e-06
8.804e-06
8.254e-06
7.714e-06
7.181e-06
6.656e-06
6.138e-06
5.626e-06
5.12e-06
4.618e-06
4.121e-06
3.627e-06
3.136e-06
2.646e-06
2.158e-06
1.67e-06
1.18e-06
6.872e-07
2.093e-07
0.0003241
0.0003254
0.0003266
0.0003274
0.0003279
0.0003281
0.0003282
0.000328
0.0003277
0.0003273
0.0003269
0.0003264
0.0003259
0.0003253
0.0003248
0.0003243
0.0003237
0.0003232
0.0003227
0.0003221
0.0003216
0.000321
0.0003205
0.0003199
0.0003193
0.0003187
0.0003181
0.0003175
0.0003169
0.0003162
0.0003155
0.0003149
0.0003142
0.0003134
0.0003127
0.0003119
0.0003112
0.0003104
0.0003096
0.0003087
0.0003079
0.000307
0.000306
0.000305
0.000304
0.0003028
0.0003015
0.0003
0.0002982
0.0002961
0.0002937
0.0002907
0.000287
0.0002827
0.0002777
0.0002728
0.0002687
0.0002636
0.0002516
0.0002406
0.0002441
0.0002369
0.0001974
0.0001702
0.0001515
0.000126
8.973e-05
8.333e-05
8.621e-05
7.558e-05
6.452e-05
5.969e-05
5.587e-05
5.132e-05
4.664e-05
4.257e-05
3.922e-05
3.648e-05
3.421e-05
3.234e-05
3.077e-05
2.945e-05
2.829e-05
2.726e-05
2.632e-05
2.543e-05
2.458e-05
2.375e-05
2.294e-05
2.215e-05
2.137e-05
2.06e-05
1.984e-05
1.909e-05
1.836e-05
1.764e-05
1.693e-05
1.624e-05
1.556e-05
1.49e-05
1.426e-05
1.363e-05
1.301e-05
1.24e-05
1.181e-05
1.123e-05
1.066e-05
1.011e-05
9.558e-06
9.02e-06
8.49e-06
7.968e-06
7.453e-06
6.945e-06
6.444e-06
5.948e-06
5.457e-06
4.971e-06
4.488e-06
4.01e-06
3.534e-06
3.062e-06
2.591e-06
2.121e-06
1.652e-06
1.182e-06
7.109e-07
2.369e-07
0.0003233
0.0003245
0.0003256
0.0003265
0.000327
0.0003273
0.0003274
0.0003274
0.0003271
0.0003268
0.0003265
0.000326
0.0003256
0.0003251
0.0003247
0.0003242
0.0003237
0.0003232
0.0003227
0.0003222
0.0003217
0.0003212
0.0003207
0.0003202
0.0003197
0.0003191
0.0003186
0.0003181
0.0003175
0.0003169
0.0003163
0.0003158
0.0003151
0.0003145
0.0003139
0.0003133
0.0003126
0.000312
0.0003113
0.0003107
0.00031
0.0003094
0.0003087
0.000308
0.0003073
0.0003065
0.0003056
0.0003046
0.0003033
0.0003018
0.0002999
0.0002976
0.0002946
0.0002908
0.0002863
0.0002825
0.0002816
0.0002818
0.0002698
0.0002402
0.0002336
0.0002337
0.000171
0.0001631
0.00016
0.0001534
9.267e-05
9.243e-05
8.567e-05
5.841e-05
4.726e-05
4.707e-05
4.633e-05
4.285e-05
3.863e-05
3.51e-05
3.239e-05
3.027e-05
2.859e-05
2.726e-05
2.621e-05
2.535e-05
2.462e-05
2.396e-05
2.335e-05
2.275e-05
2.215e-05
2.155e-05
2.093e-05
2.031e-05
1.968e-05
1.905e-05
1.841e-05
1.778e-05
1.715e-05
1.652e-05
1.59e-05
1.529e-05
1.468e-05
1.409e-05
1.351e-05
1.293e-05
1.237e-05
1.181e-05
1.126e-05
1.073e-05
1.02e-05
9.679e-06
9.167e-06
8.661e-06
8.162e-06
7.669e-06
7.181e-06
6.699e-06
6.221e-06
5.748e-06
5.279e-06
4.814e-06
4.352e-06
3.893e-06
3.437e-06
2.983e-06
2.532e-06
2.081e-06
1.632e-06
1.184e-06
7.35e-07
2.652e-07
0.0003226
0.0003238
0.0003249
0.0003257
0.0003263
0.0003266
0.0003268
0.0003268
0.0003267
0.0003264
0.0003261
0.0003258
0.0003254
0.000325
0.0003245
0.0003241
0.0003237
0.0003232
0.0003228
0.0003223
0.0003219
0.0003214
0.000321
0.0003205
0.0003201
0.0003196
0.0003191
0.0003186
0.0003182
0.0003177
0.0003172
0.0003167
0.0003162
0.0003156
0.0003151
0.0003146
0.0003141
0.0003136
0.0003131
0.0003127
0.0003122
0.0003117
0.0003113
0.0003109
0.0003105
0.0003101
0.0003097
0.0003091
0.0003085
0.0003075
0.0003063
0.0003046
0.0003022
0.0002988
0.0002941
0.0002875
0.0002893
0.000294
0.0002769
0.0001894
0.000198
0.000189
0.0001365
0.0001574
0.0001672
0.0001877
0.0001351
0.0001279
0.0001363
5.422e-05
3.488e-05
3.928e-05
4.132e-05
3.514e-05
3.073e-05
2.753e-05
2.545e-05
2.398e-05
2.291e-05
2.216e-05
2.164e-05
2.127e-05
2.097e-05
2.07e-05
2.041e-05
2.01e-05
1.975e-05
1.936e-05
1.893e-05
1.848e-05
1.8e-05
1.75e-05
1.699e-05
1.646e-05
1.593e-05
1.539e-05
1.486e-05
1.432e-05
1.379e-05
1.326e-05
1.274e-05
1.222e-05
1.171e-05
1.121e-05
1.071e-05
1.021e-05
9.726e-06
9.243e-06
8.766e-06
8.294e-06
7.826e-06
7.362e-06
6.902e-06
6.446e-06
5.993e-06
5.544e-06
5.097e-06
4.653e-06
4.212e-06
3.773e-06
3.337e-06
2.903e-06
2.471e-06
2.04e-06
1.612e-06
1.185e-06
7.591e-07
2.939e-07
0.000322
0.0003232
0.0003242
0.000325
0.0003256
0.000326
0.0003262
0.0003263
0.0003262
0.0003261
0.0003259
0.0003256
0.0003252
0.0003249
0.0003245
0.0003241
0.0003237
0.0003233
0.0003229
0.0003225
0.0003221
0.0003217
0.0003213
0.0003209
0.0003205
0.0003201
0.0003196
0.0003192
0.0003188
0.0003184
0.000318
0.0003176
0.0003172
0.0003168
0.0003164
0.000316
0.0003156
0.0003152
0.0003149
0.0003146
0.0003143
0.0003141
0.0003139
0.0003137
0.0003137
0.0003136
0.0003136
0.0003136
0.0003134
0.0003131
0.0003125
0.0003116
0.0003101
0.0003073
0.0003017
0.0002923
0.0002769
0.0002738
0.0002446
0.0001235
0.0001707
-4.008e-05
8.331e-05
0.0001448
0.0001898
0.0002551
0.0003908
0.0001556
0.0001998
9.224e-05
5.646e-05
5.206e-05
3.657e-05
2.786e-05
2.243e-05
1.974e-05
1.85e-05
1.776e-05
1.735e-05
1.72e-05
1.723e-05
1.735e-05
1.747e-05
1.756e-05
1.759e-05
1.754e-05
1.742e-05
1.724e-05
1.699e-05
1.669e-05
1.635e-05
1.598e-05
1.558e-05
1.516e-05
1.472e-05
1.427e-05
1.382e-05
1.336e-05
1.29e-05
1.244e-05
1.197e-05
1.151e-05
1.106e-05
1.06e-05
1.015e-05
9.698e-06
9.251e-06
8.807e-06
8.365e-06
7.926e-06
7.489e-06
7.055e-06
6.623e-06
6.193e-06
5.765e-06
5.339e-06
4.914e-06
4.492e-06
4.071e-06
3.653e-06
3.236e-06
2.821e-06
2.409e-06
1.999e-06
1.591e-06
1.185e-06
7.828e-07
3.225e-07
0.0003215
0.0003226
0.0003236
0.0003245
0.0003251
0.0003255
0.0003258
0.0003259
0.0003259
0.0003258
0.0003256
0.0003254
0.0003251
0.0003248
0.0003245
0.0003241
0.0003237
0.0003234
0.000323
0.0003227
0.0003223
0.0003219
0.0003216
0.0003212
0.0003209
0.0003205
0.0003202
0.0003198
0.0003195
0.0003191
0.0003188
0.0003185
0.0003181
0.0003178
0.0003175
0.0003172
0.000317
0.0003167
0.0003165
0.0003164
0.0003163
0.0003162
0.0003163
0.0003164
0.0003166
0.0003169
0.0003172
0.0003177
0.000318
0.0003183
0.0003183
0.0003181
0.0003177
0.0003172
0.0003112
0.0002948
0.000229
0.0002273
-0.0002744
-1.639e-05
7.331e-05
5.905e-05
0.0001047
0.0001494
0.0001911
0.0002375
0.0002852
0.0002652
0.000356
0.0006271
0.0001065
9.911e-05
3.843e-05
1.853e-05
1.277e-05
1.213e-05
1.197e-05
1.199e-05
1.219e-05
1.262e-05
1.317e-05
1.373e-05
1.424e-05
1.465e-05
1.496e-05
1.515e-05
1.524e-05
1.523e-05
1.514e-05
1.499e-05
1.477e-05
1.452e-05
1.422e-05
1.39e-05
1.355e-05
1.319e-05
1.281e-05
1.242e-05
1.203e-05
1.163e-05
1.123e-05
1.082e-05
1.042e-05
1.001e-05
9.601e-06
9.193e-06
8.785e-06
8.378e-06
7.971e-06
7.565e-06
7.159e-06
6.753e-06
6.348e-06
5.944e-06
5.54e-06
5.137e-06
4.734e-06
4.333e-06
3.933e-06
3.534e-06
3.137e-06
2.741e-06
2.348e-06
1.957e-06
1.57e-06
1.186e-06
8.059e-07
3.503e-07
0.0003212
0.0003222
0.0003232
0.000324
0.0003246
0.0003251
0.0003254
0.0003255
0.0003256
0.0003255
0.0003254
0.0003252
0.000325
0.0003247
0.0003244
0.0003241
0.0003238