/*--------------------------------*- C++ -*----------------------------------*\
  =========                 |
  \\      /  F ield         | OpenFOAM: The Open Source CFD Toolbox
   \\    /   O peration     | Website:  https://openfoam.org
    \\  /    A nd           | Version:  7
     \\/     M anipulation  |
\*---------------------------------------------------------------------------*/
FoamFile
{
    version     2.0;
    format      ascii;
    class       surfaceScalarField;
    location    "119.999473411421";
    object      phi;
}
// * * * * * * * * * * * * * * * * * * * * * * * * * * * * * * * * * * * * * //

dimensions      [0 3 -1 0 0 0 0];

internalField   nonuniform List<scalar> 
8032
(
6.857e-10
2.518e-10
4.804e-10
2.053e-10
3.48e-10
1.324e-10
2.643e-10
8.371e-11
2.101e-10
5.414e-11
1.738e-10
3.634e-11
1.483e-10
2.546e-11
1.297e-10
1.86e-11
1.157e-10
1.407e-11
1.047e-10
1.095e-11
9.601e-11
8.71e-12
8.897e-11
7.037e-12
8.322e-11
5.749e-12
7.849e-11
4.731e-12
7.459e-11
3.907e-12
7.136e-11
3.227e-12
6.87e-11
2.655e-12
6.654e-11
2.166e-12
6.48e-11
1.739e-12
6.344e-11
1.362e-12
6.241e-11
1.023e-12
6.17e-11
7.135e-13
6.127e-11
4.255e-13
6.112e-11
1.536e-13
6.123e-11
-1.072e-13
6.159e-11
-3.612e-13
6.22e-11
-6.12e-13
6.306e-11
-8.63e-13
6.418e-11
-1.117e-12
6.556e-11
-1.376e-12
6.72e-11
-1.643e-12
6.912e-11
-1.919e-12
7.132e-11
-2.206e-12
7.383e-11
-2.506e-12
7.665e-11
-2.818e-12
7.979e-11
-3.145e-12
8.328e-11
-3.485e-12
8.712e-11
-3.838e-12
9.132e-11
-4.203e-12
9.59e-11
-4.579e-12
1.009e-10
-4.962e-12
1.062e-10
-5.349e-12
1.119e-10
-5.735e-12
1.181e-10
-6.116e-12
1.245e-10
-6.484e-12
1.314e-10
-6.832e-12
1.385e-10
-7.152e-12
1.46e-10
-7.434e-12
1.536e-10
-7.669e-12
1.615e-10
-7.845e-12
1.694e-10
-7.953e-12
1.774e-10
-7.982e-12
1.853e-10
-7.922e-12
1.931e-10
-7.764e-12
2.006e-10
-7.501e-12
2.077e-10
-7.127e-12
2.144e-10
-6.64e-12
2.204e-10
-6.037e-12
2.257e-10
-5.323e-12
2.302e-10
-4.503e-12
2.338e-10
-3.589e-12
2.364e-10
-2.596e-12
2.38e-10
-1.545e-12
2.384e-10
-4.586e-13
2.378e-10
6.365e-13
2.361e-10
1.714e-12
2.333e-10
2.747e-12
2.296e-10
3.715e-12
2.25e-10
4.599e-12
2.196e-10
5.385e-12
2.136e-10
6.064e-12
2.069e-10
6.633e-12
1.998e-10
7.09e-12
1.924e-10
7.437e-12
1.847e-10
7.679e-12
1.769e-10
7.822e-12
1.69e-10
7.875e-12
1.612e-10
7.844e-12
1.534e-10
7.741e-12
1.459e-10
7.574e-12
1.385e-10
7.354e-12
1.314e-10
7.089e-12
1.246e-10
6.79e-12
1.182e-10
6.465e-12
1.12e-10
6.122e-12
1.063e-10
5.768e-12
1.009e-10
5.409e-12
9.581e-11
5.051e-12
9.111e-11
4.698e-12
8.676e-11
4.354e-12
8.274e-11
4.022e-12
7.903e-11
3.704e-12
7.563e-11
3.4e-12
7.252e-11
3.114e-12
6.968e-11
2.844e-12
6.708e-11
2.592e-12
6.473e-11
2.357e-12
6.259e-11
2.139e-12
6.065e-11
1.937e-12
5.89e-11
1.752e-12
5.732e-11
1.581e-12
5.589e-11
1.424e-12
5.461e-11
1.281e-12
5.346e-11
1.151e-12
5.243e-11
1.032e-12
5.151e-11
9.238e-13
5.068e-11
8.259e-13
4.994e-11
7.373e-13
4.929e-11
6.573e-13
4.87e-11
5.852e-13
4.818e-11
5.204e-13
4.772e-11
4.622e-13
4.731e-11
4.102e-13
4.694e-11
3.639e-13
4.662e-11
3.229e-13
4.633e-11
2.869e-13
4.608e-11
2.558e-13
4.585e-11
2.293e-13
4.564e-11
2.075e-13
4.545e-11
1.906e-13
4.527e-11
1.789e-13
4.51e-11
1.734e-13
4.492e-11
1.754e-13
4.474e-11
1.88e-13
4.452e-11
2.165e-13
4.425e-11
2.7e-13
4.389e-11
3.587e-13
4.661e-13
9.523e-10
2.37e-10
8.501e-10
3.075e-10
7.275e-10
2.55e-10
6.183e-10
1.929e-10
5.295e-10
1.429e-10
4.595e-10
1.064e-10
4.046e-10
8.037e-11
3.612e-10
6.193e-11
3.267e-10
4.866e-11
2.987e-10
3.888e-11
2.759e-10
3.15e-11
2.572e-10
2.58e-11
2.416e-10
2.129e-11
2.287e-10
1.766e-11
2.179e-10
1.467e-11
2.09e-10
1.218e-11
2.016e-10
1.006e-11
1.955e-10
8.228e-12
1.906e-10
6.627e-12
1.868e-10
5.202e-12
1.839e-10
3.916e-12
1.819e-10
2.736e-12
1.807e-10
1.638e-12
1.802e-10
5.985e-13
1.805e-10
-3.992e-13
1.815e-10
-1.371e-12
1.832e-10
-2.33e-12
1.857e-10
-3.288e-12
1.888e-10
-4.255e-12
1.927e-10
-5.241e-12
1.973e-10
-6.253e-12
2.027e-10
-7.299e-12
2.088e-10
-8.382e-12
2.158e-10
-9.509e-12
2.237e-10
-1.068e-11
2.325e-10
-1.19e-11
2.421e-10
-1.317e-11
2.528e-10
-1.448e-11
2.644e-10
-1.583e-11
2.77e-10
-1.721e-11
2.907e-10
-1.862e-11
3.054e-10
-2.003e-11
3.211e-10
-2.143e-11
3.378e-10
-2.281e-11
3.554e-10
-2.413e-11
3.74e-10
-2.538e-11
3.933e-10
-2.651e-11
4.134e-10
-2.75e-11
4.34e-10
-2.831e-11
4.551e-10
-2.89e-11
4.764e-10
-2.924e-11
4.977e-10
-2.929e-11
5.188e-10
-2.902e-11
5.394e-10
-2.839e-11
5.593e-10
-2.738e-11
5.781e-10
-2.598e-11
5.957e-10
-2.417e-11
6.116e-10
-2.195e-11
6.256e-10
-1.933e-11
6.374e-10
-1.635e-11
6.469e-10
-1.303e-11
6.537e-10
-9.433e-12
6.578e-10
-5.634e-12
6.591e-10
-1.712e-12
6.574e-10
2.241e-12
6.53e-10
6.133e-12
6.459e-10
9.876e-12
6.362e-10
1.339e-11
6.242e-10
1.661e-11
6.101e-10
1.949e-11
5.942e-10
2.2e-11
5.767e-10
2.411e-11
5.58e-10
2.583e-11
5.382e-10
2.715e-11
5.178e-10
2.81e-11
4.97e-10
2.868e-11
4.759e-10
2.894e-11
4.549e-10
2.889e-11
4.34e-10
2.857e-11
4.136e-10
2.802e-11
3.937e-10
2.726e-11
3.744e-10
2.634e-11
3.559e-10
2.529e-11
3.383e-10
2.413e-11
3.215e-10
2.29e-11
3.056e-10
2.162e-11
2.907e-10
2.032e-11
2.767e-10
1.902e-11
2.637e-10
1.773e-11
2.516e-10
1.647e-11
2.404e-10
1.524e-11
2.3e-10
1.407e-11
2.205e-10
1.294e-11
2.117e-10
1.187e-11
2.037e-10
1.087e-11
1.964e-10
9.924e-12
1.897e-10
9.042e-12
1.836e-10
8.222e-12
1.781e-10
7.461e-12
1.731e-10
6.758e-12
1.685e-10
6.111e-12
1.644e-10
5.517e-12
1.607e-10
4.972e-12
1.574e-10
4.474e-12
1.544e-10
4.02e-12
1.517e-10
3.607e-12
1.493e-10
3.231e-12
1.472e-10
2.891e-12
1.453e-10
2.583e-12
1.435e-10
2.305e-12
1.42e-10
2.055e-12
1.406e-10
1.829e-12
1.394e-10
1.628e-12
1.383e-10
1.448e-12
1.374e-10
1.289e-12
1.365e-10
1.149e-12
1.357e-10
1.027e-12
1.35e-10
9.227e-13
1.344e-10
8.364e-13
1.338e-10
7.682e-13
1.333e-10
7.191e-13
1.328e-10
6.91e-13
1.323e-10
6.87e-13
1.317e-10
7.118e-13
1.312e-10
7.725e-13
1.306e-10
8.772e-13
1.299e-10
1.025e-12
1.164e-12
9.779e-10
1.966e-10
9.637e-10
3.217e-10
9.014e-10
3.174e-10
8.214e-10
2.729e-10
7.413e-10
2.231e-10
6.685e-10
1.791e-10
6.054e-10
1.435e-10
5.517e-10
1.155e-10
5.066e-10
9.38e-11
4.687e-10
7.681e-11
4.368e-10
6.339e-11
4.099e-10
5.265e-11
3.873e-10
4.393e-11
3.682e-10
3.674e-11
3.522e-10
3.073e-11
3.387e-10
2.564e-11
3.275e-10
2.127e-11
3.182e-10
1.746e-11
3.108e-10
1.41e-11
3.049e-10
1.109e-11
3.004e-10
8.356e-12
2.973e-10
5.839e-12
2.955e-10
3.487e-12
2.948e-10
1.256e-12
2.953e-10
-8.9e-13
2.969e-10
-2.982e-12
2.997e-10
-5.048e-12
3.035e-10
-7.111e-12
3.084e-10
-9.194e-12
3.145e-10
-1.131e-11
3.217e-10
-1.349e-11
3.302e-10
-1.573e-11
3.398e-10
-1.805e-11
3.508e-10
-2.046e-11
3.63e-10
-2.296e-11
3.767e-10
-2.555e-11
3.918e-10
-2.824e-11
4.083e-10
-3.102e-11
4.263e-10
-3.387e-11
4.459e-10
-3.678e-11
4.67e-10
-3.973e-11
4.897e-10
-4.269e-11
5.139e-10
-4.563e-11
5.396e-10
-4.849e-11
5.667e-10
-5.124e-11
5.951e-10
-5.381e-11
6.248e-10
-5.614e-11
6.554e-10
-5.816e-11
6.869e-10
-5.98e-11
7.19e-10
-6.098e-11
7.514e-10
-6.162e-11
7.837e-10
-6.166e-11
8.157e-10
-6.102e-11
8.47e-10
-5.964e-11
8.771e-10
-5.747e-11
9.056e-10
-5.448e-11
9.32e-10
-5.064e-11
9.561e-10
-4.597e-11
9.772e-10
-4.047e-11
9.951e-10
-3.422e-11
1.009e-09
-2.728e-11
1.02e-09
-1.977e-11
1.026e-09
-1.185e-11
1.028e-09
-3.667e-12
1.025e-09
4.578e-12
1.019e-09
1.27e-11
1.008e-09
2.052e-11
9.938e-10
2.788e-11
9.758e-10
3.463e-11
9.546e-10
4.069e-11
9.306e-10
4.598e-11
9.042e-10
5.046e-11
8.759e-10
5.412e-11
8.461e-10
5.697e-11
8.152e-10
5.903e-11
7.835e-10
6.034e-11
7.515e-10
6.096e-11
7.195e-10
6.095e-11
6.877e-10
6.036e-11
6.564e-10
5.928e-11
6.259e-10
5.776e-11
5.964e-10
5.589e-11
5.679e-10
5.373e-11
5.407e-10
5.135e-11
5.148e-10
4.881e-11
4.903e-10
4.615e-11
4.671e-10
4.344e-11
4.454e-10
4.071e-11
4.252e-10
3.801e-11
4.063e-10
3.535e-11
3.888e-10
3.277e-11
3.725e-10
3.028e-11
3.576e-10
2.79e-11
3.438e-10
2.563e-11
3.312e-10
2.349e-11
3.196e-10
2.148e-11
3.091e-10
1.96e-11
2.995e-10
1.785e-11
2.907e-10
1.622e-11
2.828e-10
1.471e-11
2.755e-10
1.332e-11
2.69e-10
1.204e-11
2.631e-10
1.087e-11
2.578e-10
9.793e-12
2.53e-10
8.812e-12
2.487e-10
7.918e-12
2.448e-10
7.104e-12
2.414e-10
6.366e-12
2.382e-10
5.697e-12
2.355e-10
5.092e-12
2.33e-10
4.546e-12
2.307e-10
4.055e-12
2.288e-10
3.614e-12
2.27e-10
3.221e-12
2.254e-10
2.871e-12
2.24e-10
2.563e-12
2.227e-10
2.294e-12
2.216e-10
2.064e-12
2.205e-10
1.871e-12
2.196e-10
1.715e-12
2.187e-10
1.599e-12
2.179e-10
1.523e-12
2.171e-10
1.492e-12
2.163e-10
1.509e-12
2.155e-10
1.579e-12
2.146e-10
1.701e-12
2.138e-10
1.859e-12
1.988e-12
9.752e-10
1.589e-10
9.931e-10
3.038e-10
9.729e-10
3.375e-10
9.272e-10
3.186e-10
8.695e-10
2.807e-10
8.092e-10
2.394e-10
7.515e-10
2.013e-10
6.987e-10
1.683e-10
6.517e-10
1.408e-10
6.104e-10
1.18e-10
5.746e-10
9.922e-11
5.436e-10
8.362e-11
5.17e-10
7.057e-11
4.942e-10
5.957e-11
4.747e-10
5.021e-11
4.582e-10
4.214e-11
4.443e-10
3.512e-11
4.329e-10
2.894e-11
4.235e-10
2.343e-11
4.162e-10
1.845e-11
4.106e-10
1.391e-11
4.068e-10
9.7e-12
4.045e-10
5.747e-12
4.038e-10
1.986e-12
4.045e-10
-1.642e-12
4.067e-10
-5.186e-12
4.104e-10
-8.689e-12
4.154e-10
-1.219e-11
4.22e-10
-1.573e-11
4.3e-10
-1.932e-11
4.395e-10
-2.301e-11
4.506e-10
-2.68e-11
4.632e-10
-3.073e-11
4.776e-10
-3.479e-11
4.936e-10
-3.901e-11
5.115e-10
-4.337e-11
5.311e-10
-4.789e-11
5.526e-10
-5.255e-11
5.761e-10
-5.732e-11
6.015e-10
-6.219e-11
6.289e-10
-6.711e-11
6.582e-10
-7.203e-11
6.895e-10
-7.69e-11
7.226e-10
-8.164e-11
7.576e-10
-8.618e-11
7.942e-10
-9.041e-11
8.322e-10
-9.422e-11
8.716e-10
-9.752e-11
9.12e-10
-1.002e-10
9.53e-10
-1.02e-10
9.944e-10
-1.03e-10
1.036e-09
-1.03e-10
1.077e-09
-1.019e-10
1.116e-09
-9.948e-11
1.155e-09
-9.581e-11
1.191e-09
-9.077e-11
1.225e-09
-8.434e-11
1.255e-09
-7.653e-11
1.282e-09
-6.738e-11
1.305e-09
-5.696e-11
1.323e-09
-4.543e-11
1.336e-09
-3.296e-11
1.344e-09
-1.98e-11
1.347e-09
-6.226e-12
1.344e-09
7.464e-12
1.336e-09
2.096e-11
1.322e-09
3.395e-11
1.304e-09
4.619e-11
1.281e-09
5.745e-11
1.254e-09
6.756e-11
1.224e-09
7.641e-11
1.19e-09
8.393e-11
1.154e-09
9.01e-11
1.116e-09
9.493e-11
1.077e-09
9.846e-11
1.037e-09
1.008e-10
9.957e-10
1.019e-10
9.546e-10
1.02e-10
9.139e-10
1.011e-10
8.737e-10
9.942e-11
8.345e-10
9.699e-11
7.965e-10
9.396e-11
7.598e-10
9.043e-11
7.246e-10
8.653e-11
6.91e-10
8.234e-11
6.592e-10
7.796e-11
6.292e-10
7.346e-11
6.01e-10
6.894e-11
5.746e-10
6.443e-11
5.499e-10
6e-11
5.27e-10
5.568e-11
5.058e-10
5.152e-11
4.861e-10
4.752e-11
4.681e-10
4.372e-11
4.514e-10
4.012e-11
4.362e-10
3.673e-11
4.222e-10
3.355e-11
4.095e-10
3.058e-11
3.979e-10
2.783e-11
3.873e-10
2.527e-11
3.777e-10
2.291e-11
3.691e-10
2.073e-11
3.612e-10
1.874e-11
3.541e-10
1.69e-11
3.477e-10
1.523e-11
3.419e-10
1.37e-11
3.367e-10
1.231e-11
3.32e-10
1.104e-11
3.278e-10
9.896e-12
3.24e-10
8.857e-12
3.207e-10
7.918e-12
3.176e-10
7.072e-12
3.149e-10
6.313e-12
3.125e-10
5.633e-12
3.104e-10
5.028e-12
3.084e-10
4.494e-12
3.067e-10
4.026e-12
3.051e-10
3.622e-12
3.037e-10
3.281e-12
3.025e-10
3.001e-12
3.013e-10
2.784e-12
3.002e-10
2.63e-12
2.991e-10
2.542e-12
2.981e-10
2.521e-12
2.971e-10
2.567e-12
2.961e-10
2.672e-12
2.952e-10
2.811e-12
2.917e-12
9.668e-10
1.296e-10
9.945e-10
2.761e-10
9.981e-10
3.339e-10
9.785e-10
3.382e-10
9.433e-10
3.16e-10
8.997e-10
2.829e-10
8.534e-10
2.476e-10
8.076e-10
2.141e-10
7.645e-10
1.84e-10
7.249e-10
1.576e-10
6.893e-10
1.348e-10
6.576e-10
1.153e-10
6.298e-10
9.845e-11
6.054e-10
8.39e-11
5.844e-10
7.126e-11
5.663e-10
6.019e-11
5.51e-10
5.041e-11
5.383e-10
4.169e-11
5.279e-10
3.384e-11
5.196e-10
2.669e-11
5.135e-10
2.011e-11
5.092e-10
1.397e-11
5.068e-10
8.171e-12
5.061e-10
2.632e-12
5.072e-10
-2.729e-12
5.1e-10
-7.979e-12
5.145e-10
-1.318e-11
5.207e-10
-1.838e-11
5.286e-10
-2.364e-11
5.382e-10
-2.898e-11
5.497e-10
-3.446e-11
5.63e-10
-4.01e-11
5.782e-10
-4.592e-11
5.953e-10
-5.194e-11
6.145e-10
-5.818e-11
6.358e-10
-6.464e-11
6.592e-10
-7.131e-11
6.848e-10
-7.817e-11
7.127e-10
-8.519e-11
7.428e-10
-9.234e-11
7.753e-10
-9.956e-11
8.1e-10
-1.068e-10
8.47e-10
-1.139e-10
8.862e-10
-1.208e-10
9.274e-10
-1.274e-10
9.705e-10
-1.335e-10
1.015e-09
-1.391e-10
1.062e-09
-1.438e-10
1.109e-09
-1.476e-10
1.157e-09
-1.503e-10
1.206e-09
-1.516e-10
1.254e-09
-1.515e-10
1.302e-09
-1.497e-10
1.349e-09
-1.461e-10
1.394e-09
-1.407e-10
1.436e-09
-1.332e-10
1.476e-09
-1.238e-10
1.511e-09
-1.123e-10
1.543e-09
-9.887e-11
1.57e-09
-8.361e-11
1.591e-09
-6.672e-11
1.606e-09
-4.846e-11
1.616e-09
-2.919e-11
1.619e-09
-9.299e-12
1.616e-09
1.076e-11
1.606e-09
3.053e-11
1.59e-09
4.958e-11
1.569e-09
6.752e-11
1.542e-09
8.404e-11
1.511e-09
9.889e-11
1.476e-09
1.119e-10
1.436e-09
1.23e-10
1.394e-09
1.321e-10
1.35e-09
1.393e-10
1.304e-09
1.446e-10
1.257e-09
1.481e-10
1.209e-09
1.499e-10
1.16e-09
1.502e-10
1.112e-09
1.49e-10
1.065e-09
1.467e-10
1.019e-09
1.432e-10
9.741e-10
1.389e-10
9.307e-10
1.338e-10
8.891e-10
1.281e-10
8.494e-10
1.22e-10
8.117e-10
1.157e-10
7.76e-10
1.091e-10
7.425e-10
1.025e-10
7.11e-10
9.59e-11
6.816e-10
8.94e-11
6.542e-10
8.306e-11
6.288e-10
7.692e-11
6.053e-10
7.104e-11
5.836e-10
6.542e-11
5.636e-10
6.01e-11
5.453e-10
5.508e-11
5.285e-10
5.037e-11
5.131e-10
4.596e-11
4.99e-10
4.186e-11
4.862e-10
3.806e-11
4.746e-10
3.454e-11
4.641e-10
3.129e-11
4.545e-10
2.831e-11
4.458e-10
2.557e-11
4.38e-10
2.306e-11
4.309e-10
2.077e-11
4.245e-10
1.868e-11
4.188e-10
1.678e-11
4.136e-10
1.505e-11
4.09e-10
1.349e-11
4.049e-10
1.207e-11
4.011e-10
1.08e-11
3.978e-10
9.648e-12
3.948e-10
8.619e-12
3.921e-10
7.701e-12
3.897e-10
6.888e-12
3.876e-10
6.174e-12
3.857e-10
5.554e-12
3.839e-10
5.025e-12
3.823e-10
4.585e-12
3.809e-10
4.233e-12
3.796e-10
3.968e-12
3.783e-10
3.792e-12
3.771e-10
3.701e-12
3.76e-10
3.692e-12
3.749e-10
3.752e-12
3.739e-10
3.851e-12
3.93e-12
9.592e-10
1.079e-10
9.877e-10
2.476e-10
1.003e-09
3.185e-10
1.001e-09
3.405e-10
9.835e-10
3.332e-10
9.559e-10
3.106e-10
9.223e-10
2.812e-10
8.862e-10
2.502e-10
8.5e-10
2.202e-10
8.152e-10
1.924e-10
7.826e-10
1.674e-10
7.528e-10
1.451e-10
7.259e-10
1.253e-10
7.02e-10
1.078e-10
6.81e-10
9.229e-11
6.627e-10
7.844e-11
6.471e-10
6.603e-11
6.34e-10
5.481e-11
6.232e-10
4.46e-11
6.147e-10
3.52e-11
6.083e-10
2.648e-11
6.04e-10
1.829e-11
6.017e-10
1.051e-11
6.013e-10
3.037e-12
6.027e-10
-4.222e-12
6.061e-10
-1.135e-11
6.114e-10
-1.843e-11
6.185e-10
-2.553e-11
6.276e-10
-3.27e-11
6.386e-10
-4e-11
6.516e-10
-4.748e-11
6.667e-10
-5.517e-11
6.839e-10
-6.311e-11
7.033e-10
-7.133e-11
7.249e-10
-7.982e-11
7.489e-10
-8.861e-11
7.752e-10
-9.767e-11
8.04e-10
-1.07e-10
8.354e-10
-1.165e-10
8.692e-10
-1.262e-10
9.056e-10
-1.359e-10
9.445e-10
-1.457e-10
9.859e-10
-1.553e-10
1.03e-09
-1.646e-10
1.076e-09
-1.735e-10
1.124e-09
-1.817e-10
1.174e-09
-1.891e-10
1.225e-09
-1.954e-10
1.278e-09
-2.005e-10
1.332e-09
-2.04e-10
1.386e-09
-2.057e-10
1.44e-09
-2.054e-10
1.493e-09
-2.029e-10
1.545e-09
-1.98e-10
1.595e-09
-1.906e-10
1.642e-09
-1.805e-10
1.686e-09
-1.676e-10
1.726e-09
-1.521e-10
1.761e-09
-1.339e-10
1.791e-09
-1.133e-10
1.814e-09
-9.047e-11
1.832e-09
-6.578e-11
1.842e-09
-3.97e-11
1.846e-09
-1.279e-11
1.842e-09
1.435e-11
1.831e-09
4.111e-11
1.814e-09
6.689e-11
1.791e-09
9.118e-11
1.761e-09
1.135e-10
1.726e-09
1.337e-10
1.687e-09
1.513e-10
1.643e-09
1.664e-10
1.597e-09
1.788e-10
1.548e-09
1.886e-10
1.496e-09
1.959e-10
1.444e-09
2.007e-10
1.39e-09
2.033e-10
1.337e-09
2.038e-10
1.283e-09
2.024e-10
1.23e-09
1.993e-10
1.179e-09
1.948e-10
1.129e-09
1.89e-10
1.08e-09
1.823e-10
1.034e-09
1.747e-10
9.892e-10
1.665e-10
9.469e-10
1.58e-10
9.068e-10
1.492e-10
8.691e-10
1.402e-10
8.337e-10
1.313e-10
8.005e-10
1.225e-10
7.697e-10
1.139e-10
7.409e-10
1.056e-10
7.143e-10
9.764e-11
6.898e-10
9e-11
6.671e-10
8.276e-11
6.463e-10
7.592e-11
6.271e-10
6.949e-11
6.096e-10
6.348e-11
5.936e-10
5.787e-11
5.79e-10
5.266e-11
5.657e-10
4.784e-11
5.536e-10
4.339e-11
5.426e-10
3.929e-11
5.327e-10
3.552e-11
5.237e-10
3.207e-11
5.155e-10
2.891e-11
5.082e-10
2.603e-11
5.015e-10
2.341e-11
4.956e-10
2.102e-11
4.902e-10
1.885e-11
4.854e-10
1.689e-11
4.811e-10
1.512e-11
4.772e-10
1.353e-11
4.737e-10
1.21e-11
4.706e-10
1.082e-11
4.678e-10
9.68e-12
4.653e-10
8.679e-12
4.63e-10
7.804e-12
4.61e-10
7.053e-12
4.592e-10
6.419e-12
4.575e-10
5.901e-12
4.56e-10
5.495e-12
4.546e-10
5.2e-12
4.533e-10
5.011e-12
4.52e-10
4.921e-12
4.509e-10
4.913e-12
4.498e-10
4.957e-12
5.005e-12
9.537e-10
9.174e-11
9.797e-10
2.216e-10
1e-09
2.982e-10
1.008e-09
3.323e-10
1.004e-09
3.375e-10
9.894e-10
3.251e-10
9.678e-10
3.029e-10
9.417e-10
2.762e-10
9.136e-10
2.483e-10
8.85e-10
2.21e-10
8.572e-10
1.952e-10
8.309e-10
1.714e-10
8.066e-10
1.497e-10
7.845e-10
1.299e-10
7.647e-10
1.12e-10
7.474e-10
9.582e-11
7.324e-10
8.104e-11
7.197e-10
6.751e-11
7.092e-10
5.504e-11
7.009e-10
4.346e-11
6.948e-10
3.261e-11
6.908e-10
2.235e-11
6.887e-10
1.254e-11
6.887e-10
3.066e-12
6.907e-10
-6.177e-12
6.946e-10
-1.529e-11
7.005e-10
-2.436e-11
7.084e-10
-3.346e-11
7.184e-10
-4.268e-11
7.305e-10
-5.207e-11
7.447e-10
-6.169e-11
7.611e-10
-7.158e-11
7.798e-10
-8.18e-11
8.008e-10
-9.236e-11
8.243e-10
-1.033e-10
8.502e-10
-1.145e-10
8.787e-10
-1.262e-10
9.098e-10
-1.381e-10
9.436e-10
-1.503e-10
9.801e-10
-1.627e-10
1.019e-09
-1.751e-10
1.061e-09
-1.876e-10
1.106e-09
-1.998e-10
1.153e-09
-2.117e-10
1.202e-09
-2.229e-10
1.254e-09
-2.334e-10
1.308e-09
-2.428e-10
1.363e-09
-2.508e-10
1.42e-09
-2.572e-10
1.477e-09
-2.615e-10
1.535e-09
-2.636e-10
1.593e-09
-2.632e-10
1.65e-09
-2.599e-10
1.706e-09
-2.536e-10
1.759e-09
-2.44e-10
1.81e-09
-2.311e-10
1.857e-09
-2.147e-10
1.9e-09
-1.948e-10
1.937e-09
-1.716e-10
1.969e-09
-1.452e-10
1.995e-09
-1.16e-10
2.014e-09
-8.446e-11
2.025e-09
-5.108e-11
2.029e-09
-1.66e-11
2.025e-09
1.817e-11
2.014e-09
5.244e-11
1.995e-09
8.546e-11
1.97e-09
1.165e-10
1.938e-09
1.452e-10
1.901e-09
1.709e-10
1.859e-09
1.935e-10
1.812e-09
2.128e-10
1.762e-09
2.288e-10
1.709e-09
2.414e-10
1.655e-09
2.508e-10
1.598e-09
2.571e-10
1.541e-09
2.606e-10
1.483e-09
2.613e-10
1.426e-09
2.597e-10
1.37e-09
2.559e-10
1.314e-09
2.502e-10
1.26e-09
2.43e-10
1.208e-09
2.344e-10
1.158e-09
2.248e-10
1.11e-09
2.145e-10
1.064e-09
2.036e-10
1.021e-09
1.924e-10
9.804e-10
1.81e-10
9.421e-10
1.696e-10
9.063e-10
1.584e-10
8.728e-10
1.474e-10
8.417e-10
1.368e-10
8.128e-10
1.265e-10
7.861e-10
1.167e-10
7.614e-10
1.074e-10
7.387e-10
9.863e-11
7.178e-10
9.036e-11
6.987e-10
8.261e-11
6.812e-10
7.538e-11
6.652e-10
6.866e-11
6.506e-10
6.242e-11
6.373e-10
5.667e-11
6.253e-10
5.136e-11
6.143e-10
4.648e-11
6.044e-10
4.2e-11
5.954e-10
3.79e-11
5.873e-10
3.415e-11
5.8e-10
3.073e-11
5.734e-10
2.763e-11
5.674e-10
2.48e-11
5.621e-10
2.224e-11
5.573e-10
1.993e-11
5.529e-10
1.784e-11
5.491e-10
1.597e-11
5.456e-10
1.429e-11
5.425e-10
1.279e-11
5.397e-10
1.147e-11
5.372e-10
1.031e-11
5.349e-10
9.307e-12
5.329e-10
8.451e-12
5.311e-10
7.739e-12
5.294e-10
7.166e-12
5.279e-10
6.727e-12
5.264e-10
6.416e-12
5.251e-10
6.222e-12
5.239e-10
6.128e-12
5.228e-10
6.108e-12
6.121e-12
9.498e-10
7.94e-11
9.727e-10
1.987e-10
9.944e-10
2.765e-10
1.008e-09
3.182e-10
1.013e-09
3.33e-10
1.009e-09
3.295e-10
9.969e-10
3.146e-10
9.801e-10
2.931e-10
9.6e-10
2.684e-10
9.382e-10
2.428e-10
9.159e-10
2.174e-10
8.941e-10
1.932e-10
8.734e-10
1.704e-10
8.541e-10
1.492e-10
8.365e-10
1.296e-10
8.208e-10
1.115e-10
8.071e-10
9.472e-11
7.955e-10
7.916e-11
7.859e-10
6.465e-11
7.783e-10
5.103e-11
7.728e-10
3.816e-11
7.692e-10
2.588e-11
7.677e-10
1.408e-11
7.682e-10
2.612e-12
7.706e-10
-8.626e-12
7.751e-10
-1.974e-11
7.816e-10
-3.084e-11
7.901e-10
-4.201e-11
8.008e-10
-5.333e-11
8.136e-10
-6.488e-11
8.286e-10
-7.671e-11
8.459e-10
-8.889e-11
8.656e-10
-1.015e-10
8.877e-10
-1.145e-10
9.123e-10
-1.279e-10
9.394e-10
-1.417e-10
9.693e-10
-1.56e-10
1.002e-09
-1.707e-10
1.037e-09
-1.856e-10
1.075e-09
-2.008e-10
1.116e-09
-2.161e-10
1.16e-09
-2.313e-10
1.206e-09
-2.463e-10
1.255e-09
-2.608e-10
1.307e-09
-2.745e-10
1.361e-09
-2.873e-10
1.417e-09
-2.987e-10
1.475e-09
-3.085e-10
1.534e-09
-3.162e-10
1.594e-09
-3.215e-10
1.654e-09
-3.24e-10
1.714e-09
-3.234e-10
1.774e-09
-3.193e-10
1.831e-09
-3.115e-10
1.887e-09
-2.997e-10
1.94e-09
-2.838e-10
1.989e-09
-2.637e-10
2.033e-09
-2.394e-10
2.073e-09
-2.11e-10
2.106e-09
-1.787e-10
2.133e-09
-1.428e-10
2.153e-09
-1.041e-10
2.165e-09
-6.303e-11
2.169e-09
-2.063e-11
2.165e-09
2.214e-11
2.153e-09
6.429e-11
2.133e-09
1.049e-10
2.107e-09
1.43e-10
2.074e-09
1.781e-10
2.035e-09
2.097e-10
1.991e-09
2.374e-10
1.943e-09
2.611e-10
1.891e-09
2.807e-10
1.836e-09
2.963e-10
1.779e-09
3.079e-10
1.72e-09
3.158e-10
1.661e-09
3.201e-10
1.601e-09
3.212e-10
1.541e-09
3.193e-10
1.483e-09
3.148e-10
1.425e-09
3.08e-10
1.369e-09
2.992e-10
1.314e-09
2.888e-10
1.262e-09
2.772e-10
1.212e-09
2.646e-10
1.164e-09
2.513e-10
1.119e-09
2.376e-10
1.076e-09
2.237e-10
1.036e-09
2.097e-10
9.984e-10
1.96e-10
9.633e-10
1.825e-10
9.306e-10
1.695e-10
9.003e-10
1.569e-10
8.721e-10
1.448e-10
8.462e-10
1.334e-10
8.222e-10
1.226e-10
8.002e-10
1.124e-10
7.8e-10
1.028e-10
7.615e-10
9.389e-11
7.446e-10
8.559e-11
7.291e-10
7.788e-11
7.15e-10
7.075e-11
7.022e-10
6.418e-11
6.906e-10
5.812e-11
6.8e-10
5.257e-11
6.704e-10
4.747e-11
6.618e-10
4.282e-11
6.539e-10
3.857e-11
6.469e-10
3.47e-11
6.405e-10
3.118e-11
6.347e-10
2.798e-11
6.296e-10
2.509e-11
6.249e-10
2.248e-11
6.208e-10
2.013e-11
6.17e-10
1.803e-11
6.137e-10
1.614e-11
6.107e-10
1.448e-11
6.08e-10
1.301e-11
6.056e-10
1.173e-11
6.034e-10
1.063e-11
6.014e-10
9.7e-12
5.997e-10
8.938e-12
5.981e-10
8.334e-12
5.966e-10
7.881e-12
5.952e-10
7.567e-12
5.94e-10
7.375e-12
5.928e-10
7.283e-12
7.258e-12
9.472e-10
6.967e-11
9.671e-10
1.788e-10
9.884e-10
2.551e-10
1.006e-09
3.011e-10
1.016e-09
3.228e-10
1.019e-09
3.267e-10
1.015e-09
3.183e-10
1.006e-09
3.02e-10
9.933e-10
2.811e-10
9.781e-10
2.579e-10
9.616e-10
2.34e-10
9.446e-10
2.102e-10
9.279e-10
1.871e-10
9.12e-10
1.652e-10
8.972e-10
1.444e-10
8.838e-10
1.249e-10
8.72e-10
1.065e-10
8.618e-10
8.929e-11
8.535e-10
7.301e-11
8.469e-10
5.757e-11
8.422e-10
4.285e-11
8.394e-10
2.87e-11
8.385e-10
1.499e-11
8.395e-10
1.609e-12
8.425e-10
-1.157e-11
8.474e-10
-2.466e-11
8.543e-10
-3.777e-11
8.633e-10
-5.098e-11
8.744e-10
-6.441e-11
8.876e-10
-7.811e-11
9.031e-10
-9.218e-11
9.208e-10
-1.067e-10
9.41e-10
-1.216e-10
9.635e-10
-1.37e-10
9.887e-10
-1.53e-10
1.016e-09
-1.695e-10
1.047e-09
-1.864e-10
1.08e-09
-2.038e-10
1.116e-09
-2.216e-10
1.155e-09
-2.396e-10
1.196e-09
-2.577e-10
1.241e-09
-2.757e-10
1.288e-09
-2.935e-10
1.338e-09
-3.106e-10
1.39e-09
-3.27e-10
1.445e-09
-3.421e-10
1.502e-09
-3.556e-10
1.56e-09
-3.671e-10
1.62e-09
-3.762e-10
1.681e-09
-3.824e-10
1.743e-09
-3.853e-10
1.804e-09
-3.845e-10
1.864e-09
-3.795e-10
1.923e-09
-3.702e-10
1.979e-09
-3.562e-10
2.033e-09
-3.374e-10
2.082e-09
-3.135e-10
2.128e-09
-2.847e-10
2.168e-09
-2.51e-10
2.202e-09
-2.127e-10
2.229e-09
-1.702e-10
2.249e-09
-1.241e-10
2.261e-09
-7.527e-11
2.266e-09
-2.476e-11
2.262e-09
2.62e-11
2.249e-09
7.64e-11
2.23e-09
1.247e-10
2.203e-09
1.7e-10
2.169e-09
2.117e-10
2.13e-09
2.491e-10
2.085e-09
2.819e-10
2.036e-09
3.1e-10
1.984e-09
3.333e-10
1.928e-09
3.518e-10
1.87e-09
3.657e-10
1.811e-09
3.752e-10
1.75e-09
3.805e-10
1.69e-09
3.819e-10
1.629e-09
3.798e-10
1.569e-09
3.746e-10
1.511e-09
3.666e-10
1.454e-09
3.563e-10
1.398e-09
3.441e-10
1.345e-09
3.304e-10
1.294e-09
3.155e-10
1.246e-09
2.998e-10
1.2e-09
2.836e-10
1.156e-09
2.671e-10
1.115e-09
2.506e-10
1.077e-09
2.343e-10
1.041e-09
2.184e-10
1.008e-09
2.028e-10
9.766e-10
1.879e-10
9.478e-10
1.736e-10
9.212e-10
1.6e-10
8.967e-10
1.471e-10
8.741e-10
1.35e-10
8.534e-10
1.236e-10
8.344e-10
1.129e-10
8.169e-10
1.03e-10
8.01e-10
9.38e-11
7.865e-10
8.527e-11
7.733e-10
7.741e-11
7.612e-10
7.016e-11
7.503e-10
6.35e-11
7.404e-10
5.739e-11
7.314e-10
5.18e-11
7.233e-10
4.669e-11
7.159e-10
4.204e-11
7.093e-10
3.78e-11
7.033e-10
3.396e-11
6.98e-10
3.047e-11
6.931e-10
2.732e-11
6.888e-10
2.448e-11
6.849e-10
2.193e-11
6.814e-10
1.965e-11
6.782e-10
1.761e-11
6.754e-10
1.582e-11
6.729e-10
1.425e-11
6.706e-10
1.289e-11
6.686e-10
1.173e-11
6.668e-10
1.076e-11
6.651e-10
9.982e-12
6.636e-10
9.373e-12
6.623e-10
8.927e-12
6.61e-10
8.629e-12
6.598e-10
8.459e-12
8.394e-12
9.454e-10
6.176e-11
9.627e-10
1.615e-10
9.83e-10
2.349e-10
1.001e-09
2.827e-10
1.015e-09
3.09e-10
1.023e-09
3.186e-10
1.026e-09
3.158e-10
1.023e-09
3.044e-10
1.017e-09
2.875e-10
1.008e-09
2.671e-10
9.966e-10
2.45e-10
9.845e-10
2.223e-10
9.72e-10
1.996e-10
9.597e-10
1.775e-10
9.48e-10
1.561e-10
9.372e-10
1.357e-10
9.275e-10
1.162e-10
9.192e-10
9.76e-11
9.124e-10
7.986e-11
9.071e-10
6.286e-11
9.034e-10
4.65e-11
9.015e-10
3.065e-11
9.013e-10
1.52e-11
9.028e-10
3.214e-14
9.062e-10
-1.498e-11
9.115e-10
-2.995e-11
9.187e-10
-4.498e-11
9.279e-10
-6.018e-11
9.392e-10
-7.565e-11
9.525e-10
-9.146e-11
9.68e-10
-1.077e-10
9.858e-10
-1.244e-10
1.006e-09
-1.417e-10
1.028e-09
-1.596e-10
1.053e-09
-1.78e-10
1.081e-09
-1.97e-10
1.111e-09
-2.166e-10
1.144e-09
-2.367e-10
1.18e-09
-2.573e-10
1.218e-09
-2.781e-10
1.26e-09
-2.99e-10
1.304e-09
-3.198e-10
1.351e-09
-3.403e-10
1.4e-09
-3.601e-10
1.452e-09
-3.789e-10
1.506e-09
-3.964e-10
1.563e-09
-4.119e-10
1.621e-09
-4.252e-10
1.68e-09
-4.356e-10
1.741e-09
-4.427e-10
1.801e-09
-4.46e-10
1.862e-09
-4.449e-10
1.921e-09
-4.392e-10
1.979e-09
-4.283e-10
2.035e-09
-4.121e-10
2.088e-09
-3.903e-10
2.137e-09
-3.628e-10
2.182e-09
-3.295e-10
2.222e-09
-2.907e-10
2.256e-09
-2.465e-10
2.283e-09
-1.974e-10
2.303e-09
-1.441e-10
2.315e-09
-8.745e-11
2.319e-09
-2.885e-11
2.315e-09
3.028e-11
2.303e-09
8.85e-11
2.283e-09
1.444e-10
2.256e-09
1.968e-10
2.223e-09
2.449e-10
2.184e-09
2.88e-10
2.14e-09
3.259e-10
2.092e-09
3.583e-10
2.04e-09
3.852e-10
1.985e-09
4.066e-10
1.928e-09
4.228e-10
1.87e-09
4.339e-10
1.81e-09
4.402e-10
1.75e-09
4.42e-10
1.69e-09
4.397e-10
1.631e-09
4.339e-10
1.572e-09
4.248e-10
1.516e-09
4.13e-10
1.461e-09
3.99e-10
1.408e-09
3.832e-10
1.357e-09
3.661e-10
1.309e-09
3.48e-10
1.264e-09
3.293e-10
1.22e-09
3.103e-10
1.18e-09
2.913e-10
1.142e-09
2.725e-10
1.106e-09
2.54e-10
1.073e-09
2.361e-10
1.042e-09
2.188e-10
1.013e-09
2.023e-10
9.865e-10
1.865e-10
9.62e-10
1.716e-10
9.394e-10
1.575e-10
9.187e-10
1.443e-10
8.996e-10
1.32e-10
8.822e-10
1.205e-10
8.662e-10
1.098e-10
8.516e-10
9.986e-11
8.383e-10
9.07e-11
8.262e-10
8.227e-11
8.152e-10
7.451e-11
8.052e-10
6.739e-11
7.962e-10
6.086e-11
7.879e-10
5.49e-11
7.805e-10
4.946e-11
7.738e-10
4.451e-11
7.678e-10
4.001e-11
7.623e-10
3.592e-11
7.574e-10
3.223e-11
7.53e-10
2.889e-11
7.49e-10
2.589e-11
7.455e-10
2.32e-11
7.423e-10
2.08e-11
7.394e-10
1.868e-11
7.369e-10
1.681e-11
7.346e-10
1.518e-11
7.325e-10
1.378e-11
7.307e-10
1.26e-11
7.29e-10
1.163e-11
7.275e-10
1.086e-11
7.262e-10
1.027e-11
7.25e-10
9.863e-12
7.238e-10
9.613e-12
9.508e-12
9.441e-10
5.515e-11
9.593e-10
1.463e-10
9.783e-10
2.159e-10
9.97e-10
2.64e-10
1.013e-09
2.932e-10
1.024e-09
3.07e-10
1.031e-09
3.088e-10
1.034e-09
3.017e-10
1.033e-09
2.885e-10
1.029e-09
2.711e-10
1.023e-09
2.512e-10
1.016e-09
2.299e-10
1.007e-09
2.08e-10
9.985e-10
1.862e-10
9.899e-10
1.647e-10
9.818e-10
1.438e-10
9.745e-10
1.235e-10
9.682e-10
1.039e-10
9.63e-10
8.504e-11
9.591e-10
6.676e-11
9.566e-10
4.901e-11
9.556e-10
3.169e-11
9.561e-10
1.469e-11
9.582e-10
-2.098e-12
9.62e-10
-1.879e-11
9.676e-10
-3.55e-11
9.749e-10
-5.233e-11
9.841e-10
-6.939e-11
9.953e-10
-8.678e-11
1.008e-09
-1.046e-10
1.024e-09
-1.229e-10
1.041e-09
-1.418e-10
1.061e-09
-1.613e-10
1.082e-09
-1.815e-10
1.107e-09
-2.023e-10
1.134e-09
-2.238e-10
1.163e-09
-2.46e-10
1.195e-09
-2.687e-10
1.229e-09
-2.918e-10
1.267e-09
-3.153e-10
1.307e-09
-3.39e-10
1.349e-09
-3.625e-10
1.395e-09
-3.856e-10
1.443e-09
-4.08e-10
1.493e-09
-4.293e-10
1.546e-09
-4.489e-10
1.6e-09
-4.665e-10
1.656e-09
-4.814e-10
1.714e-09
-4.931e-10
1.772e-09
-5.01e-10
1.831e-09
-5.046e-10
1.889e-09
-5.032e-10
1.946e-09
-4.965e-10
2.002e-09
-4.841e-10
2.056e-09
-4.657e-10
2.106e-09
-4.41e-10
2.154e-09
-4.099e-10
2.196e-09
-3.724e-10
2.234e-09
-3.286e-10
2.267e-09
-2.789e-10
2.293e-09
-2.236e-10
2.312e-09
-1.633e-10
2.324e-09
-9.918e-11
2.328e-09
-3.273e-11
2.324e-09
3.429e-11
2.312e-09
1.003e-10
2.293e-09
1.635e-10
2.267e-09
2.227e-10
2.235e-09
2.767e-10
2.198e-09
3.252e-10
2.156e-09
3.678e-10
2.11e-09
4.044e-10
2.06e-09
4.348e-10
2.008e-09
4.591e-10
1.953e-09
4.775e-10
1.897e-09
4.902e-10
1.84e-09
4.976e-10
1.782e-09
4.999e-10
1.724e-09
4.976e-10
1.667e-09
4.911e-10
1.61e-09
4.81e-10
1.555e-09
4.679e-10
1.502e-09
4.521e-10
1.451e-09
4.344e-10
1.402e-09
4.151e-10
1.355e-09
3.947e-10
1.311e-09
3.737e-10
1.269e-09
3.522e-10
1.23e-09
3.308e-10
1.193e-09
3.095e-10
1.158e-09
2.887e-10
1.126e-09
2.684e-10
1.096e-09
2.489e-10
1.068e-09
2.302e-10
1.042e-09
2.123e-10
1.018e-09
1.954e-10
9.962e-10
1.795e-10
9.759e-10
1.646e-10
9.573e-10
1.506e-10
9.403e-10
1.375e-10
9.247e-10
1.254e-10
9.104e-10
1.141e-10
8.974e-10
1.037e-10
8.855e-10
9.414e-11
8.747e-10
8.531e-11
8.649e-10
7.721e-11
8.56e-10
6.978e-11
8.479e-10
6.299e-11
8.406e-10
5.678e-11
8.34e-10
5.113e-11
8.28e-10
4.598e-11
8.226e-10
4.131e-11
8.177e-10
3.708e-11
8.134e-10
3.326e-11
8.094e-10
2.982e-11
8.059e-10
2.672e-11
8.028e-10
2.396e-11
7.999e-10
2.15e-11
7.974e-10
1.934e-11
7.952e-10
1.744e-11
7.931e-10
1.58e-11
7.913e-10
1.44e-11
7.897e-10
1.324e-11
7.883e-10
1.23e-11
7.87e-10
1.158e-11
7.858e-10
1.105e-11
7.847e-10
1.072e-11
1.058e-11
9.431e-10
4.951e-11
9.566e-10
1.328e-10
9.743e-10
1.983e-10
9.927e-10
2.456e-10
1.01e-09
2.763e-10
1.024e-09
2.93e-10
1.034e-09
2.984e-10
1.041e-09
2.95e-10
1.044e-09
2.851e-10
1.045e-09
2.705e-10
1.043e-09
2.529e-10
1.039e-09
2.333e-10
1.035e-09
2.126e-10
1.03e-09
1.914e-10
1.024e-09
1.701e-10
1.019e-09
1.491e-10
1.014e-09
1.284e-10
1.01e-09
1.082e-10
1.006e-09
8.851e-11
1.004e-09
6.923e-11
1.002e-09
5.036e-11
1.002e-09
3.18e-11
1.003e-09
1.348e-11
1.006e-09
-4.723e-12
1.01e-09
-2.29e-11
1.016e-09
-4.117e-11
1.023e-09
-5.963e-11
1.032e-09
-7.839e-11
1.043e-09
-9.756e-11
1.055e-09
-1.172e-10
1.07e-09
-1.374e-10
1.087e-09
-1.583e-10
1.105e-09
-1.799e-10
1.126e-09
-2.022e-10
1.149e-09
-2.253e-10
1.174e-09
-2.491e-10
1.202e-09
-2.737e-10
1.232e-09
-2.988e-10
1.265e-09
-3.245e-10
1.3e-09
-3.506e-10
1.338e-09
-3.767e-10
1.378e-09
-4.028e-10
1.421e-09
-4.284e-10
1.466e-09
-4.532e-10
1.514e-09
-4.768e-10
1.563e-09
-4.985e-10
1.615e-09
-5.179e-10
1.668e-09
-5.344e-10
1.722e-09
-5.472e-10
1.777e-09
-5.558e-10
1.831e-09
-5.595e-10
1.886e-09
-5.577e-10
1.939e-09
-5.5e-10
1.991e-09
-5.359e-10
2.041e-09
-5.151e-10
2.087e-09