/*--------------------------------*- C++ -*----------------------------------*\
  =========                 |
  \\      /  F ield         | OpenFOAM: The Open Source CFD Toolbox
   \\    /   O peration     | Website:  https://openfoam.org
    \\  /    A nd           | Version:  7
     \\/     M anipulation  |
\*---------------------------------------------------------------------------*/
FoamFile
{
    version     2.0;
    format      ascii;
    class       volVectorField;
    location    "119.999473411421";
    object      U;
}
// * * * * * * * * * * * * * * * * * * * * * * * * * * * * * * * * * * * * * //

dimensions      [0 1 -1 0 0 0 0];

internalField   nonuniform List<vector> 
4096
(
(0.001039 0.0001611 0)
(0.0007463 0.0001314 0)
(0.0005302 8.474e-05 0)
(0.0003918 5.358e-05 0)
(0.0003036 3.465e-05 0)
(0.0002457 2.326e-05 0)
(0.0002062 1.629e-05 0)
(0.000178 1.19e-05 0)
(0.0001571 9.006e-06 0)
(0.0001411 7.01e-06 0)
(0.0001285 5.575e-06 0)
(0.0001184 4.504e-06 0)
(0.0001102 3.679e-06 0)
(0.0001035 3.028e-06 0)
(9.797e-05 2.501e-06 0)
(9.34e-05 2.065e-06 0)
(8.964e-05 1.699e-06 0)
(8.655e-05 1.386e-06 0)
(8.406e-05 1.113e-06 0)
(8.207e-05 8.719e-07 0)
(8.054e-05 6.55e-07 0)
(7.943e-05 4.566e-07 0)
(7.87e-05 2.723e-07 0)
(7.833e-05 9.833e-08 0)
(7.83e-05 -6.861e-08 0)
(7.86e-05 -2.312e-07 0)
(7.923e-05 -3.917e-07 0)
(8.017e-05 -5.523e-07 0)
(8.144e-05 -7.147e-07 0)
(8.303e-05 -8.806e-07 0)
(8.496e-05 -1.051e-06 0)
(8.724e-05 -1.228e-06 0)
(8.988e-05 -1.412e-06 0)
(9.29e-05 -1.604e-06 0)
(9.631e-05 -1.804e-06 0)
(0.0001001 -2.013e-06 0)
(0.0001044 -2.23e-06 0)
(0.0001091 -2.456e-06 0)
(0.0001142 -2.69e-06 0)
(0.0001198 -2.93e-06 0)
(0.0001259 -3.176e-06 0)
(0.0001325 -3.423e-06 0)
(0.0001396 -3.671e-06 0)
(0.0001472 -3.914e-06 0)
(0.0001553 -4.15e-06 0)
(0.0001638 -4.373e-06 0)
(0.0001727 -4.577e-06 0)
(0.0001821 -4.758e-06 0)
(0.0001917 -4.908e-06 0)
(0.0002017 -5.021e-06 0)
(0.0002118 -5.09e-06 0)
(0.000222 -5.108e-06 0)
(0.0002322 -5.07e-06 0)
(0.0002422 -4.969e-06 0)
(0.000252 -4.801e-06 0)
(0.0002613 -4.561e-06 0)
(0.0002701 -4.249e-06 0)
(0.0002783 -3.864e-06 0)
(0.0002855 -3.406e-06 0)
(0.0002918 -2.882e-06 0)
(0.000297 -2.297e-06 0)
(0.0003009 -1.662e-06 0)
(0.0003036 -9.887e-07 0)
(0.0003049 -2.935e-07 0)
(0.0003048 4.074e-07 0)
(0.0003033 1.097e-06 0)
(0.0003004 1.758e-06 0)
(0.0002963 2.378e-06 0)
(0.0002909 2.943e-06 0)
(0.0002846 3.446e-06 0)
(0.0002772 3.881e-06 0)
(0.0002691 4.245e-06 0)
(0.0002603 4.537e-06 0)
(0.000251 4.76e-06 0)
(0.0002414 4.915e-06 0)
(0.0002314 5.006e-06 0)
(0.0002214 5.04e-06 0)
(0.0002113 5.02e-06 0)
(0.0002014 4.954e-06 0)
(0.0001916 4.848e-06 0)
(0.000182 4.706e-06 0)
(0.0001728 4.537e-06 0)
(0.0001639 4.346e-06 0)
(0.0001554 4.138e-06 0)
(0.0001473 3.918e-06 0)
(0.0001397 3.691e-06 0)
(0.0001326 3.462e-06 0)
(0.0001259 3.233e-06 0)
(0.0001196 3.007e-06 0)
(0.0001138 2.787e-06 0)
(0.0001085 2.574e-06 0)
(0.0001035 2.37e-06 0)
(9.899e-05 2.176e-06 0)
(9.482e-05 1.993e-06 0)
(9.101e-05 1.82e-06 0)
(8.753e-05 1.659e-06 0)
(8.436e-05 1.509e-06 0)
(8.148e-05 1.369e-06 0)
(7.887e-05 1.24e-06 0)
(7.651e-05 1.121e-06 0)
(7.438e-05 1.012e-06 0)
(7.246e-05 9.115e-07 0)
(7.072e-05 8.199e-07 0)
(6.917e-05 7.363e-07 0)
(6.777e-05 6.603e-07 0)
(6.652e-05 5.912e-07 0)
(6.54e-05 5.286e-07 0)
(6.44e-05 4.719e-07 0)
(6.351e-05 4.207e-07 0)
(6.271e-05 3.745e-07 0)
(6.2e-05 3.33e-07 0)
(6.137e-05 2.958e-07 0)
(6.082e-05 2.625e-07 0)
(6.032e-05 2.329e-07 0)
(5.988e-05 2.066e-07 0)
(5.949e-05 1.836e-07 0)
(5.914e-05 1.637e-07 0)
(5.883e-05 1.467e-07 0)
(5.855e-05 1.328e-07 0)
(5.83e-05 1.22e-07 0)
(5.806e-05 1.145e-07 0)
(5.784e-05 1.11e-07 0)
(5.761e-05 1.123e-07 0)
(5.738e-05 1.203e-07 0)
(5.712e-05 1.385e-07 0)
(5.681e-05 1.728e-07 0)
(5.641e-05 2.296e-07 0)
(5.588e-05 2.983e-07 0)
(0.001209 0.0003128 0)
(0.001154 0.0003282 0)
(0.00101 0.000248 0)
(0.0008613 0.000177 0)
(0.0007346 0.0001261 0)
(0.000633 9.132e-05 0)
(0.000553 6.773e-05 0)
(0.0004901 5.154e-05 0)
(0.0004403 4.015e-05 0)
(0.0004002 3.189e-05 0)
(0.0003678 2.574e-05 0)
(0.0003412 2.101e-05 0)
(0.0003192 1.731e-05 0)
(0.000301 1.433e-05 0)
(0.0002858 1.189e-05 0)
(0.0002732 9.858e-06 0)
(0.0002628 8.135e-06 0)
(0.0002542 6.652e-06 0)
(0.0002471 5.354e-06 0)
(0.0002416 4.202e-06 0)
(0.0002372 3.161e-06 0)
(0.0002341 2.208e-06 0)
(0.000232 1.32e-06 0)
(0.000231 4.814e-07 0)
(0.0002309 -3.241e-07 0)
(0.0002317 -1.108e-06 0)
(0.0002335 -1.883e-06 0)
(0.0002361 -2.656e-06 0)
(0.0002397 -3.438e-06 0)
(0.0002441 -4.235e-06 0)
(0.0002496 -5.053e-06 0)
(0.000256 -5.899e-06 0)
(0.0002634 -6.777e-06 0)
(0.0002718 -7.69e-06 0)
(0.0002813 -8.64e-06 0)
(0.0002919 -9.63e-06 0)
(0.0003037 -1.066e-05 0)
(0.0003168 -1.172e-05 0)
(0.000331 -1.282e-05 0)
(0.0003465 -1.395e-05 0)
(0.0003634 -1.509e-05 0)
(0.0003815 -1.624e-05 0)
(0.0004009 -1.739e-05 0)
(0.0004217 -1.851e-05 0)
(0.0004436 -1.959e-05 0)
(0.0004668 -2.061e-05 0)
(0.0004911 -2.154e-05 0)
(0.0005163 -2.236e-05 0)
(0.0005423 -2.303e-05 0)
(0.000569 -2.352e-05 0)
(0.0005961 -2.38e-05 0)
(0.0006234 -2.386e-05 0)
(0.0006505 -2.364e-05 0)
(0.0006772 -2.314e-05 0)
(0.0007032 -2.233e-05 0)
(0.000728 -2.119e-05 0)
(0.0007512 -1.972e-05 0)
(0.0007726 -1.791e-05 0)
(0.0007918 -1.578e-05 0)
(0.0008083 -1.334e-05 0)
(0.000822 -1.063e-05 0)
(0.0008324 -7.699e-06 0)
(0.0008394 -4.594e-06 0)
(0.0008428 -1.389e-06 0)
(0.0008426 1.841e-06 0)
(0.0008387 5.022e-06 0)
(0.0008313 8.079e-06 0)
(0.0008206 1.095e-05 0)
(0.0008067 1.358e-05 0)
(0.00079 1.592e-05 0)
(0.0007707 1.796e-05 0)
(0.0007493 1.968e-05 0)
(0.0007262 2.107e-05 0)
(0.0007016 2.214e-05 0)
(0.0006759 2.29e-05 0)
(0.0006495 2.336e-05 0)
(0.0006226 2.356e-05 0)
(0.0005957 2.351e-05 0)
(0.0005689 2.324e-05 0)
(0.0005425 2.278e-05 0)
(0.0005166 2.215e-05 0)
(0.0004916 2.14e-05 0)
(0.0004674 2.053e-05 0)
(0.0004443 1.958e-05 0)
(0.0004222 1.857e-05 0)
(0.0004013 1.753e-05 0)
(0.0003817 1.647e-05 0)
(0.0003632 1.541e-05 0)
(0.0003459 1.435e-05 0)
(0.0003298 1.333e-05 0)
(0.0003149 1.233e-05 0)
(0.000301 1.137e-05 0)
(0.0002883 1.046e-05 0)
(0.0002766 9.592e-06 0)
(0.0002659 8.776e-06 0)
(0.000256 8.01e-06 0)
(0.0002471 7.296e-06 0)
(0.0002389 6.631e-06 0)
(0.0002315 6.015e-06 0)
(0.0002247 5.446e-06 0)
(0.0002186 4.923e-06 0)
(0.0002131 4.442e-06 0)
(0.0002081 4.002e-06 0)
(0.0002036 3.6e-06 0)
(0.0001996 3.233e-06 0)
(0.000196 2.9e-06 0)
(0.0001927 2.597e-06 0)
(0.0001898 2.322e-06 0)
(0.0001872 2.074e-06 0)
(0.0001848 1.85e-06 0)
(0.0001828 1.648e-06 0)
(0.0001809 1.467e-06 0)
(0.0001792 1.304e-06 0)
(0.0001778 1.16e-06 0)
(0.0001765 1.031e-06 0)
(0.0001753 9.187e-07 0)
(0.0001742 8.208e-07 0)
(0.0001733 7.373e-07 0)
(0.0001725 6.681e-07 0)
(0.0001717 6.136e-07 0)
(0.000171 5.748e-07 0)
(0.0001703 5.532e-07 0)
(0.0001696 5.52e-07 0)
(0.000169 5.759e-07 0)
(0.0001683 6.33e-07 0)
(0.0001675 7.342e-07 0)
(0.0001667 8.853e-07 0)
(0.0001658 1.043e-06 0)
(0.001226 0.0002775 0)
(0.001243 0.0004027 0)
(0.001194 0.0003663 0)
(0.001103 0.0002981 0)
(0.001 0.0002342 0)
(0.0009022 0.0001827 0)
(0.0008153 0.0001433 0)
(0.0007406 0.0001136 0)
(0.0006773 9.118e-05 0)
(0.0006242 7.404e-05 0)
(0.0005795 6.073e-05 0)
(0.0005419 5.021e-05 0)
(0.0005102 4.174e-05 0)
(0.0004835 3.481e-05 0)
(0.000461 2.906e-05 0)
(0.0004421 2.42e-05 0)
(0.0004263 2.005e-05 0)
(0.0004133 1.644e-05 0)
(0.0004026 1.326e-05 0)
(0.000394 1.043e-05 0)
(0.0003874 7.854e-06 0)
(0.0003826 5.488e-06 0)
(0.0003794 3.279e-06 0)
(0.0003778 1.187e-06 0)
(0.0003777 -8.251e-07 0)
(0.0003791 -2.786e-06 0)
(0.0003818 -4.721e-06 0)
(0.000386 -6.655e-06 0)
(0.0003916 -8.607e-06 0)
(0.0003987 -1.059e-05 0)
(0.0004072 -1.263e-05 0)
(0.0004172 -1.474e-05 0)
(0.0004288 -1.692e-05 0)
(0.000442 -1.918e-05 0)
(0.0004568 -2.153e-05 0)
(0.0004734 -2.397e-05 0)
(0.0004918 -2.65e-05 0)
(0.000512 -2.912e-05 0)
(0.0005342 -3.181e-05 0)
(0.0005582 -3.456e-05 0)
(0.0005843 -3.734e-05 0)
(0.0006123 -4.014e-05 0)
(0.0006423 -4.292e-05 0)
(0.0006742 -4.563e-05 0)
(0.000708 -4.824e-05 0)
(0.0007436 -5.068e-05 0)
(0.0007807 -5.29e-05 0)
(0.0008193 -5.482e-05 0)
(0.0008591 -5.639e-05 0)
(0.0008998 -5.752e-05 0)
(0.000941 -5.815e-05 0)
(0.0009825 -5.821e-05 0)
(0.001024 -5.762e-05 0)
(0.001064 -5.634e-05 0)
(0.001103 -5.431e-05 0)
(0.001141 -5.149e-05 0)
(0.001176 -4.788e-05 0)
(0.001208 -4.347e-05 0)
(0.001237 -3.828e-05 0)
(0.001262 -3.236e-05 0)
(0.001283 -2.579e-05 0)
(0.001299 -1.869e-05 0)
(0.001309 -1.119e-05 0)
(0.001314 -3.443e-06 0)
(0.001314 4.364e-06 0)
(0.001308 1.205e-05 0)
(0.001297 1.945e-05 0)
(0.001281 2.641e-05 0)
(0.001261 3.28e-05 0)
(0.001235 3.852e-05 0)
(0.001207 4.351e-05 0)
(0.001174 4.773e-05 0)
(0.001139 5.117e-05 0)
(0.001102 5.384e-05 0)
(0.001063 5.576e-05 0)
(0.001023 5.697e-05 0)
(0.0009824 5.753e-05 0)
(0.0009414 5.749e-05 0)
(0.0009006 5.692e-05 0)
(0.0008602 5.587e-05 0)
(0.0008207 5.442e-05 0)
(0.0007823 5.263e-05 0)
(0.0007451 5.057e-05 0)
(0.0007095 4.831e-05 0)
(0.0006755 4.589e-05 0)
(0.0006432 4.338e-05 0)
(0.0006127 4.081e-05 0)
(0.0005841 3.823e-05 0)
(0.0005572 3.567e-05 0)
(0.0005321 3.316e-05 0)
(0.0005088 3.073e-05 0)
(0.0004872 2.838e-05 0)
(0.0004673 2.614e-05 0)
(0.0004489 2.401e-05 0)
(0.000432 2.199e-05 0)
(0.0004165 2.01e-05 0)
(0.0004024 1.833e-05 0)
(0.0003895 1.668e-05 0)
(0.0003777 1.515e-05 0)
(0.000367 1.374e-05 0)
(0.0003573 1.244e-05 0)
(0.0003485 1.124e-05 0)
(0.0003406 1.014e-05 0)
(0.0003334 9.131e-06 0)
(0.0003269 8.212e-06 0)
(0.0003211 7.376e-06 0)
(0.0003159 6.615e-06 0)
(0.0003112 5.924e-06 0)
(0.0003069 5.299e-06 0)
(0.0003032 4.734e-06 0)
(0.0002998 4.224e-06 0)
(0.0002968 3.766e-06 0)
(0.0002941 3.355e-06 0)
(0.0002917 2.988e-06 0)
(0.0002895 2.662e-06 0)
(0.0002876 2.375e-06 0)
(0.0002859 2.126e-06 0)
(0.0002843 1.911e-06 0)
(0.000283 1.733e-06 0)
(0.0002817 1.59e-06 0)
(0.0002805 1.484e-06 0)
(0.0002794 1.417e-06 0)
(0.0002784 1.395e-06 0)
(0.0002773 1.422e-06 0)
(0.0002763 1.505e-06 0)
(0.0002753 1.65e-06 0)
(0.0002742 1.846e-06 0)
(0.0002732 2.017e-06 0)
(0.001224 0.0002275 0)
(0.00126 0.0004003 0)
(0.001258 0.0004191 0)
(0.001216 0.0003786 0)
(0.00115 0.0003224 0)
(0.001074 0.0002679 0)
(0.0009989 0.0002206 0)
(0.0009281 0.0001817 0)
(0.0008642 0.0001502 0)
(0.0008077 0.0001247 0)
(0.0007584 0.0001041 0)
(0.0007157 8.721e-05 0)
(0.0006788 7.328e-05 0)
(0.0006471 6.164e-05 0)
(0.0006201 5.18e-05 0)
(0.000597 4.338e-05 0)
(0.0005776 3.609e-05 0)
(0.0005614 2.969e-05 0)
(0.0005481 2.402e-05 0)
(0.0005374 1.891e-05 0)
(0.0005291 1.425e-05 0)
(0.0005231 9.945e-06 0)
(0.0005192 5.91e-06 0)
(0.0005173 2.075e-06 0)
(0.0005173 -1.62e-06 0)
(0.0005192 -5.227e-06 0)
(0.0005229 -8.792e-06 0)
(0.0005285 -1.235e-05 0)
(0.0005359 -1.595e-05 0)
(0.0005452 -1.961e-05 0)
(0.0005565 -2.336e-05 0)
(0.0005696 -2.722e-05 0)
(0.0005848 -3.122e-05 0)
(0.0006021 -3.536e-05 0)
(0.0006216 -3.966e-05 0)
(0.0006433 -4.411e-05 0)
(0.0006672 -4.872e-05 0)
(0.0006936 -5.348e-05 0)
(0.0007224 -5.836e-05 0)
(0.0007537 -6.334e-05 0)
(0.0007874 -6.838e-05 0)
(0.0008237 -7.342e-05 0)
(0.0008625 -7.842e-05 0)
(0.0009037 -8.329e-05 0)
(0.0009473 -8.795e-05 0)
(0.0009931 -9.23e-05 0)
(0.001041 -9.623e-05 0)
(0.00109 -9.964e-05 0)
(0.001141 -0.0001024 0)
(0.001194 -0.0001043 0)
(0.001246 -0.0001054 0)
(0.001299 -0.0001054 0)
(0.001352 -0.0001042 0)
(0.001404 -0.0001018 0)
(0.001454 -9.81e-05 0)
(0.001501 -9.296e-05 0)
(0.001546 -8.639e-05 0)
(0.001587 -7.84e-05 0)
(0.001624 -6.902e-05 0)
(0.001656 -5.835e-05 0)
(0.001682 -4.653e-05 0)
(0.001702 -3.375e-05 0)
(0.001716 -2.026e-05 0)
(0.001722 -6.331e-06 0)
(0.001722 7.707e-06 0)
(0.001715 2.154e-05 0)
(0.001701 3.486e-05 0)
(0.001681 4.74e-05 0)
(0.001655 5.893e-05 0)
(0.001623 6.928e-05 0)
(0.001586 7.833e-05 0)
(0.001545 8.601e-05 0)
(0.001501 9.23e-05 0)
(0.001453 9.721e-05 0)
(0.001404 0.0001008 0)
(0.001353 0.0001031 0)
(0.001301 0.0001042 0)
(0.001248 0.0001043 0)
(0.001196 0.0001033 0)
(0.001144 0.0001016 0)
(0.001093 9.904e-05 0)
(0.001044 9.59e-05 0)
(0.000996 9.227e-05 0)
(0.00095 8.824e-05 0)
(0.000906 8.393e-05 0)
(0.0008642 7.943e-05 0)
(0.0008246 7.482e-05 0)
(0.0007873 7.018e-05 0)
(0.0007524 6.556e-05 0)
(0.0007197 6.102e-05 0)
(0.0006892 5.661e-05 0)
(0.000661 5.235e-05 0)
(0.0006348 4.827e-05 0)
(0.0006107 4.439e-05 0)
(0.0005885 4.071e-05 0)
(0.0005681 3.726e-05 0)
(0.0005494 3.402e-05 0)
(0.0005323 3.1e-05 0)
(0.0005167 2.819e-05 0)
(0.0005026 2.559e-05 0)
(0.0004897 2.319e-05 0)
(0.000478 2.098e-05 0)
(0.0004674 1.895e-05 0)
(0.0004578 1.709e-05 0)
(0.0004491 1.539e-05 0)
(0.0004413 1.384e-05 0)
(0.0004343 1.242e-05 0)
(0.0004279 1.114e-05 0)
(0.0004223 9.979e-06 0)
(0.0004172 8.927e-06 0)
(0.0004126 7.977e-06 0)
(0.0004085 7.121e-06 0)
(0.0004048 6.353e-06 0)
(0.0004016 5.666e-06 0)
(0.0003987 5.056e-06 0)
(0.000396 4.517e-06 0)
(0.0003937 4.045e-06 0)
(0.0003916 3.639e-06 0)
(0.0003897 3.297e-06 0)
(0.000388 3.019e-06 0)
(0.0003864 2.805e-06 0)
(0.0003849 2.658e-06 0)
(0.0003835 2.582e-06 0)
(0.0003822 2.579e-06 0)
(0.0003809 2.654e-06 0)
(0.0003797 2.799e-06 0)
(0.0003784 2.989e-06 0)
(0.0003772 3.14e-06 0)
(0.001219 0.0001847 0)
(0.001255 0.0003711 0)
(0.001275 0.0004297 0)
(0.001265 0.0004204 0)
(0.00123 0.0003819 0)
(0.00118 0.0003343 0)
(0.001122 0.0002873 0)
(0.001063 0.0002448 0)
(0.001006 0.0002079 0)
(0.0009532 0.0001764 0)
(0.0009051 0.0001498 0)
(0.000862 0.0001273 0)
(0.0008239 0.0001082 0)
(0.0007905 9.182e-05 0)
(0.0007615 7.774e-05 0)
(0.0007365 6.549e-05 0)
(0.0007151 5.474e-05 0)
(0.0006972 4.52e-05 0)
(0.0006824 3.665e-05 0)
(0.0006704 2.889e-05 0)
(0.0006612 2.177e-05 0)
(0.0006545 1.515e-05 0)
(0.0006502 8.908e-06 0)
(0.0006482 2.955e-06 0)
(0.0006485 -2.797e-06 0)
(0.000651 -8.425e-06 0)
(0.0006557 -1.4e-05 0)
(0.0006625 -1.957e-05 0)
(0.0006715 -2.519e-05 0)
(0.0006828 -3.091e-05 0)
(0.0006963 -3.678e-05 0)
(0.0007121 -4.281e-05 0)
(0.0007303 -4.905e-05 0)
(0.000751 -5.551e-05 0)
(0.0007743 -6.22e-05 0)
(0.0008002 -6.913e-05 0)
(0.0008288 -7.629e-05 0)
(0.0008602 -8.366e-05 0)
(0.0008944 -9.121e-05 0)
(0.0009315 -9.89e-05 0)
(0.0009716 -0.0001067 0)
(0.001015 -0.0001144 0)
(0.00106 -0.0001221 0)
(0.001109 -0.0001296 0)
(0.001161 -0.0001367 0)
(0.001215 -0.0001433 0)
(0.001271 -0.0001493 0)
(0.001329 -0.0001545 0)
(0.001389 -0.0001586 0)
(0.00145 -0.0001615 0)
(0.001512 -0.000163 0)
(0.001575 -0.0001629 0)
(0.001636 -0.000161 0)
(0.001697 -0.0001572 0)
(0.001755 -0.0001514 0)
(0.001811 -0.0001434 0)
(0.001864 -0.0001332 0)
(0.001912 -0.0001209 0)
(0.001955 -0.0001064 0)
(0.001992 -8.997e-05 0)
(0.002023 -7.178e-05 0)
(0.002046 -5.211e-05 0)
(0.002062 -3.135e-05 0)
(0.00207 -9.936e-06 0)
(0.00207 1.166e-05 0)
(0.002062 3.295e-05 0)
(0.002046 5.346e-05 0)
(0.002022 7.277e-05 0)
(0.001991 9.055e-05 0)
(0.001954 0.0001065 0)
(0.001911 0.0001205 0)
(0.001864 0.0001324 0)
(0.001812 0.0001422 0)
(0.001756 0.0001499 0)
(0.001699 0.0001556 0)
(0.001639 0.0001593 0)
(0.001578 0.0001612 0)
(0.001516 0.0001614 0)
(0.001455 0.0001601 0)
(0.001394 0.0001575 0)
(0.001334 0.0001537 0)
(0.001276 0.000149 0)
(0.001219 0.0001435 0)
(0.001165 0.0001374 0)
(0.001113 0.0001308 0)
(0.001063 0.0001239 0)
(0.001016 0.0001169 0)
(0.0009718 0.0001097 0)
(0.0009302 0.0001026 0)
(0.0008913 9.562e-05 0)
(0.0008549 8.879e-05 0)
(0.0008211 8.22e-05 0)
(0.0007898 7.588e-05 0)
(0.0007609 6.985e-05 0)
(0.0007342 6.414e-05 0)
(0.0007097 5.876e-05 0)
(0.0006872 5.371e-05 0)
(0.0006666 4.899e-05 0)
(0.0006477 4.46e-05 0)
(0.0006306 4.053e-05 0)
(0.000615 3.677e-05 0)
(0.0006007 3.33e-05 0)
(0.0005879 3.011e-05 0)
(0.0005762 2.718e-05 0)
(0.0005656 2.451e-05 0)
(0.0005561 2.206e-05 0)
(0.0005475 1.983e-05 0)
(0.0005397 1.781e-05 0)
(0.0005328 1.597e-05 0)
(0.0005265 1.43e-05 0)
(0.0005209 1.279e-05 0)
(0.0005158 1.144e-05 0)
(0.0005113 1.021e-05 0)
(0.0005073 9.121e-06 0)
(0.0005037 8.147e-06 0)
(0.0005004 7.285e-06 0)
(0.0004975 6.528e-06 0)
(0.0004949 5.873e-06 0)
(0.0004925 5.316e-06 0)
(0.0004904 4.855e-06 0)
(0.0004885 4.491e-06 0)
(0.0004867 4.223e-06 0)
(0.000485 4.053e-06 0)
(0.0004835 3.982e-06 0)
(0.000482 4.006e-06 0)
(0.0004806 4.112e-06 0)
(0.0004792 4.264e-06 0)
(0.0004779 4.382e-06 0)
(0.001214 0.000152 0)
(0.001246 0.0003351 0)
(0.001274 0.0004176 0)
(0.001282 0.0004344 0)
(0.00127 0.0004155 0)
(0.001241 0.0003798 0)
(0.001202 0.0003385 0)
(0.001157 0.0002971 0)
(0.001111 0.0002586 0)
(0.001066 0.000224 0)
(0.001023 0.0001934 0)
(0.0009827 0.0001666 0)
(0.0009464 0.0001432 0)
(0.0009139 0.0001227 0)
(0.0008851 0.0001047 0)
(0.0008599 8.872e-05 0)
(0.0008383 7.452e-05 0)
(0.0008199 6.176e-05 0)
(0.0008046 5.02e-05 0)
(0.0007923 3.961e-05 0)
(0.0007827 2.981e-05 0)
(0.0007759 2.064e-05 0)
(0.0007716 1.195e-05 0)
(0.0007699 3.628e-06 0)
(0.0007706 -4.448e-06 0)
(0.0007737 -1.237e-05 0)
(0.0007792 -2.023e-05 0)
(0.0007871 -2.81e-05 0)
(0.0007975 -3.605e-05 0)
(0.0008104 -4.415e-05 0)
(0.0008257 -5.244e-05 0)
(0.0008437 -6.097e-05 0)
(0.0008644 -6.978e-05 0)
(0.0008878 -7.889e-05 0)
(0.000914 -8.832e-05 0)
(0.0009432 -9.808e-05 0)
(0.0009754 -0.0001081 0)
(0.001011 -0.0001185 0)
(0.001049 -0.0001291 0)
(0.001091 -0.0001399 0)
(0.001136 -0.0001507 0)
(0.001184 -0.0001616 0)
(0.001235 -0.0001723 0)
(0.00129 -0.0001826 0)
(0.001347 -0.0001925 0)
(0.001408 -0.0002017 0)
(0.001471 -0.00021 0)
(0.001536 -0.0002171 0)
(0.001602 -0.0002228 0)
(0.001671 -0.0002267 0)
(0.00174 -0.0002287 0)
(0.001809 -0.0002284 0)
(0.001877 -0.0002257 0)
(0.001944 -0.0002203 0)
(0.00201 -0.000212 0)
(0.002072 -0.0002008 0)
(0.00213 -0.0001865 0)
(0.002184 -0.0001692 0)
(0.002232 -0.000149 0)
(0.002273 -0.000126 0)
(0.002307 -0.0001006 0)
(0.002333 -7.311e-05 0)
(0.002351 -4.409e-05 0)
(0.00236 -1.414e-05 0)
(0.00236 1.607e-05 0)
(0.002351 4.585e-05 0)
(0.002333 7.454e-05 0)
(0.002307 0.0001016 0)
(0.002273 0.0001265 0)
(0.002232 0.0001488 0)
(0.002184 0.0001685 0)
(0.002131 0.0001852 0)
(0.002074 0.000199 0)
(0.002012 0.0002099 0)
(0.001948 0.0002179 0)
(0.001881 0.0002233 0)
(0.001814 0.0002261 0)
(0.001745 0.0002265 0)
(0.001677 0.0002249 0)
(0.001609 0.0002214 0)
(0.001542 0.0002163 0)
(0.001477 0.0002098 0)
(0.001414 0.0002023 0)
(0.001353 0.0001938 0)
(0.001295 0.0001847 0)
(0.001239 0.0001751 0)
(0.001186 0.0001653 0)
(0.001137 0.0001554 0)
(0.00109 0.0001454 0)
(0.001046 0.0001356 0)
(0.001005 0.0001261 0)
(0.0009668 0.0001168 0)
(0.0009314 0.000108 0)
(0.0008986 9.947e-05 0)
(0.0008684 9.143e-05 0)
(0.0008405 8.384e-05 0)
(0.000815 7.671e-05 0)
(0.0007915 7.004e-05 0)
(0.0007701 6.383e-05 0)
(0.0007505 5.806e-05 0)
(0.0007326 5.272e-05 0)
(0.0007163 4.78e-05 0)
(0.0007016 4.326e-05 0)
(0.0006882 3.91e-05 0)
(0.000676 3.529e-05 0)
(0.0006651 3.18e-05 0)
(0.0006552 2.862e-05 0)
(0.0006462 2.572e-05 0)
(0.0006381 2.309e-05 0)
(0.0006309 2.07e-05 0)
(0.0006244 1.854e-05 0)
(0.0006185 1.659e-05 0)
(0.0006133 1.483e-05 0)
(0.0006086 1.326e-05 0)
(0.0006043 1.185e-05 0)
(0.0006006 1.06e-05 0)
(0.0005972 9.506e-06 0)
(0.0005941 8.549e-06 0)
(0.0005914 7.73e-06 0)
(0.0005889 7.042e-06 0)
(0.0005867 6.485e-06 0)
(0.0005846 6.057e-06 0)
(0.0005828 5.755e-06 0)
(0.000581 5.576e-06 0)
(0.0005794 5.512e-06 0)
(0.0005779 5.546e-06 0)
(0.0005764 5.637e-06 0)
(0.000575 5.718e-06 0)
(0.00121 0.0001278 0)
(0.001237 0.0003003 0)
(0.001267 0.0003947 0)
(0.001285 0.0004306 0)
(0.001288 0.0004293 0)
(0.001276 0.0004068 0)
(0.001253 0.0003738 0)
(0.001222 0.0003369 0)
(0.001187 0.0002998 0)
(0.001151 0.0002646 0)
(0.001115 0.0002321 0)
(0.00108 0.0002026 0)
(0.001048 0.000176 0)
(0.001018 0.0001522 0)
(0.0009915 0.0001308 0)
(0.0009678 0.0001115 0)
(0.000947 9.412e-05 0)
(0.0009293 7.829e-05 0)
(0.0009145 6.377e-05 0)
(0.0009025 5.035e-05 0)
(0.0008933 3.782e-05 0)
(0.0008868 2.601e-05 0)
(0.0008829 1.475e-05 0)
(0.0008815 3.906e-06 0)
(0.0008828 -6.655e-06 0)
(0.0008866 -1.705e-05 0)
(0.0008929 -2.738e-05 0)
(0.0009017 -3.775e-05 0)
(0.0009132 -4.824e-05 0)
(0.0009273 -5.892e-05 0)
(0.0009441 -6.986e-05 0)
(0.0009637 -8.112e-05 0)
(0.0009862 -9.274e-05 0)
(0.001012 -0.0001048 0)
(0.00104 -0.0001172 0)
(0.001072 -0.00013 0)
(0.001107 -0.0001433 0)
(0.001145 -0.0001568 0)
(0.001186 -0.0001707 0)
(0.001231 -0.0001849 0)
(0.00128 -0.0001991 0)
(0.001332 -0.0002133 0)
(0.001387 -0.0002272 0)
(0.001445 -0.0002408 0)
(0.001507 -0.0002537 0)
(0.001572 -0.0002657 0)
(0.001639 -0.0002764 0)
(0.001709 -0.0002856 0)
(0.001781 -0.0002929 0)
(0.001854 -0.0002979 0)
(0.001928 -0.0003004 0)
(0.002002 -0.0002999 0)
(0.002076 -0.0002962 0)
(0.002148 -0.000289 0)
(0.002218 -0.0002781 0)
(0.002284 -0.0002634 0)
(0.002347 -0.0002447 0)
(0.002404 -0.000222 0)
(0.002456 -0.0001956 0)
(0.0025 -0.0001655 0)
(0.002537 -0.0001322 0)
(0.002565 -9.615e-05 0)
(0.002585 -5.81e-05 0)
(0.002594 -1.881e-05 0)
(0.002594 2.081e-05 0)
(0.002585 5.987e-05 0)
(0.002565 9.751e-05 0)
(0.002537 0.0001329 0)
(0.002501 0.0001656 0)
(0.002457 0.0001949 0)
(0.002406 0.0002207 0)
(0.002349 0.0002427 0)
(0.002288 0.0002608 0)
(0.002222 0.0002752 0)
(0.002153 0.0002859 0)
(0.002082 0.000293 0)
(0.002009 0.0002969 0)
(0.001936 0.0002977 0)
(0.001862 0.0002957 0)
(0.001789 0.0002913 0)
(0.001718 0.0002848 0)
(0.001648 0.0002765 0)
(0.00158 0.0002667 0)
(0.001514 0.0002557 0)
(0.001452 0.0002439 0)
(0.001392 0.0002314 0)
(0.001335 0.0002186 0)
(0.001281 0.0002056 0)
(0.00123 0.0001926 0)
(0.001183 0.0001798 0)
(0.001139 0.0001673 0)
(0.001097 0.0001551 0)
(0.001059 0.0001435 0)
(0.001023 0.0001323 0)
(0.0009904 0.0001217 0)
(0.0009601 0.0001117 0)
(0.0009322 0.0001023 0)
(0.0009066 9.35e-05 0)
(0.0008831 8.528e-05 0)
(0.0008617 7.765e-05 0)
(0.0008421 7.057e-05 0)
(0.0008243 6.404e-05 0)
(0.0008081 5.801e-05 0)
(0.0007933 5.248e-05 0)
(0.00078 4.74e-05 0)
(0.0007679 4.276e-05 0)
(0.0007569 3.852e-05 0)
(0.000747 3.465e-05 0)
(0.0007381 3.113e-05 0)
(0.0007301 2.794e-05 0)
(0.0007229 2.505e-05 0)
(0.0007164 2.243e-05 0)
(0.0007105 2.008e-05 0)
(0.0007053 1.796e-05 0)
(0.0007006 1.607e-05 0)
(0.0006964 1.438e-05 0)
(0.0006926 1.29e-05 0)
(0.0006892 1.159e-05 0)
(0.0006861 1.047e-05 0)
(0.0006834 9.517e-06 0)
(0.0006809 8.73e-06 0)
(0.0006787 8.103e-06 0)
(0.0006766 7.633e-06 0)
(0.0006748 7.313e-06 0)
(0.000673 7.131e-06 0)
(0.0006714 7.066e-06 0)
(0.0006699 7.082e-06 0)
(0.0006684 7.121e-06 0)
(0.001208 0.0001095 0)
(0.00123 0.000269 0)
(0.001259 0.0003678 0)
(0.001282 0.0004163 0)
(0.001294 0.0004291 0)
(0.001294 0.000419 0)
(0.001283 0.0003952 0)
(0.001265 0.0003644 0)
(0.001242 0.0003307 0)
(0.001215 0.0002968 0)
(0.001187 0.0002641 0)
(0.001158 0.0002333 0)
(0.001131 0.0002048 0)
(0.001106 0.0001787 0)
(0.001082 0.0001547 0)
(0.001061 0.0001327 0)
(0.001042 0.0001125 0)
(0.001026 9.387e-05 0)
(0.001012 7.66e-05 0)
(0.001001 6.048e-05 0)
(0.0009927 4.529e-05 0)
(0.0009869 3.087e-05 0)
(0.0009836 1.703e-05 0)
(0.000983 3.634e-06 0)
(0.0009848 -9.474e-06 0)
(0.0009892 -2.242e-05 0)
(0.0009962 -3.533e-05 0)
(0.001006 -4.83e-05 0)
(0.001018 -6.144e-05 0)
(0.001033 -7.484e-05 0)
(0.001051 -8.858e-05 0)
(0.001072 -0.0001027 0)
(0.001095 -0.0001173 0)
(0.001122 -0.0001324 0)
(0.001152 -0.0001479 0)
(0.001185 -0.000164 0)
(0.001222 -0.0001806 0)
(0.001262 -0.0001976 0)
(0.001305 -0.000215 0)
(0.001352 -0.0002326 0)
(0.001403 -0.0002504 0)
(0.001457 -0.0002681 0)
(0.001514 -0.0002855 0)
(0.001576 -0.0003023 0)
(0.00164 -0.0003184 0)
(0.001708 -0.0003333 0)
(0.001778 -0.0003466 0)
(0.001851 -0.0003579 0)
(0.001925 -0.0003669 0)
(0.002002 -0.0003731 0)
(0.002079 -0.0003761 0)
(0.002156 -0.0003754 0)
(0.002232 -0.0003707 0)
(0.002307 -0.0003617 0)
(0.00238 -0.000348 0)
(0.002449 -0.0003296 0)
(0.002514 -0.0003062 0)
(0.002574 -0.0002779 0)
(0.002628 -0.0002449 0)
(0.002675 -0.0002073 0)
(0.002713 -0.0001657 0)
(0.002743 -0.0001207 0)
(0.002763 -7.303e-05 0)
(0.002773 -2.383e-05 0)
(0.002773 2.579e-05 0)
(0.002763 7.471e-05 0)
(0.002743 0.0001218 0)
(0.002714 0.0001661 0)
(0.002676 0.0002069 0)
(0.00263 0.0002436 0)
(0.002577 0.0002758 0)
(0.002518 0.0003033 0)
(0.002454 0.000326 0)
(0.002385 0.0003441 0)
(0.002314 0.0003576 0)
(0.00224 0.0003667 0)
(0.002164 0.0003716 0)
(0.002088 0.0003728 0)
(0.002011 0.0003705 0)
(0.001935 0.0003652 0)
(0.001861 0.0003572 0)
(0.001788 0.000347 0)
(0.001717 0.0003349 0)
(0.001649 0.0003213 0)
(0.001583 0.0003066 0)
(0.00152 0.0002911 0)
(0.001461 0.0002752 0)
(0.001405 0.000259 0)
(0.001352 0.0002428 0)
(0.001302 0.0002268 0)
(0.001256 0.0002112 0)
(0.001212 0.000196 0)
(0.001172 0.0001814 0)
(0.001134 0.0001674 0)
(0.0011 0.0001541 0)
(0.001068 0.0001416 0)
(0.001038 0.0001297 0)
(0.001011 0.0001187 0)
(0.0009866 0.0001083 0)
(0.0009639 9.871e-05 0)
(0.0009432 8.98e-05 0)
(0.0009243 8.155e-05 0)
(0.000907 7.394e-05 0)
(0.0008914 6.694e-05 0)
(0.0008772 6.052e-05 0)
(0.0008643 5.464e-05 0)
(0.0008526 4.926e-05 0)
(0.000842 4.435e-05 0)
(0.0008325 3.989e-05 0)
(0.0008239 3.583e-05 0)
(0.0008161 3.214e-05 0)
(0.0008092 2.881e-05 0)
(0.0008029 2.581e-05 0)
(0.0007973 2.31e-05 0)
(0.0007922 2.068e-05 0)
(0.0007877 1.852e-05 0)
(0.0007836 1.661e-05 0)
(0.00078 1.492e-05 0)
(0.0007767 1.346e-05 0)
(0.0007737 1.221e-05 0)
(0.0007711 1.116e-05 0)
(0.0007687 1.031e-05 0)
(0.0007665 9.639e-06 0)
(0.0007646 9.15e-06 0)
(0.0007628 8.824e-06 0)
(0.0007611 8.642e-06 0)
(0.0007596 8.57e-06 0)
(0.0007581 8.562e-06 0)
(0.001206 9.541e-05 0)
(0.001225 0.0002416 0)
(0.001252 0.0003402 0)
(0.001276 0.0003963 0)
(0.001294 0.0004197 0)
(0.001302 0.00042 0)
(0.001302 0.000405 0)
(0.001293 0.0003808 0)
(0.00128 0.0003517 0)
(0.001262 0.0003204 0)
(0.001241 0.0002889 0)
(0.00122 0.0002582 0)
(0.001198 0.0002288 0)
(0.001178 0.0002012 0)
(0.001158 0.0001754 0)
(0.00114 0.0001513 0)
(0.001124 0.0001288 0)
(0.00111 0.0001078 0)
(0.001098 8.81e-05 0)
(0.001088 6.951e-05 0)
(0.001081 5.184e-05 0)
(0.001076 3.493e-05 0)
(0.001074 1.86e-05 0)
(0.001074 2.701e-06 0)
(0.001076 -1.293e-05 0)
(0.001082 -2.842e-05 0)
(0.001089 -4.391e-05 0)
(0.001099 -5.952e-05 0)
(0.001112 -7.535e-05 0)
(0.001128 -9.151e-05 0)
(0.001146 -0.0001081 0)
(0.001167 -0.0001252 0)
(0.001192 -0.0001428 0)
(0.001219 -0.000161 0)
(0.001249 -0.0001798 0)
(0.001283 -0.0001992 0)
(0.00132 -0.0002191 0)
(0.001361 -0.0002397 0)
(0.001405 -0.0002606 0)
(0.001453 -0.0002818 0)
(0.001505 -0.0003032 0)
(0.00156 -0.0003245 0)
(0.001618 -0.0003454 0)
(0.00168 -0.0003657 0)
(0.001746 -0.000385 0)
(0.001815 -0.0004028 0)
(0.001886 -0.0004188 0)
(0.00196 -0.0004324 0)
(0.002036 -0.0004431 0)
(0.002113 -0.0004505 0)
(0.002191 -0.0004539 0)
(0.00227 -0.000453 0)
(0.002347 -0.0004473 0)
(0.002423 -0.0004363 0)
(0.002497 -0.0004198 0)
(0.002567 -0.0003976 0)
(0.002634 -0.0003694 0)
(0.002694 -0.0003354 0)
(0.002749 -0.0002957 0)
(0.002797 -0.0002505 0)
(0.002836 -0.0002004 0)
(0.002866 -0.000146 0)
(0.002887 -8.851e-05 0)
(0.002897 -2.905e-05 0)
(0.002897 3.093e-05 0)
(0.002887 9.004e-05 0)
(0.002867 0.0001469 0)
(0.002837 0.0002004 0)
(0.002798 0.0002495 0)
(0.002751 0.0002936 0)
(0.002698 0.0003324 0)
(0.002638 0.0003655 0)
(0.002573 0.000393 0)
(0.002504 0.0004148 0)
(0.002431 0.0004311 0)
(0.002356 0.0004422 0)
(0.002279 0.0004484 0)
(0.002202 0.00045 0)
(0.002124 0.0004474 0)
(0.002047 0.0004412 0)
(0.001971 0.0004317 0)
(0.001897 0.0004195 0)
(0.001825 0.0004051 0)
(0.001756 0.0003889 0)
(0.001689 0.0003713 0)
(0.001625 0.0003527 0)
(0.001565 0.0003336 0)
(0.001508 0.0003141 0)
(0.001454 0.0002947 0)
(0.001403 0.0002754 0)
(0.001355 0.0002566 0)
(0.001311 0.0002383 0)
(0.00127 0.0002207 0)
(0.001232 0.0002038 0)
(0.001196 0.0001878 0)
(0.001163 0.0001726 0)
(0.001133 0.0001583 0)
(0.001106 0.0001449 0)
(0.00108 0.0001324 0)
(0.001057 0.0001207 0)
(0.001035 0.0001099 0)
(0.001016 9.986e-05 0)
(0.0009983 9.061e-05 0)
(0.0009821 8.21e-05 0)
(0.0009674 7.428e-05 0)
(0.000954 6.711e-05 0)
(0.0009419 6.055e-05 0)
(0.000931 5.457e-05 0)
(0.0009211 4.911e-05 0)
(0.0009122 4.415e-05 0)
(0.0009041 3.964e-05 0)
(0.0008968 3.556e-05 0)
(0.0008903 3.187e-05 0)
(0.0008844 2.855e-05 0)
(0.0008791 2.557e-05 0)
(0.0008744 2.291e-05 0)
(0.0008701 2.054e-05 0)
(0.0008663 1.845e-05 0)
(0.0008629 1.662e-05 0)
(0.0008599 1.505e-05 0)
(0.0008571 1.372e-05 0)
(0.0008546 1.261e-05 0)
(0.0008524 1.172e-05 0)
(0.0008504 1.104e-05 0)
(0.0008486 1.056e-05 0)
(0.0008469 1.024e-05 0)
(0.0008454 1.007e-05 0)
(0.0008439 1.002e-05 0)
(0.001205 8.411e-05 0)
(0.001221 0.0002178 0)
(0.001245 0.0003136 0)
(0.00127 0.0003736 0)
(0.001291 0.0004044 0)
(0.001305 0.000413 0)
(0.001311 0.0004058 0)
(0.001311 0.0003881 0)
(0.001306 0.0003639 0)
(0.001296 0.0003361 0)
(0.001283 0.0003066 0)
(0.001268 0.0002768 0)
(0.001252 0.0002475 0)
(0.001236 0.0002193 0)
(0.001221 0.0001923 0)
(0.001206 0.0001668 0)
(0.001193 0.0001425 0)
(0.001182 0.0001196 0)
(0.001172 9.784e-05 0)
(0.001164 7.708e-05 0)
(0.001159 5.718e-05 0)
(0.001155 3.798e-05 0)
(0.001154 1.932e-05 0)
(0.001155 1.05e-06 0)
(0.001158 -1.699e-05 0)
(0.001163 -3.495e-05 0)
(0.001171 -5.296e-05 0)
(0.001182 -7.115e-05 0)
(0.001195 -8.963e-05 0)
(0.001211 -0.0001085 0)
(0.001229 -0.0001279 0)
(0.00125 -0.0001479 0)
(0.001275 -0.0001685 0)
(0.001302 -0.0001898 0)
(0.001332 -0.0002118 0)
(0.001366 -0.0002346 0)
(0.001403 -0.000258 0)
(0.001443 -0.000282 0)
(0.001487 -0.0003064 0)
(0.001535 -0.0003313 0)
(0.001586 -0.0003563 0)
(0.001641 -0.0003811 0)
(0.001699 -0.0004056 0)
(0.00176 -0.0004293 0)
(0.001825 -0.0004518 0)
(0.001893 -0.0004726 0)
(0.001964 -0.0004912 0)
(0.002037 -0.0005071 0)
(0.002113 -0.0005195 0)
(0.002189 -0.0005281 0)
(0.002267 -0.000532 0)
(0.002344 -0.0005308 0)
(0.002421 -0.000524 0)
(0.002496 -0.0005111 0)
(0.002569 -0.0004917 0)
(0.002639 -0.0004657 0)
(0.002704 -0.0004328 0)
(0.002765 -0.0003931 0)
(0.002819 -0.0003467 0)
(0.002866 -0.0002939 0)
(0.002905 -0.0002353 0)
(0.002935 -0.0001716 0)
(0.002955 -0.0001041 0)
(0.002966 -3.431e-05 0)
(0.002966 3.615e-05 0)
(0.002955 0.0001055 0)
(0.002935 0.0001722 0)
(0.002905 0.0002348 0)
(0.002867 0.0002922 0)
(0.002821 0.0003437 0)
(0.002768 0.000389 0)
(0.002709 0.0004277 0)
(0.002645 0.0004598 0)
(0.002576 0.0004854 0)
(0.002505 0.0005046 0)
(0.002431 0.0005178 0)
(0.002355 0.0005252 0)
(0.002278 0.0005273 0)
(0.002201 0.0005245 0)
(0.002125 0.0005174 0)
(0.00205 0.0005065 0)
(0.001976 0.0004924 0)
(0.001905 0.0004756 0)
(0.001836 0.0004567 0)
(0.00177 0.0004362 0)