/*--------------------------------*- C++ -*----------------------------------*\
  =========                 |
  \\      /  F ield         | OpenFOAM: The Open Source CFD Toolbox
   \\    /   O peration     | Website:  https://openfoam.org
    \\  /    A nd           | Version:  7
     \\/     M anipulation  |
\*---------------------------------------------------------------------------*/
FoamFile
{
    version     2.0;
    format      ascii;
    class       volScalarField;
    location    "119.999473411421";
    object      Y.K;
}
// * * * * * * * * * * * * * * * * * * * * * * * * * * * * * * * * * * * * * //

dimensions      [0 0 0 0 0 0 0];

internalField   nonuniform List<scalar> 
4096
(
7.477e-67
-4.277e-68
9.685e-66
-5.819e-66
-7.843e-67
1.688e-66
-8.704e-67
-4.127e-67
-1.951e-66
1.749e-65
-2.563e-64
4.287e-63
-5.946e-62
8.431e-61
-1.08e-59
1.332e-58
-1.548e-57
1.747e-56
-1.883e-55
1.983e-54
-1.98e-53
1.928e-52
-1.827e-51
1.651e-50
-1.376e-49
1.095e-48
-8.57e-48
6.644e-47
-4.976e-46
3.606e-45
-2.517e-44
1.684e-43
-1.064e-42
6.397e-42
-3.611e-41
1.906e-40
-8.942e-40
3.402e-39
-5.166e-39
-1.094e-37
1.631e-36
-1.764e-35
1.544e-34
-1.177e-33
7.889e-33
-4.741e-32
2.415e-31
-1.063e-30
4.26e-30
-9.017e-30
1.926e-29
3.726e-28
-9.174e-28
2.299e-26
-7.517e-27
7.058e-25
2.296e-24
1.921e-23
1.049e-22
8.343e-22
2.839e-21
1.061e-20
1.276e-19
1.686e-18
5.285e-18
1.237e-17
2.578e-17
5.045e-17
9.453e-17
1.711e-16
3.003e-16
5.128e-16
8.532e-16
1.385e-15
2.197e-15
3.409e-15
5.179e-15
7.711e-15
1.126e-14
1.616e-14
2.278e-14
3.16e-14
4.316e-14
5.809e-14
7.713e-14
1.011e-13
1.309e-13
1.677e-13
2.124e-13
2.665e-13
3.313e-13
4.084e-13
4.994e-13
6.061e-13
7.305e-13
8.749e-13
1.041e-12
1.233e-12
1.452e-12
1.702e-12
1.986e-12
2.308e-12
2.671e-12
3.081e-12
3.541e-12
4.056e-12
4.633e-12
5.277e-12
5.995e-12
6.793e-12
7.679e-12
8.661e-12
9.748e-12
1.095e-11
1.227e-11
1.374e-11
1.534e-11
1.711e-11
1.905e-11
2.117e-11
2.35e-11
2.604e-11
2.88e-11
3.179e-11
3.498e-11
3.83e-11
4.15e-11
4.398e-11
1.757e-65
-1e-64
1.153e-64
-1.643e-65
-8.194e-65
7.071e-65
-5.526e-66
-2.322e-65
-1.201e-64
9.704e-64
-1.491e-62
2.321e-61
-3.372e-60
4.589e-59
-5.888e-58
7.163e-57
-8.323e-56
9.286e-55
-9.995e-54
1.04e-52
-1.046e-51
1.016e-50
-9.485e-50
8.49e-49
-7.113e-48
5.669e-47
-4.449e-46
3.417e-45
-2.555e-44
1.85e-43
-1.29e-42
8.616e-42
-5.476e-41
3.292e-40
-1.86e-39
9.755e-39
-4.612e-38
1.818e-37
-3.425e-37
-4.06e-36
7.036e-35
-7.901e-34
6.753e-33
-5.15e-32
3.479e-31
-2.109e-30
1.073e-29
-4.743e-29
1.984e-28
-4.022e-28
1.198e-27
1.665e-26
-9.329e-27
9.949e-25
8.55e-25
3.207e-23
1.236e-22
8.872e-22
4.54e-21
3.195e-20
1.081e-19
3.327e-19
1.93e-18
5.757e-18
1.34e-17
2.814e-17
5.552e-17
1.046e-16
1.899e-16
3.332e-16
5.669e-16
9.376e-16
1.51e-15
2.372e-15
3.64e-15
5.464e-15
8.036e-15
1.159e-14
1.642e-14
2.288e-14
3.138e-14
4.24e-14
5.652e-14
7.437e-14
9.67e-14
1.243e-13
1.582e-13
1.994e-13
2.49e-13
3.083e-13
3.788e-13
4.62e-13
5.596e-13
6.735e-13
8.057e-13
9.584e-13
1.134e-12
1.335e-12
1.565e-12
1.827e-12
2.124e-12
2.459e-12
2.838e-12
3.264e-12
3.742e-12
4.278e-12
4.877e-12
5.545e-12
6.289e-12
7.116e-12
8.033e-12
9.05e-12
1.018e-11
1.142e-11
1.279e-11
1.43e-11
1.596e-11
1.779e-11
1.979e-11
2.198e-11
2.439e-11
2.701e-11
2.987e-11
3.297e-11
3.632e-11
3.988e-11
4.354e-11
4.693e-11
-4.058e-64
2.826e-63
-7.097e-63
9.503e-63
-6.574e-63
1.067e-63
1.617e-63
-8.31e-64
-7.221e-63
5.196e-62
-7.874e-61
1.221e-59
-1.762e-58
2.379e-57
-3.023e-56
3.641e-55
-4.188e-54
4.63e-53
-4.939e-52
5.097e-51
-5.09e-50
4.911e-49
-4.558e-48
4.057e-47
-3.389e-46
2.707e-45
-2.127e-44
1.636e-43
-1.224e-42
8.876e-42
-6.196e-41
4.142e-40
-2.636e-39
1.587e-38
-8.989e-38
4.742e-37
-2.284e-36
9.516e-36
-2.607e-35
-7.97e-35
2.319e-33
-2.854e-32
2.508e-31
-1.943e-30
1.346e-29
-8.371e-29
4.286e-28
-1.925e-27
8.582e-27
-1.57e-26
7.101e-26
6.314e-25
1.451e-24
3.958e-23
9.998e-23
1.49e-21
6.455e-21
4.138e-20
1.852e-19
1.006e-18
3.212e-18
8.107e-18
1.857e-17
3.991e-17
8.145e-17
1.588e-16
2.967e-16
5.33e-16
9.231e-16
1.544e-15
2.5e-15
3.927e-15
5.994e-15
8.91e-15
1.292e-14
1.832e-14
2.542e-14
3.46e-14
4.627e-14
6.088e-14
7.893e-14
1.01e-13
1.276e-13
1.596e-13
1.976e-13
2.425e-13
2.954e-13
3.572e-13
4.292e-13
5.128e-13
6.095e-13
7.21e-13
8.491e-13
9.959e-13
1.164e-12
1.355e-12
1.572e-12
1.819e-12
2.099e-12
2.414e-12
2.769e-12
3.169e-12
3.618e-12
4.121e-12
4.683e-12
5.311e-12
6.01e-12
6.788e-12
7.653e-12
8.612e-12
9.674e-12
1.085e-11
1.215e-11
1.358e-11
1.515e-11
1.689e-11
1.879e-11
2.088e-11
2.317e-11
2.567e-11
2.841e-11
3.139e-11
3.465e-11
3.818e-11
4.201e-11
4.614e-11
5.058e-11
5.542e-11
6.665e-63
-5.298e-62
1.866e-61
-4.023e-61
5.61e-61
-5.059e-61
2.653e-61
-5.405e-62
-3.896e-61
2.639e-60
-3.915e-59
6.012e-58
-8.566e-57
1.14e-55
-1.426e-54
1.69e-53
-1.915e-52
2.086e-51
-2.197e-50
2.24e-49
-2.214e-48
2.118e-47
-1.952e-46
1.728e-45
-1.441e-44
1.154e-43
-9.1e-43
7.019e-42
-5.271e-41
3.833e-40
-2.685e-39
1.801e-38
-1.151e-37
6.967e-37
-3.97e-36
2.116e-35
-1.045e-34
4.601e-34
-1.739e-33
2.373e-33
4.25e-32
-7.287e-31
7.166e-30
-5.72e-29
4.22e-28
-2.765e-27
1.439e-26
-6.605e-26
3.239e-25
-3.965e-25
3.841e-24
2.193e-23
1.578e-22
1.43e-21
7.605e-21
6.367e-20
2.833e-19
1.47e-18
4.994e-18
1.357e-17
3.336e-17
7.67e-17
1.667e-16
3.442e-16
6.77e-16
1.271e-15
2.283e-15
3.932e-15
6.508e-15
1.038e-14
1.597e-14
2.38e-14
3.439e-14
4.832e-14
6.615e-14
8.843e-14
1.157e-13
1.483e-13
1.869e-13
2.317e-13
2.833e-13
3.421e-13
4.085e-13
4.833e-13
5.672e-13
6.611e-13
7.66e-13
8.832e-13
1.014e-12
1.16e-12
1.324e-12
1.507e-12
1.711e-12
1.94e-12
2.197e-12
2.484e-12
2.805e-12
3.164e-12
3.566e-12
4.016e-12
4.517e-12
5.076e-12
5.7e-12
6.393e-12
7.165e-12
8.021e-12
8.971e-12
1.002e-11
1.119e-11
1.248e-11
1.39e-11
1.546e-11
1.719e-11
1.908e-11
2.116e-11
2.345e-11
2.595e-11
2.869e-11
3.168e-11
3.495e-11
3.851e-11
4.238e-11
4.659e-11
5.115e-11
5.609e-11
6.142e-11
6.723e-11
7.435e-11
-9.469e-62
8.178e-61
-3.567e-60
1.03e-59
-2.068e-59
2.951e-59
-2.936e-59
1.84e-59
-2.347e-59
1.281e-58
-1.835e-57
2.761e-56
-3.847e-55
4.993e-54
-6.09e-53
7.042e-52
-7.795e-51
8.315e-50
-8.59e-49
8.616e-48
-8.397e-47
7.939e-46
-7.256e-45
6.386e-44
-5.321e-43
4.286e-42
-3.396e-41
2.633e-40
-1.989e-39
1.455e-38
-1.026e-37
6.935e-37
-4.468e-36
2.729e-35
-1.571e-34
8.484e-34
-4.289e-33
2e-32
-8.423e-32
3.186e-31
-3.661e-31
-4.567e-30
8.867e-29
-1.069e-27
9.47e-27
-6.863e-26
3.797e-25
-1.76e-24
9.804e-24
3.171e-24
1.877e-22
1.285e-21
9.701e-21
7.167e-20
3.971e-19
2.172e-18
7.977e-18
2.375e-17
6.405e-17
1.611e-16
3.814e-16
8.521e-16
1.801e-15
3.61e-15
6.867e-15
1.242e-14
2.142e-14
3.528e-14
5.568e-14
8.441e-14
1.232e-13
1.737e-13
2.371e-13
3.143e-13
4.054e-13
5.102e-13
6.28e-13
7.578e-13
8.986e-13
1.049e-12
1.209e-12
1.377e-12
1.554e-12
1.74e-12
1.936e-12
2.143e-12
2.363e-12
2.598e-12
2.851e-12
3.125e-12
3.422e-12
3.746e-12
4.102e-12
4.493e-12
4.925e-12
5.402e-12
5.93e-12
6.515e-12
7.164e-12
7.884e-12
8.682e-12
9.566e-12
1.055e-11
1.163e-11
1.283e-11
1.416e-11
1.562e-11
1.724e-11
1.902e-11
2.098e-11
2.314e-11
2.551e-11
2.812e-11
3.097e-11
3.409e-11
3.751e-11
4.124e-11
4.531e-11
4.974e-11
5.456e-11
5.98e-11
6.547e-11
7.162e-11
7.826e-11
8.543e-11
9.315e-11
1.015e-10
1.126e-10
1.237e-60
-1.128e-59
5.711e-59
-2.033e-58
5.278e-58
-1.021e-57
1.455e-57
-1.415e-57
-2.942e-58
6.199e-57
-8.074e-56
1.172e-54
-1.573e-53
1.963e-52
-2.303e-51
2.566e-50
-2.746e-49
2.842e-48
-2.859e-47
2.803e-46
-2.681e-45
2.498e-44
-2.26e-43
1.977e-42
-1.65e-41
1.34e-40
-1.07e-39
8.371e-39
-6.38e-38
4.715e-37
-3.363e-36
2.302e-35
-1.503e-34
9.318e-34
-5.451e-33
2.993e-32
-1.544e-31
7.4e-31
-3.355e-30
1.463e-29
-5.849e-29
3.43e-28
-1.126e-27
-2.926e-27
6.483e-26
-5.215e-25
4.095e-24
-1.666e-23
2.057e-22
1.146e-21
1.033e-20
7.309e-20
4.702e-19
2.821e-18
1.148e-17
3.825e-17
1.157e-16
3.254e-16
8.567e-16
2.117e-15
4.917e-15
1.074e-14
2.212e-14
4.296e-14
7.887e-14
1.371e-13
2.263e-13
3.557e-13
5.339e-13
7.675e-13
1.06e-12
1.411e-12
1.816e-12
2.266e-12
2.75e-12
3.252e-12
3.762e-12
4.266e-12
4.755e-12
5.223e-12
5.668e-12
6.091e-12
6.493e-12
6.881e-12
7.258e-12
7.633e-12
8.013e-12
8.406e-12
8.82e-12
9.262e-12
9.742e-12
1.027e-11
1.084e-11
1.148e-11
1.219e-11
1.298e-11
1.386e-11
1.484e-11
1.592e-11
1.713e-11
1.847e-11
1.996e-11
2.161e-11
2.343e-11
2.544e-11
2.767e-11
3.012e-11
3.282e-11
3.579e-11
3.905e-11
4.263e-11
4.656e-11
5.085e-11
5.555e-11
6.068e-11
6.627e-11
7.237e-11
7.899e-11
8.619e-11
9.399e-11
1.024e-10
1.116e-10
1.214e-10
1.32e-10
1.434e-10
1.557e-10
1.688e-10
1.871e-10
-1.527e-59
1.443e-58
-8.152e-58
3.406e-57
-1.081e-56
2.649e-56
-4.978e-56
6.784e-56
-7.078e-56
2.158e-55
-3.159e-54
4.487e-53
-5.696e-52
6.7e-51
-7.426e-50
7.844e-49
-8.01e-48
7.956e-47
-7.725e-46
7.352e-45
-6.864e-44
6.281e-43
-5.617e-42
4.89e-41
-4.102e-40
3.371e-39
-2.726e-38
2.161e-37
-1.671e-36
1.255e-35
-9.11e-35
6.361e-34
-4.249e-33
2.7e-32
-1.622e-31
9.15e-31
-4.848e-30
2.347e-29
-1.063e-28
4.576e-28
-1.927e-27
1.409e-26
-8.187e-26
2.127e-25
-8.482e-25
9.489e-24
1.157e-23
5.346e-22
7.511e-21
5.439e-20
4.308e-19
2.936e-18
1.35e-17
5.135e-17
1.776e-16
5.697e-16
1.704e-15
4.754e-15
1.239e-14
3.019e-14
6.879e-14
1.468e-13
2.935e-13
5.512e-13
9.736e-13
1.622e-12
2.556e-12
3.823e-12
5.444e-12
7.406e-12
9.658e-12
1.212e-11
1.468e-11
1.722e-11
1.963e-11
2.179e-11
2.367e-11
2.52e-11
2.639e-11
2.728e-11
2.79e-11
2.829e-11
2.851e-11
2.861e-11
2.863e-11
2.862e-11
2.864e-11
2.868e-11
2.88e-11
2.901e-11
2.933e-11
2.978e-11
3.037e-11
3.111e-11
3.203e-11
3.313e-11
3.442e-11
3.593e-11
3.765e-11
3.962e-11
4.186e-11
4.437e-11
4.718e-11
5.033e-11
5.382e-11
5.769e-11
6.197e-11
6.67e-11
7.19e-11
7.761e-11
8.388e-11
9.075e-11
9.826e-11
1.065e-10
1.154e-10
1.251e-10
1.357e-10
1.471e-10
1.596e-10
1.73e-10
1.875e-10
2.032e-10
2.2e-10
2.38e-10
2.574e-10
2.781e-10
3.001e-10
3.317e-10
1.801e-58
-1.742e-57
1.069e-56
-5.078e-56
1.9e-55
-5.677e-55
1.344e-54
-2.372e-54
1.437e-54
1.033e-53
-1.256e-52
1.513e-51
-1.738e-50
1.871e-49
-1.911e-48
1.875e-47
-1.8e-46
1.695e-45
-1.573e-44
1.442e-43
-1.307e-42
1.17e-41
-1.034e-40
8.966e-40
-7.604e-39
6.363e-38
-5.244e-37
4.246e-36
-3.36e-35
2.589e-34
-1.935e-33
1.396e-32
-9.677e-32
6.414e-31
-4.045e-30
2.408e-29
-1.356e-28
6.822e-28
-3.166e-27
1.306e-26
-4.943e-26
2.522e-25
-9.867e-25
-2.511e-25
1.091e-23
1.034e-22
6.195e-22
3.733e-20
2.924e-19
2.256e-18
1.197e-17
5.291e-17
2.129e-16
7.936e-16
2.746e-15
8.822e-15
2.633e-14
7.301e-14
1.882e-13
4.509e-13
1.006e-12
2.089e-12
4.048e-12
7.326e-12
1.241e-11
1.976e-11
2.965e-11
4.209e-11
5.67e-11
7.286e-11
8.955e-11
1.058e-10
1.204e-10
1.327e-10
1.418e-10
1.475e-10
1.508e-10
1.503e-10
1.482e-10
1.445e-10
1.394e-10
1.336e-10
1.275e-10
1.213e-10
1.153e-10
1.098e-10
1.048e-10
1.004e-10
9.66e-11
9.347e-11
9.098e-11
8.911e-11
8.787e-11
8.711e-11
8.72e-11
8.77e-11
8.874e-11
9.036e-11
9.257e-11
9.537e-11
9.876e-11
1.028e-10
1.074e-10
1.128e-10
1.188e-10
1.256e-10
1.332e-10
1.416e-10
1.51e-10
1.613e-10
1.726e-10
1.85e-10
1.986e-10
2.134e-10
2.296e-10
2.471e-10
2.662e-10
2.869e-10
3.092e-10
3.333e-10
3.593e-10
3.872e-10
4.172e-10
4.493e-10
4.837e-10
5.203e-10
5.589e-10
6.155e-10
-2.026e-57
1.99e-56
-1.302e-55
6.873e-55
-2.961e-54
1.053e-53
-3.08e-53
7.217e-53
-1.32e-52
3.421e-52
-3.203e-51
3.898e-50
-4.03e-49
3.812e-48
-3.475e-47
3.084e-46
-2.75e-45
2.43e-44
-2.133e-43
1.863e-42
-1.622e-41
1.411e-40
-1.225e-39
1.058e-38
-9.148e-38
7.871e-37
-6.681e-36
5.616e-35
-4.631e-34
3.728e-33
-2.924e-32
2.226e-31
-1.64e-30
1.164e-29
-7.945e-29
5.181e-28
-3.244e-27
1.816e-26
-9.702e-26
4.677e-25
-2.087e-24
1e-23
-1.834e-23
-2.486e-23
6.038e-22
-5.131e-22
1.116e-19
1.187e-18
7.462e-18
3.902e-17
1.856e-16
8.157e-16
3.318e-15
1.249e-14
4.346e-14
1.398e-13
4.158e-13
1.143e-12
2.906e-12
6.832e-12
1.487e-11
2.999e-11
5.611e-11
9.756e-11
1.581e-10
2.397e-10
3.413e-10
4.586e-10
5.83e-10
7.067e-10
8.169e-10
9.079e-10
9.672e-10
1.003e-09
9.987e-10
9.777e-10
9.386e-10
8.849e-10
8.223e-10
7.556e-10
6.889e-10
6.248e-10
5.652e-10
5.11e-10
4.628e-10
4.205e-10
3.839e-10
3.525e-10
3.259e-10
3.036e-10
2.851e-10
2.699e-10
2.578e-10
2.483e-10
2.412e-10
2.363e-10
2.333e-10
2.323e-10
2.331e-10
2.352e-10
2.39e-10
2.444e-10
2.513e-10
2.598e-10
2.698e-10
2.815e-10
2.948e-10
3.099e-10
3.267e-10
3.455e-10
3.662e-10
3.891e-10
4.142e-10
4.416e-10
4.715e-10
5.041e-10
5.394e-10
5.777e-10
6.19e-10
6.636e-10
7.115e-10
7.629e-10
8.18e-10
8.769e-10
9.397e-10
1.007e-09
1.076e-09
1.181e-09
2.149e-56
-2.128e-55
1.466e-54
-8.458e-54
4.121e-53
-1.711e-52
6.028e-52
-1.726e-51
3.25e-51
5.649e-51
-9.313e-50
7.859e-49
-5.758e-48
4.356e-47
-3.454e-46
2.777e-45
-2.402e-44
2.023e-43
-1.66e-42
1.331e-41
-1.049e-40
8.347e-40
-6.684e-39
5.5e-38
-4.631e-37
4.024e-36
-3.453e-35
3.045e-34
-2.653e-33
2.233e-32
-1.826e-31
1.448e-30
-1.113e-29
8.236e-29
-5.897e-28
4.049e-27
-2.672e-26
1.666e-25
-1.013e-24
5.765e-24
-3.219e-23
1.692e-22
-8.31e-22
4.78e-21
-1.238e-21
2.454e-19
2.809e-18
1.919e-17
1.105e-16
5.8e-16
2.81e-15
1.257e-14
5.18e-14
1.967e-13
6.871e-13
2.208e-12
6.525e-12
1.773e-11
4.433e-11
1.02e-10
2.159e-10
4.212e-10
7.583e-10
1.262e-09
1.947e-09
2.802e-09
3.776e-09
4.79e-09
5.732e-09
6.56e-09
7.103e-09
7.42e-09
7.364e-09
7.145e-09
6.75e-09
6.222e-09
5.619e-09
4.992e-09
4.378e-09
3.805e-09
3.286e-09
2.829e-09
2.434e-09
2.098e-09
1.815e-09
1.579e-09
1.383e-09
1.221e-09
1.087e-09
9.78e-10
8.884e-10
8.153e-10
7.561e-10
7.085e-10
6.706e-10
6.411e-10
6.188e-10
6.027e-10
5.925e-10
5.861e-10
5.867e-10
5.9e-10
5.974e-10
6.087e-10
6.238e-10
6.427e-10
6.653e-10
6.916e-10
7.218e-10
7.56e-10
7.942e-10
8.366e-10
8.834e-10
9.349e-10
9.912e-10
1.052e-09
1.119e-09
1.191e-09
1.269e-09
1.353e-09
1.443e-09
1.54e-09
1.644e-09
1.754e-09
1.871e-09
1.996e-09
2.126e-09
2.322e-09
-2.102e-55
2.087e-54
-1.498e-53
9.324e-53
-5.072e-52
2.437e-51
-1.042e-50
3.963e-50
-1.318e-49
3.588e-49
-6.136e-49
-3.968e-49
3.268e-48
1.281e-46
-2.604e-45
2.981e-44
-2.922e-43
2.523e-42
-1.959e-41
1.377e-40
-8.645e-40
4.681e-39
-1.825e-38
3.669e-39
9.331e-37
-1.057e-35
1.107e-34
-8.98e-34
6.865e-33
-5.185e-32
3.69e-31
-2.485e-30
1.559e-29
-9.859e-29
5.06e-28
-2.57e-27
9.496e-27
-1.553e-26
-1.219e-25
2.381e-24
-2.101e-23
1.649e-22
-4.68e-22
4.6e-20
5.208e-19
5.754e-18
4.267e-17
2.708e-16
1.575e-15
8.452e-15
4.176e-14
1.897e-13
7.907e-13
3.02e-12
1.056e-11
3.38e-11
9.895e-11
2.65e-10
6.492e-10
1.455e-09
2.985e-09
5.612e-09
9.681e-09
1.535e-08
2.248e-08
3.059e-08
3.889e-08
4.646e-08
5.229e-08
5.671e-08
5.667e-08
5.532e-08
5.223e-08
4.774e-08
4.245e-08
3.687e-08
3.143e-08
2.639e-08
2.193e-08
1.808e-08
1.485e-08
1.218e-08
1.001e-08
8.254e-09
6.848e-09
5.724e-09
4.827e-09
4.112e-09
3.542e-09
3.085e-09
2.72e-09
2.426e-09
2.191e-09
2.002e-09
1.851e-09
1.731e-09
1.637e-09
1.564e-09
1.509e-09
1.47e-09
1.445e-09
1.429e-09
1.431e-09
1.439e-09
1.456e-09
1.483e-09
1.519e-09
1.563e-09
1.616e-09
1.677e-09
1.747e-09
1.825e-09
1.913e-09
2.01e-09
2.117e-09
2.234e-09
2.361e-09
2.498e-09
2.647e-09
2.808e-09
2.98e-09
3.165e-09
3.362e-09
3.573e-09
3.796e-09
4.033e-09
4.277e-09
4.651e-09
1.822e-54
-1.803e-53
1.335e-52
-8.854e-52
5.281e-51
-2.858e-50
1.415e-49
-6.453e-49
2.712e-48
-1.024e-47
3.001e-47
2.385e-47
-1.178e-45
1.537e-44
-1.56e-43
1.405e-42
-1.171e-41
9.196e-41
-6.855e-40
4.869e-39
-3.297e-38
2.122e-37
-1.29e-36
7.303e-36
-3.67e-35
2.273e-34
-7.993e-34
3.384e-33
-8.344e-33
-8.101e-32
1.441e-30
-1.535e-29
1.371e-28
-1.108e-27
8.342e-27
-5.932e-26
4.012e-25
-2.578e-24
1.608e-23
-8.906e-23
5.116e-22
-2.017e-21
8.12e-20
1.203e-18
1.059e-17
8.023e-17
5.599e-16
3.617e-15
2.157e-14
1.183e-13
5.949e-13
2.737e-12
1.15e-11
4.402e-11
1.535e-10
4.875e-10
1.409e-09
3.701e-09
8.845e-09
1.923e-08
3.805e-08
6.858e-08
1.128e-07
1.697e-07
2.348e-07
3.012e-07
3.606e-07
4.046e-07
4.314e-07
4.269e-07
4.088e-07
3.767e-07
3.349e-07
2.886e-07
2.424e-07
1.992e-07
1.609e-07
1.283e-07
1.014e-07
7.976e-08
6.258e-08
4.915e-08
3.874e-08
3.071e-08
2.454e-08
1.98e-08
1.615e-08
1.333e-08
1.114e-08
9.434e-09
8.099e-09
7.047e-09
6.216e-09
5.557e-09
5.032e-09
4.615e-09
4.284e-09
4.024e-09
3.82e-09
3.665e-09
3.551e-09
3.471e-09
3.423e-09
3.402e-09
3.41e-09
3.436e-09
3.484e-09
3.553e-09
3.64e-09
3.747e-09
3.873e-09
4.018e-09
4.182e-09
4.366e-09
4.568e-09
4.792e-09
5.035e-09
5.301e-09
5.588e-09
5.897e-09
6.23e-09
6.586e-09
6.967e-09
7.372e-09
7.802e-09
8.259e-09
8.725e-09
9.446e-09
-1.335e-53
1.308e-52
-9.911e-52
6.944e-51
-4.498e-50
2.704e-49
-1.519e-48
8.07e-48
-4.167e-47
2.195e-46
-1.284e-45
8.165e-45
-5.966e-44
4.773e-43
-3.828e-42
3.008e-41
-2.293e-40
1.692e-39
-1.208e-38
8.36e-38
-5.612e-37
3.657e-36
-2.316e-35
1.428e-34
-8.712e-34
5.374e-33
-3.355e-32
2.147e-31
-1.378e-30
8.692e-30
-5.497e-29
3.475e-28
-2.188e-27
1.367e-26
-8.426e-26
5.105e-25
-3.023e-24
1.754e-23
-9.535e-23
6.144e-22
-2.639e-21
9.238e-20
1.504e-18
1.454e-17
1.225e-16
9.52e-16
6.851e-15
4.55e-14
2.777e-13
1.552e-12
7.917e-12
3.675e-11
1.549e-10
5.92e-10
2.049e-09
6.422e-09
1.82e-08
4.665e-08
1.081e-07
2.265e-07
4.296e-07
7.384e-07
1.152e-06
1.636e-06
2.132e-06
2.574e-06
2.9e-06
3.066e-06
3.014e-06
2.849e-06
2.58e-06
2.245e-06
1.888e-06
1.543e-06
1.23e-06
9.621e-07
7.411e-07
5.647e-07
4.272e-07
3.221e-07
2.428e-07
1.836e-07
1.396e-07
1.069e-07
8.273e-08
6.473e-08
5.129e-08
4.119e-08
3.356e-08
2.774e-08
2.328e-08
1.983e-08
1.714e-08
1.504e-08
1.338e-08
1.206e-08
1.102e-08
1.02e-08
9.552e-09
9.045e-09
8.656e-09
8.365e-09
8.157e-09
8.026e-09
7.946e-09
7.951e-09
7.994e-09
8.083e-09
8.218e-09
8.397e-09
8.619e-09
8.882e-09
9.185e-09
9.53e-09
9.916e-09
1.034e-08
1.081e-08
1.133e-08
1.188e-08
1.248e-08
1.313e-08
1.382e-08
1.456e-08
1.535e-08
1.618e-08
1.707e-08
1.797e-08
1.937e-08
7.304e-53
-7.002e-52
5.394e-51
-4.007e-50
2.84e-49
-1.9e-48
1.18e-47
-6.661e-47
3.262e-46
-1.223e-45
-1.374e-46
4.351e-44
-5.717e-43
5.591e-42
-4.764e-41
3.746e-40
-2.79e-39
1.995e-38
-1.378e-37
9.225e-37
-5.986e-36
3.755e-35
-2.26e-34
1.299e-33
-7.161e-33
3.758e-32
-1.83e-31
7.797e-31
-2.452e-30
1.954e-32
9.346e-29
-1.128e-27
1e-26
-7.723e-26
5.463e-25
-3.618e-24
2.271e-23
-1.346e-22
7.979e-22
-2.921e-21
8.282e-20
1.517e-18
1.621e-17
1.514e-16
1.308e-15
1.048e-14
7.756e-14
5.274e-13
3.282e-12
1.861e-11
9.584e-11
4.465e-10
1.878e-09
7.114e-09
2.426e-08
7.445e-08
2.053e-07
5.087e-07
1.133e-06
2.268e-06
4.093e-06
6.664e-06
9.819e-06
1.313e-05
1.608e-05
1.83e-05
1.943e-05
1.905e-05
1.789e-05
1.604e-05
1.379e-05
1.141e-05
9.148e-06
7.14e-06
5.451e-06
4.089e-06
3.026e-06
2.219e-06
1.619e-06
1.178e-06
8.593e-07
6.294e-07
4.643e-07
3.458e-07
2.604e-07
1.986e-07
1.537e-07
1.207e-07
9.624e-08
7.799e-08
6.423e-08
5.375e-08
4.57e-08
3.946e-08
3.459e-08
3.077e-08
2.775e-08
2.536e-08
2.347e-08
2.198e-08
2.082e-08
1.992e-08
1.925e-08
1.877e-08
1.846e-08
1.825e-08
1.825e-08
1.833e-08
1.851e-08
1.879e-08
1.916e-08
1.963e-08
2.019e-08
2.083e-08
2.156e-08
2.238e-08
2.329e-08
2.428e-08
2.536e-08
2.653e-08
2.779e-08
2.914e-08
3.059e-08
3.212e-08
3.375e-08
3.548e-08
3.722e-08
3.996e-08
-1.857e-52
1.335e-51
-9.815e-51
9.027e-50
-8.949e-49
8.633e-48
-7.832e-47
6.665e-46
-5.364e-45
4.122e-44
-3.054e-43
2.199e-42
-1.549e-41
1.073e-40
-7.335e-40
4.963e-39
-3.332e-38
2.222e-37
-1.473e-36
9.718e-36
-6.378e-35
4.163e-34
-2.701e-33
1.741e-32
-1.114e-31
7.07e-31
-4.441e-30
2.759e-29
-1.693e-28
1.025e-27
-6.111e-27
3.584e-26
-2.064e-25
1.165e-24
-6.436e-24
3.476e-23
-1.82e-22
9.575e-22
-4.295e-21
4.086e-20
1.17e-18
1.437e-17
1.493e-16
1.431e-15
1.274e-14
1.048e-13
7.939e-13
5.504e-12
3.474e-11
1.988e-10
1.026e-09
4.764e-09
1.982e-08
7.375e-08
2.452e-07
7.28e-07
1.929e-06
4.563e-06
9.639e-06
1.822e-05
3.1e-05
4.755e-05
6.595e-05
8.28e-05
9.581e-05
0.0001037
0.0001019
9.595e-05
8.605e-05
7.377e-05
6.077e-05
4.835e-05
3.735e-05
2.815e-05
2.079e-05
1.51e-05
1.084e-05
7.719e-06
5.473e-06
3.877e-06
2.755e-06
1.968e-06
1.418e-06
1.033e-06
7.615e-07
5.694e-07
4.323e-07
3.335e-07
2.616e-07
2.087e-07
1.694e-07
1.398e-07
1.173e-07
1e-07
8.668e-08
7.625e-08
6.806e-08
6.16e-08
5.648e-08
5.243e-08
4.924e-08
4.674e-08
4.482e-08
4.338e-08
4.236e-08
4.169e-08
4.126e-08
4.127e-08
4.145e-08
4.184e-08
4.244e-08
4.326e-08
4.426e-08
4.546e-08
4.684e-08
4.84e-08
5.014e-08
5.206e-08
5.416e-08
5.644e-08
5.891e-08
6.155e-08
6.438e-08
6.739e-08
7.057e-08
7.395e-08
7.736e-08
8.272e-08
-4.105e-51
3.992e-50
-3.126e-49
2.347e-48
-1.686e-47
1.163e-46
-7.741e-46
5.009e-45
-3.173e-44
1.982e-43
-1.229e-42
7.611e-42
-4.729e-41
2.955e-40
-1.86e-39
1.179e-38
-7.515e-38
4.817e-37
-3.102e-36
2.006e-35
-1.304e-34
8.516e-34
-5.608e-33
3.68e-32
-2.403e-31
1.56e-30
-1.005e-29
6.42e-29
-4.063e-28
2.543e-27
-1.573e-26
9.593e-26
-5.764e-25
3.407e-24
-1.977e-23
1.128e-22
-6.189e-22
3.707e-21
-1.565e-20
4.823e-19
9.684e-18
1.161e-16
1.232e-15
1.214e-14
1.108e-13
9.329e-13
7.195e-12
5.054e-11
3.216e-10
1.842e-09
9.459e-09
4.332e-08
1.763e-07
6.359e-07
2.03e-06
5.734e-06
1.435e-05
3.19e-05
6.284e-05
0.0001105
0.0001757
0.0002526
0.0003291
0.0003883
0.0004353
0.0004329
0.0004134
0.000375
0.0003248
0.0002701
0.0002164
0.0001679
0.0001267
9.347e-05
6.76e-05
4.813e-05
3.386e-05
2.363e-05
1.643e-05
1.143e-05
7.971e-06
5.596e-06
3.964e-06
2.841e-06
2.063e-06
1.521e-06
1.139e-06
8.675e-07
6.723e-07
5.303e-07
4.257e-07
3.478e-07
2.891e-07
2.444e-07
2.099e-07
1.832e-07
1.623e-07
1.458e-07
1.327e-07
1.224e-07
1.142e-07
1.077e-07
1.027e-07
9.883e-08
9.596e-08
9.394e-08
9.265e-08
9.19e-08
9.199e-08
9.246e-08
9.338e-08
9.475e-08
9.654e-08
9.874e-08
1.013e-07
1.043e-07
1.077e-07
1.114e-07
1.155e-07
1.199e-07
1.247e-07
1.299e-07
1.354e-07
1.413e-07
1.476e-07
1.542e-07
1.609e-07
1.714e-07
1.265e-50
-1.23e-49
9.674e-49
-7.329e-48
5.329e-47
-3.724e-46
2.502e-45
-1.62e-44
1.012e-43
-6.118e-43
3.588e-42
-2.049e-41
1.144e-40
-6.294e-40
3.444e-39
-1.901e-38
1.077e-37
-6.396e-37
4.035e-36
-2.711e-35
1.921e-34
-1.411e-33
1.059e-32
-7.762e-32
5.526e-31
-3.843e-30
2.618e-29
-1.75e-28
1.149e-27
-7.415e-27
4.707e-26
-2.939e-25
1.805e-24
-1.089e-23
6.466e-23
-3.747e-22
2.238e-21
-8.189e-21
2.501e-19
5.491e-18
7.148e-17
8.318e-16
9.023e-15
9.1e-14
8.483e-13
7.26e-12
5.666e-11
4.006e-10
2.548e-09
1.449e-08
7.323e-08
3.269e-07
1.283e-06
4.413e-06
1.327e-05
3.491e-05
8.094e-05
0.0001661
0.0002995
0.0004833
0.0007134
0.0009574
0.001168
0.00132
0.001383
0.001348
0.001252
0.001108
0.0009437
0.0007755
0.0006155
0.0004737
0.0003551
0.0002602
0.0001868
0.0001319
9.199e-05
6.36e-05
4.378e-05
3.012e-05
2.079e-05
1.445e-05
1.013e-05
7.19e-06
5.173e-06
3.779e-06
2.807e-06
2.121e-06
1.631e-06
1.277e-06
1.019e-06
8.27e-07
6.832e-07
5.742e-07
4.905e-07
4.258e-07
3.752e-07
3.354e-07
3.039e-07
2.79e-07
2.591e-07
2.434e-07
2.31e-07
2.214e-07
2.141e-07
2.088e-07
2.051e-07
2.029e-07
2.019e-07
2.023e-07
2.036e-07
2.059e-07
2.091e-07
2.131e-07
2.179e-07
2.236e-07
2.3e-07
2.372e-07
2.452e-07
2.539e-07
2.633e-07
2.734e-07
2.843e-07
2.958e-07
3.081e-07
3.211e-07
3.341e-07
3.547e-07
-4.129e-50
3.723e-49
-2.833e-48
2.176e-47
-1.669e-46
1.271e-45
-9.558e-45
7.07e-44
-5.132e-43
3.652e-42
-2.549e-41
1.746e-40
-1.177e-39
7.81e-39
-5.116e-38
3.314e-37
-2.125e-36
1.352e-35
-8.535e-35
5.354e-34
-3.339e-33
2.07e-32
-1.276e-31
7.81e-31
-4.745e-30
2.862e-29
-1.714e-28
1.018e-27
-6.007e-27
3.516e-26
-2.041e-25
1.175e-24
-6.704e-24
3.793e-23
-2.12e-22
1.207e-21
-5.302e-21
7.486e-20
2.365e-18
3.448e-17
4.396e-16
5.224e-15
5.791e-14
5.952e-13
5.633e-12
4.873e-11
3.824e-10
2.7e-09
1.703e-08
9.514e-08
4.676e-07
2.007e-06
7.481e-06
2.408e-05
6.675e-05
0.00016
0.0003376
0.0006294
0.001027
0.001507
0.002052
0.002574
0.002951
0.00319
0.003174
0.003054
0.002798
0.002461
0.002108
0.00175
0.001403
0.00109
0.0008244
0.0006089
0.0004399
0.0003119
0.0002179
0.0001507
0.0001036
7.112e-05
4.895e-05
3.39e-05
2.369e-05
1.675e-05
1.201e-05
8.741e-06
6.469e-06
4.872e-06
3.736e-06
2.917e-06
2.319e-06
1.878e-06
1.547e-06
1.297e-06
1.105e-06
9.567e-07
8.409e-07
7.498e-07
6.777e-07
6.204e-07
5.748e-07
5.385e-07
5.098e-07
4.873e-07
4.699e-07
4.569e-07
4.476e-07
4.417e-07
4.377e-07
4.379e-07
4.396e-07
4.432e-07
4.487e-07
4.561e-07
4.652e-07
4.759e-07
4.883e-07
5.022e-07
5.177e-07
5.346e-07
5.53e-07
5.728e-07
5.941e-07
6.168e-07
6.408e-07
6.662e-07
6.917e-07
7.321e-07
-1.321e-49
1.291e-48
-1.03e-47
7.99e-47
-6.001e-46
4.365e-45
-3.08e-44
2.112e-43
-1.41e-42
9.207e-42
-5.894e-41
3.713e-40
-2.312e-39
1.428e-38
-8.792e-38
5.412e-37
-3.343e-36
2.078e-35
-1.302e-34
8.239e-34
-5.263e-33
3.395e-32
-2.203e-31
1.423e-30
-9.107e-30
5.783e-29
-3.644e-28
2.279e-27
-1.415e-26
8.723e-26
-5.339e-25
3.245e-24
-1.958e-23
1.174e-22
-6.947e-22
4.285e-21
-1.609e-20
5.205e-19
1.266e-17
1.825e-16
2.367e-15
2.867e-14
3.233e-13
3.369e-12
3.22e-11
2.798e-10
2.192e-09
1.534e-08
9.504e-08
5.163e-07
2.438e-06
9.925e-06
3.455e-05
0.0001023
0.0002563
0.0005492
0.001041
0.001747
0.002605
0.003444
0.004285
0.005228
0.005614
0.005601
0.005472
0.005224
0.004801
0.004329
0.003809
0.003232
0.002637
0.002088
0.001612
0.001214
0.0008921
0.0006413
0.000453
0.000316
0.0002187
0.000151
0.0001044
7.25e-05
5.08e-05
3.599e-05
2.585e-05
1.884e-05
1.396e-05
1.053e-05
8.082e-06
6.317e-06
5.027e-06
4.072e-06
3.357e-06
2.815e-06
2.399e-06
2.077e-06
1.826e-06
1.627e-06
1.47e-06
1.345e-06
1.245e-06
1.165e-06
1.102e-06
1.052e-06
1.013e-06
9.838e-07
9.622e-07
9.476e-07
9.385e-07
9.354e-07
9.376e-07
9.434e-07
9.532e-07
9.668e-07
9.84e-07
1.005e-06
1.028e-06
1.055e-06
1.085e-06
1.118e-06
1.154e-06
1.193e-06
1.235e-06
1.279e-06
1.326e-06
1.376e-06
1.426e-06
1.505e-06
3.076e-49
-2.827e-48
2.174e-47
-1.671e-46
1.271e-45
-9.557e-45
7.077e-44
-5.155e-43
3.689e-42
-2.592e-41
1.79e-40
-1.215e-39
8.111e-39
-5.337e-38
3.464e-37
-2.222e-36
1.41e-35
-8.86e-35
5.522e-34
-3.416e-33
2.1e-32
-1.283e-31
7.794e-31
-4.7e-30
2.818e-29
-1.681e-28
9.986e-28
-5.907e-27
3.481e-26
-2.045e-25
1.198e-24
-7.004e-24
4.088e-23
-2.376e-22
1.421e-21
-6.416e-21
1.156e-19
3.807e-18
6.021e-17
8.457e-16
1.113e-14
1.369e-13
1.563e-12
1.644e-11
1.578e-10
1.37e-09
1.065e-08
7.332e-08
4.422e-07
2.312e-06
1.036e-05
3.946e-05
0.0001264
0.0003392
0.0007589
0.001441
0.002429
0.003665
0.005284
0.006173
0.006968
0.009907
0.01021
0.01017
0.01019
0.01018
0.009831
0.006926
0.005924
0.005081
0.004267
0.003465
0.002747
0.002119
0.00159
0.001164
0.0008359
0.0005917
0.000415
0.0002898
0.0002024
0.0001419
0.0001002
7.155e-05
5.173e-05
3.796e-05
2.829e-05
2.145e-05
1.655e-05
1.299e-05
1.038e-05
8.445e-06
6.987e-06
5.877e-06
5.024e-06
4.361e-06
3.841e-06
3.43e-06
3.104e-06
2.843e-06
2.634e-06
2.467e-06
2.334e-06
2.228e-06
2.146e-06
2.082e-06
2.036e-06
2.003e-06
1.983e-06
1.972e-06
1.975e-06
1.985e-06
2.003e-06
2.028e-06
2.061e-06
2.101e-06
2.147e-06
2.199e-06
2.258e-06
2.322e-06
2.393e-06
2.469e-06
2.55e-06
2.637e-06
2.729e-06
2.827e-06
2.924e-06
3.079e-06
5.877e-49
-5.725e-48
4.59e-47
-3.606e-46
2.76e-45
-2.056e-44
1.492e-43
-1.056e-42
7.299e-42
-4.939e-41
3.279e-40
-2.142e-39
1.38e-38
-8.796e-38
5.559e-37
-3.492e-36
2.186e-35
-1.366e-34
8.532e-34
-5.337e-33
3.347e-32
-2.107e-31
1.326e-30
-8.312e-30
5.182e-29
-3.216e-28
1.989e-27
-1.226e-26
7.544e-26
-4.634e-25
2.844e-24
-1.746e-23
1.073e-22
-6.567e-22
4.237e-21
-1.63e-20
5.789e-19
1.533e-17
2.404e-16
3.421e-15
4.563e-14
5.678e-13
6.542e-12
6.914e-11
6.64e-10
5.731e-09
4.394e-08
2.955e-07
1.722e-06
8.576e-06
3.609e-05
0.000127
0.00037
0.0008918
0.00178
0.003017
0.004454
0.006202
0.009825
0.01025
0.01026
0.01135
0.01112
0.01092
0.01067
0.01072
0.01418
0.01026
0.01022
0.009766
0.006752
0.00532
0.004263
0.003346
0.002555
0.001903
0.001391
0.001002
0.0007146
0.0005071
0.0003595
0.0002556
0.0001829
0.0001322
9.665e-05
7.166e-05
5.395e-05
4.128e-05
3.212e-05
2.543e-05
2.048e-05
1.677e-05
1.396e-05
1.182e-05
1.016e-05
8.858e-06
7.836e-06
7.025e-06
6.377e-06
5.859e-06
5.442e-06
5.108e-06
4.84e-06
4.627e-06
4.461e-06
4.332e-06
4.237e-06
4.169e-06
4.127e-06
4.103e-06
4.108e-06
4.126e-06
4.16e-06
4.209e-06
4.272e-06
4.349e-06
4.439e-06
4.542e-06
4.657e-06
4.783e-06
4.921e-06
5.07e-06
5.23e-06
5.4e-06
5.58e-06
5.77e-06
5.959e-06
6.261e-06
-9.664e-49
8.978e-48
-6.961e-47
5.375e-46
-4.1e-45
3.083e-44
-2.281e-43
1.658e-42
-1.185e-41
8.311e-41
-5.728e-40
3.882e-39
-2.588e-38
1.7e-37
-1.101e-36
7.047e-36
-4.459e-35
2.794e-34
-1.736e-33
1.071e-32
-6.561e-32
4.002e-31
-2.425e-30
1.461e-29
-8.772e-29
5.252e-28
-3.139e-27
1.876e-26
-1.121e-25
6.715e-25
-4.033e-24
2.433e-23
-1.471e-22
9.248e-22
-4.252e-21
9.55e-20
3.253e-18
5.523e-17
8.433e-16
1.212e-14
1.634e-13
2.051e-12
2.375e-11
2.515e-10
2.406e-09
2.056e-08
1.548e-07
1.012e-06
5.653e-06
2.66e-05
0.000104
0.0003345
0.0008783
0.001895
0.003442
0.005442
0.00682
0.01003
0.01138
0.0109
0.01035
0.009972
0.009969
0.009969
0.009969
0.009969
0.009977
0.01031
0.01064
0.01136
0.01008
0.007322
0.006
0.004859
0.003776
0.002854
0.002119
0.001554
0.001129
0.0008164
0.0005895
0.0004266
0.0003105
0.000228
0.0001693
0.0001273
9.718e-05
7.532e-05
5.932e-05
4.749e-05
3.865e-05
3.196e-05
2.686e-05
2.292e-05
1.985e-05
1.743e-05
1.552e-05
1.399e-05
1.277e-05
1.178e-05
1.099e-05
1.035e-05
9.836e-06
9.428e-06
9.107e-06
8.859e-06
8.676e-06
8.546e-06
8.467e-06
8.423e-06
8.433e-06
8.47e-06
8.538e-06
8.636e-06
8.762e-06
8.915e-06
9.093e-06
9.295e-06
9.521e-06
9.77e-06
1.004e-05
1.033e-05
1.064e-05
1.098e-05
1.133e-05
1.17e-05
1.206e-05
1.265e-05
-1.304e-48
1.269e-47
-1.022e-46
8.096e-46
-6.274e-45
4.751e-44
-3.514e-43
2.539e-42
-1.795e-41
1.243e-40
-8.44e-40
5.635e-39
-3.705e-38
2.405e-37
-1.545e-36
9.832e-36
-6.215e-35
3.91e-34
-2.452e-33
1.535e-32
-9.606e-32
6.023e-31
-3.771e-30
2.352e-29
-1.463e-28
9.077e-28
-5.63e-27
3.494e-26
-2.173e-25
1.356e-24
-8.507e-24
5.373e-23
-3.402e-22
2.295e-21
-8.915e-21
3.5e-19
9.995e-18
1.685e-16
2.597e-15
3.769e-14
5.123e-13
6.467e-12
7.513e-11
7.945e-10
7.556e-09
6.373e-08
4.695e-07
2.969e-06
1.583e-05
6.987e-05
0.0002515
0.0007328
0.001722
0.003316
0.005809
0.01006
0.01027
0.01141
0.009988
0.009969
0.009969
0.009969
0.009969
0.009969
0.009969
0.009969
0.009969
0.009969
0.009969
0.009989
0.01096
0.01029
0.009896
0.006929
0.005238
0.003975
0.002994
0.002236
0.001657
0.001222
0.0009007
0.0006652
0.0004938
0.0003696
0.0002795
0.000214
0.0001661
0.0001308
0.0001046
8.489e-05
7e-05
5.862e-05
4.982e-05
4.296e-05
3.757e-05
3.329e-05
2.988e-05
2.714e-05
2.493e-05
2.315e-05
2.17e-05
2.054e-05
1.96e-05
1.885e-05
1.827e-05
1.782e-05
1.749e-05
1.726e-05
1.712e-05
1.707e-05
1.71e-05
1.718e-05
1.733e-05