/*--------------------------------*- C++ -*----------------------------------*\
  =========                 |
  \\      /  F ield         | OpenFOAM: The Open Source CFD Toolbox
   \\    /   O peration     | Website:  https://openfoam.org
    \\  /    A nd           | Version:  7
     \\/     M anipulation  |
\*---------------------------------------------------------------------------*/
FoamFile
{
    version     2.0;
    format      ascii;
    class       volScalarField;
    location    "1379.99947341836969";
    object      p;
}
// * * * * * * * * * * * * * * * * * * * * * * * * * * * * * * * * * * * * * //

dimensions      [0 2 -2 0 0 0 0];

internalField   nonuniform List<scalar> 
4096
(
0.0006044
0.0004335
0.0003493
0.0003071
0.0002838
0.0002698
0.0002609
0.0002548
0.0002505
0.0002472
0.0002447
0.0002426
0.000241
0.0002396
0.0002384
0.0002374
0.0002366
0.0002358
0.000235
0.0002344
0.0002338
0.0002332
0.0002327
0.0002321
0.0002316
0.0002312
0.0002307
0.0002302
0.0002297
0.0002292
0.0002287
0.0002282
0.0002277
0.0002271
0.0002265
0.0002259
0.0002252
0.0002245
0.0002237
0.0002228
0.0002218
0.0002207
0.0002195
0.000218
0.0002165
0.0002147
0.0002126
0.0002104
0.0002078
0.0002049
0.0002017
0.0001982
0.0001942
0.0001899
0.0001851
0.00018
0.0001745
0.0001685
0.0001623
0.0001557
0.0001488
0.0001417
0.0001345
0.0001271
0.0001198
0.0001124
0.0001052
9.815e-05
9.131e-05
8.474e-05
7.846e-05
7.251e-05
6.691e-05
6.168e-05
5.681e-05
5.232e-05
4.818e-05
4.441e-05
4.097e-05
3.786e-05
3.505e-05
3.253e-05
3.027e-05
2.825e-05
2.645e-05
2.484e-05
2.341e-05
2.213e-05
2.098e-05
1.995e-05
1.903e-05
1.819e-05
1.742e-05
1.671e-05
1.606e-05
1.545e-05
1.487e-05
1.432e-05
1.38e-05
1.329e-05
1.28e-05
1.232e-05
1.185e-05
1.138e-05
1.091e-05
1.045e-05
9.991e-06
9.53e-06
9.069e-06
8.606e-06
8.141e-06
7.674e-06
7.205e-06
6.733e-06
6.258e-06
5.779e-06
5.298e-06
4.813e-06
4.325e-06
3.834e-06
3.34e-06
2.843e-06
2.346e-06
1.849e-06
1.357e-06
8.754e-07
4.194e-07
7.16e-08
0.0004599
0.0003962
0.0003464
0.0003144
0.0002934
0.0002792
0.0002691
0.0002618
0.0002563
0.0002521
0.0002488
0.0002461
0.0002439
0.0002421
0.0002405
0.0002392
0.0002381
0.000237
0.0002361
0.0002353
0.0002345
0.0002338
0.0002331
0.0002324
0.0002318
0.0002312
0.0002306
0.00023
0.0002294
0.0002288
0.0002282
0.0002275
0.0002269
0.0002262
0.0002255
0.0002247
0.0002239
0.0002231
0.0002221
0.0002211
0.00022
0.0002187
0.0002173
0.0002158
0.0002141
0.0002122
0.00021
0.0002076
0.000205
0.0002021
0.0001988
0.0001953
0.0001914
0.0001871
0.0001824
0.0001774
0.0001721
0.0001664
0.0001604
0.000154
0.0001475
0.0001407
0.0001338
0.0001269
0.0001199
0.0001129
0.000106
9.931e-05
9.278e-05
8.648e-05
8.046e-05
7.473e-05
6.931e-05
6.422e-05
5.947e-05
5.505e-05
5.097e-05
4.721e-05
4.376e-05
4.062e-05
3.776e-05
3.517e-05
3.282e-05
3.071e-05
2.88e-05
2.708e-05
2.553e-05
2.413e-05
2.286e-05
2.171e-05
2.067e-05
1.971e-05
1.883e-05
1.802e-05
1.726e-05
1.655e-05
1.588e-05
1.525e-05
1.464e-05
1.406e-05
1.35e-05
1.295e-05
1.242e-05
1.19e-05
1.138e-05
1.087e-05
1.037e-05
9.87e-06
9.373e-06
8.879e-06
8.385e-06
7.892e-06
7.4e-06
6.907e-06
6.413e-06
5.918e-06
5.423e-06
4.925e-06
4.427e-06
3.927e-06
3.427e-06
2.925e-06
2.425e-06
1.926e-06
1.432e-06
9.471e-07
4.79e-07
9.628e-08
0.0003765
0.0003548
0.0003294
0.0003086
0.0002931
0.0002814
0.0002724
0.0002653
0.0002598
0.0002553
0.0002517
0.0002487
0.0002462
0.0002441
0.0002423
0.0002407
0.0002394
0.0002381
0.000237
0.000236
0.0002351
0.0002342
0.0002334
0.0002327
0.0002319
0.0002312
0.0002305
0.0002298
0.0002291
0.0002283
0.0002276
0.0002269
0.0002261
0.0002253
0.0002245
0.0002236
0.0002227
0.0002217
0.0002206
0.0002195
0.0002182
0.0002168
0.0002153
0.0002137
0.0002119
0.0002098
0.0002076
0.0002052
0.0002025
0.0001995
0.0001962
0.0001927
0.0001888
0.0001846
0.0001801
0.0001752
0.00017
0.0001645
0.0001587
0.0001526
0.0001463
0.0001399
0.0001333
0.0001266
0.0001199
0.0001133
0.0001067
0.0001003
9.403e-05
8.799e-05
8.219e-05
7.666e-05
7.142e-05
6.647e-05
6.182e-05
5.749e-05
5.346e-05
4.973e-05
4.629e-05
4.313e-05
4.023e-05
3.759e-05
3.518e-05
3.298e-05
3.099e-05
2.917e-05
2.752e-05
2.601e-05
2.464e-05
2.339e-05
2.223e-05
2.117e-05
2.019e-05
1.928e-05
1.843e-05
1.763e-05
1.687e-05
1.616e-05
1.548e-05
1.482e-05
1.419e-05
1.358e-05
1.299e-05
1.241e-05
1.185e-05
1.13e-05
1.075e-05
1.021e-05
9.682e-06
9.156e-06
8.634e-06
8.115e-06
7.599e-06
7.085e-06
6.573e-06
6.062e-06
5.552e-06
5.042e-06
4.533e-06
4.023e-06
3.515e-06
3.007e-06
2.5e-06
1.995e-06
1.493e-06
9.976e-07
5.103e-07
1.002e-07
0.0003317
0.0003247
0.0003113
0.0002982
0.0002873
0.0002785
0.0002714
0.0002655
0.0002606
0.0002565
0.000253
0.0002501
0.0002475
0.0002454
0.0002434
0.0002418
0.0002403
0.0002389
0.0002377
0.0002366
0.0002356
0.0002346
0.0002337
0.0002328
0.000232
0.0002312
0.0002303
0.0002295
0.0002288
0.0002279
0.0002271
0.0002263
0.0002254
0.0002246
0.0002236
0.0002227
0.0002216
0.0002205
0.0002194
0.0002181
0.0002167
0.0002153
0.0002137
0.0002119
0.00021
0.0002079
0.0002056
0.0002031
0.0002004
0.0001974
0.0001941
0.0001906
0.0001868
0.0001826
0.0001782
0.0001734
0.0001684
0.000163
0.0001574
0.0001515
0.0001454
0.0001392
0.0001328
0.0001264
0.00012
0.0001135
0.0001072
0.000101
9.498e-05
8.914e-05
8.353e-05
7.817e-05
7.306e-05
6.824e-05
6.369e-05
5.944e-05
5.546e-05
5.176e-05
4.834e-05
4.518e-05
4.227e-05
3.959e-05
3.714e-05
3.489e-05
3.283e-05
3.095e-05
2.922e-05
2.764e-05
2.618e-05
2.484e-05
2.36e-05
2.246e-05
2.139e-05
2.04e-05
1.947e-05
1.859e-05
1.776e-05
1.698e-05
1.623e-05
1.551e-05
1.482e-05
1.416e-05
1.351e-05
1.289e-05
1.228e-05
1.169e-05
1.11e-05
1.053e-05
9.97e-06
9.415e-06
8.867e-06
8.325e-06
7.787e-06
7.254e-06
6.725e-06
6.198e-06
5.674e-06
5.152e-06
4.632e-06
4.113e-06
3.595e-06
3.079e-06
2.564e-06
2.051e-06
1.539e-06
1.03e-06
5.246e-07
9.698e-08
0.0003048
0.0003038
0.0002969
0.0002883
0.0002805
0.0002739
0.0002684
0.0002637
0.0002597
0.0002562
0.0002531
0.0002504
0.000248
0.0002459
0.000244
0.0002423
0.0002408
0.0002394
0.0002381
0.000237
0.0002359
0.0002348
0.0002338
0.0002329
0.000232
0.0002311
0.0002302
0.0002293
0.0002285
0.0002276
0.0002267
0.0002258
0.0002248
0.0002239
0.0002229
0.0002218
0.0002207
0.0002195
0.0002183
0.0002169
0.0002155
0.0002139
0.0002123
0.0002104
0.0002085
0.0002063
0.000204
0.0002015
0.0001987
0.0001957
0.0001925
0.000189
0.0001852
0.0001811
0.0001767
0.0001721
0.0001671
0.0001619
0.0001564
0.0001507
0.0001447
0.0001387
0.0001325
0.0001262
0.0001199
0.0001137
0.0001076
0.0001015
9.567e-05
9e-05
8.453e-05
7.93e-05
7.432e-05
6.96e-05
6.514e-05
6.095e-05
5.703e-05
5.337e-05
4.997e-05
4.682e-05
4.39e-05
4.121e-05
3.874e-05
3.645e-05
3.435e-05
3.242e-05
3.064e-05
2.899e-05
2.748e-05
2.607e-05
2.477e-05
2.356e-05
2.242e-05
2.136e-05
2.037e-05
1.943e-05
1.854e-05
1.769e-05
1.689e-05
1.612e-05
1.538e-05
1.467e-05
1.398e-05
1.332e-05
1.267e-05
1.204e-05
1.142e-05
1.082e-05
1.023e-05
9.649e-06
9.078e-06
8.515e-06
7.958e-06
7.408e-06
6.863e-06
6.322e-06
5.785e-06
5.252e-06
4.722e-06
4.194e-06
3.667e-06
3.143e-06
2.619e-06
2.097e-06
1.575e-06
1.054e-06
5.333e-07
9.329e-08
0.0002875
0.000289
0.0002856
0.00028
0.0002743
0.0002692
0.0002649
0.0002611
0.0002578
0.0002549
0.0002523
0.0002499
0.0002478
0.0002458
0.0002441
0.0002425
0.000241
0.0002396
0.0002383
0.0002371
0.000236
0.0002349
0.0002339
0.0002329
0.0002319
0.000231
0.0002301
0.0002291
0.0002282
0.0002273
0.0002263
0.0002253
0.0002243
0.0002233
0.0002222
0.0002211
0.0002199
0.0002187
0.0002174
0.000216
0.0002145
0.0002129
0.0002111
0.0002093
0.0002073
0.0002051
0.0002027
0.0002002
0.0001974
0.0001945
0.0001912
0.0001877
0.000184
0.00018
0.0001756
0.000171
0.0001662
0.000161
0.0001556
0.00015
0.0001442
0.0001382
0.0001322
0.000126
0.0001199
0.0001138
0.0001078
0.0001019
9.615e-05
9.059e-05
8.524e-05
8.012e-05
7.524e-05
7.06e-05
6.621e-05
6.208e-05
5.821e-05
5.459e-05
5.122e-05
4.808e-05
4.517e-05
4.248e-05
3.999e-05
3.769e-05
3.556e-05
3.36e-05
3.178e-05
3.01e-05
2.853e-05
2.708e-05
2.573e-05
2.446e-05
2.328e-05
2.217e-05
2.112e-05
2.013e-05
1.919e-05
1.83e-05
1.745e-05
1.664e-05
1.586e-05
1.511e-05
1.438e-05
1.368e-05
1.3e-05
1.234e-05
1.17e-05
1.107e-05
1.045e-05
9.853e-06
9.262e-06
8.68e-06
8.107e-06
7.542e-06
6.983e-06
6.43e-06
5.883e-06
5.339e-06
4.8e-06
4.263e-06
3.729e-06
3.196e-06
2.665e-06
2.135e-06
1.604e-06
1.073e-06
5.402e-07
9.061e-08
0.0002756
0.000278
0.0002767
0.0002731
0.0002689
0.0002649
0.0002614
0.0002584
0.0002557
0.0002532
0.000251
0.000249
0.0002471
0.0002454
0.0002437
0.0002422
0.0002408
0.0002395
0.0002383
0.0002371
0.000236
0.0002349
0.0002339
0.0002328
0.0002319
0.0002309
0.0002299
0.0002289
0.000228
0.000227
0.000226
0.000225
0.0002239
0.0002228
0.0002217
0.0002205
0.0002193
0.000218
0.0002167
0.0002152
0.0002137
0.000212
0.0002103
0.0002084
0.0002064
0.0002042
0.0002018
0.0001993
0.0001965
0.0001935
0.0001903
0.0001869
0.0001831
0.0001791
0.0001749
0.0001703
0.0001655
0.0001604
0.0001551
0.0001496
0.0001438
0.0001379
0.0001319
0.0001259
0.0001198
0.0001138
0.0001079
0.0001021
9.642e-05
9.096e-05
8.57e-05
8.066e-05
7.585e-05
7.127e-05
6.695e-05
6.287e-05
5.904e-05
5.545e-05
5.21e-05
4.899e-05
4.609e-05
4.341e-05
4.092e-05
3.861e-05
3.648e-05
3.449e-05
3.266e-05
3.095e-05
2.936e-05
2.787e-05
2.649e-05
2.519e-05
2.396e-05
2.281e-05
2.173e-05
2.07e-05
1.972e-05
1.88e-05
1.791e-05
1.706e-05
1.625e-05
1.546e-05
1.471e-05
1.398e-05
1.327e-05
1.259e-05
1.192e-05
1.127e-05
1.064e-05
1.002e-05
9.413e-06
8.817e-06
8.23e-06
7.652e-06
7.083e-06
6.52e-06
5.963e-06
5.411e-06
4.864e-06
4.321e-06
3.78e-06
3.241e-06
2.703e-06
2.166e-06
1.629e-06
1.09e-06
5.469e-07
8.948e-08
0.0002669
0.0002697
0.0002696
0.0002673
0.0002643
0.0002612
0.0002583
0.0002557
0.0002534
0.0002514
0.0002495
0.0002478
0.0002461
0.0002446
0.0002432
0.0002418
0.0002405
0.0002393
0.0002381
0.0002369
0.0002358
0.0002348
0.0002337
0.0002327
0.0002317
0.0002307
0.0002297
0.0002288
0.0002278
0.0002268
0.0002257
0.0002247
0.0002236
0.0002225
0.0002213
0.0002201
0.0002189
0.0002175
0.0002161
0.0002147
0.0002131
0.0002114
0.0002097
0.0002078
0.0002057
0.0002035
0.0002012
0.0001986
0.0001959
0.0001929
0.0001897
0.0001863
0.0001826
0.0001787
0.0001744
0.0001699
0.0001652
0.0001601
0.0001548
0.0001493
0.0001436
0.0001377
0.0001317
0.0001257
0.0001197
0.0001137
0.0001078
0.0001021
9.652e-05
9.112e-05
8.592e-05
8.093e-05
7.617e-05
7.165e-05
6.737e-05
6.333e-05
5.953e-05
5.597e-05
5.265e-05
4.956e-05
4.669e-05
4.402e-05
4.154e-05
3.924e-05
3.71e-05
3.512e-05
3.327e-05
3.155e-05
2.995e-05
2.845e-05
2.704e-05
2.572e-05
2.447e-05
2.33e-05
2.218e-05
2.113e-05
2.013e-05
1.917e-05
1.826e-05
1.738e-05
1.654e-05
1.574e-05
1.496e-05
1.421e-05
1.348e-05
1.278e-05
1.21e-05
1.143e-05
1.078e-05
1.015e-05
9.529e-06
8.921e-06
8.324e-06
7.737e-06
7.159e-06
6.588e-06
6.025e-06
5.467e-06
4.914e-06
4.365e-06
3.819e-06
3.276e-06
2.733e-06
2.192e-06
1.649e-06
1.104e-06
5.54e-07
9.019e-08
0.0002605
0.0002631
0.0002637
0.0002625
0.0002603
0.0002579
0.0002555
0.0002533
0.0002514
0.0002496
0.000248
0.0002465
0.0002451
0.0002437
0.0002424
0.0002412
0.00024
0.0002389
0.0002377
0.0002367
0.0002356
0.0002346
0.0002336
0.0002326
0.0002316
0.0002306
0.0002296
0.0002286
0.0002276
0.0002266
0.0002255
0.0002245
0.0002234
0.0002222
0.0002211
0.0002198
0.0002186
0.0002172
0.0002158
0.0002143
0.0002128
0.0002111
0.0002093
0.0002074
0.0002054
0.0002032
0.0002008
0.0001983
0.0001956
0.0001927
0.0001895
0.0001861
0.0001824
0.0001785
0.0001743
0.0001698
0.000165
0.00016
0.0001547
0.0001492
0.0001435
0.0001376
0.0001316
0.0001256
0.0001195
0.0001136
0.0001077
0.000102
9.645e-05
9.108e-05
8.591e-05
8.096e-05
7.623e-05
7.174e-05
6.748e-05
6.347e-05
5.97e-05
5.617e-05
5.288e-05
4.981e-05
4.696e-05
4.431e-05
4.186e-05
3.957e-05
3.745e-05
3.548e-05
3.364e-05
3.192e-05
3.032e-05
2.881e-05
2.74e-05
2.606e-05
2.481e-05
2.362e-05
2.249e-05
2.142e-05
2.04e-05
1.942e-05
1.849e-05
1.76e-05
1.675e-05
1.593e-05
1.513e-05
1.437e-05
1.363e-05
1.291e-05
1.222e-05
1.154e-05
1.088e-05
1.024e-05
9.608e-06
8.992e-06
8.388e-06
7.794e-06
7.21e-06
6.635e-06
6.066e-06
5.504e-06
4.948e-06
4.395e-06
3.847e-06
3.3e-06
2.755e-06
2.211e-06
1.665e-06
1.116e-06
5.618e-07
9.289e-08
0.0002554
0.0002579
0.0002589
0.0002583
0.0002568
0.000255
0.000253
0.0002512
0.0002495
0.000248
0.0002465
0.0002452
0.0002439
0.0002428
0.0002416
0.0002405
0.0002394
0.0002384
0.0002373
0.0002363
0.0002353
0.0002343
0.0002334
0.0002324
0.0002314
0.0002304
0.0002295
0.0002285
0.0002275
0.0002264
0.0002254
0.0002243
0.0002232
0.0002221
0.0002209
0.0002197
0.0002184
0.0002171
0.0002157
0.0002142
0.0002126
0.000211
0.0002092
0.0002073
0.0002053
0.0002031
0.0002008
0.0001983
0.0001956
0.0001927
0.0001896
0.0001862
0.0001825
0.0001786
0.0001744
0.0001699
0.0001651
0.0001601
0.0001548
0.0001492
0.0001435
0.0001375
0.0001315
0.0001254
0.0001194
0.0001134
0.0001075
0.0001018
9.621e-05
9.084e-05
8.568e-05
8.074e-05
7.602e-05
7.154e-05
6.73e-05
6.33e-05
5.955e-05
5.605e-05
5.278e-05
4.974e-05
4.692e-05
4.431e-05
4.188e-05
3.962e-05
3.753e-05
3.558e-05
3.376e-05
3.206e-05
3.046e-05
2.897e-05
2.756e-05
2.622e-05
2.497e-05
2.377e-05
2.264e-05
2.157e-05
2.054e-05
1.956e-05
1.862e-05
1.772e-05
1.686e-05
1.603e-05
1.522e-05
1.445e-05
1.37e-05
1.298e-05
1.228e-05
1.159e-05
1.093e-05
1.028e-05
9.647e-06
9.027e-06
8.419e-06
7.822e-06
7.235e-06
6.657e-06
6.087e-06
5.523e-06
4.965e-06
4.412e-06
3.862e-06
3.315e-06
2.769e-06
2.224e-06
1.677e-06
1.127e-06
5.707e-07
9.773e-08
0.0002513
0.0002537
0.0002549
0.0002548
0.0002538
0.0002524
0.0002509
0.0002493
0.0002478
0.0002465
0.0002452
0.000244
0.0002429
0.0002418
0.0002408
0.0002398
0.0002388
0.0002378
0.0002369
0.0002359
0.000235
0.0002341
0.0002331
0.0002322
0.0002312
0.0002303
0.0002293
0.0002284
0.0002274
0.0002264
0.0002253
0.0002243
0.0002232
0.0002221
0.0002209
0.0002197
0.0002184
0.0002171
0.0002157
0.0002142
0.0002127
0.0002111
0.0002093
0.0002075
0.0002055
0.0002034
0.0002011
0.0001986
0.0001959
0.0001931
0.0001899
0.0001866
0.0001829
0.000179
0.0001748
0.0001703
0.0001655
0.0001604
0.0001551
0.0001494
0.0001436
0.0001376
0.0001314
0.0001253
0.0001191
0.0001131
0.0001071
0.0001014
9.58e-05
9.041e-05
8.523e-05
8.027e-05
7.554e-05
7.105e-05
6.68e-05
6.281e-05
5.908e-05
5.559e-05
5.236e-05
4.935e-05
4.657e-05
4.4e-05
4.161e-05
3.94e-05
3.734e-05
3.543e-05
3.364e-05
3.196e-05
3.039e-05
2.892e-05
2.752e-05
2.621e-05
2.496e-05
2.377e-05
2.265e-05
2.158e-05
2.055e-05
1.957e-05
1.863e-05
1.773e-05
1.687e-05
1.604e-05
1.524e-05
1.446e-05
1.371e-05
1.299e-05
1.228e-05
1.16e-05
1.093e-05
1.028e-05
9.647e-06
9.026e-06
8.418e-06
7.821e-06
7.234e-06
6.656e-06
6.086e-06
5.523e-06
4.966e-06
4.414e-06
3.865e-06
3.319e-06
2.775e-06
2.231e-06
1.685e-06
1.136e-06
5.808e-07
1.048e-07
0.000248
0.0002502
0.0002515
0.0002517
0.0002511
0.0002501
0.0002489
0.0002476
0.0002463
0.0002451
0.000244
0.0002429
0.0002419
0.0002409
0.00024
0.0002391
0.0002382
0.0002373
0.0002364
0.0002355
0.0002347
0.0002338
0.0002329
0.000232
0.0002311
0.0002302
0.0002293
0.0002283
0.0002274
0.0002264
0.0002254
0.0002243
0.0002233
0.0002222
0.000221
0.0002198
0.0002186
0.0002173
0.0002159
0.0002145
0.000213
0.0002114
0.0002097
0.0002079
0.0002059
0.0002038
0.0002016
0.0001992
0.0001966
0.0001937
0.0001907
0.0001873
0.0001837
0.0001798
0.0001756
0.000171
0.0001662
0.000161
0.0001555
0.0001498
0.0001438
0.0001377
0.0001314
0.0001251
0.0001189
0.0001127
0.0001067
0.0001008
9.52e-05
8.976e-05
8.453e-05
7.953e-05
7.476e-05
7.024e-05
6.598e-05
6.199e-05
5.826e-05
5.48e-05
5.16e-05
4.864e-05
4.59e-05
4.338e-05
4.105e-05
3.889e-05
3.689e-05
3.502e-05
3.328e-05
3.165e-05
3.011e-05
2.867e-05
2.731e-05
2.601e-05
2.479e-05
2.362e-05
2.251e-05
2.145e-05
2.044e-05
1.947e-05
1.854e-05
1.765e-05
1.679e-05
1.596e-05
1.517e-05
1.44e-05
1.365e-05
1.293e-05
1.223e-05
1.155e-05
1.088e-05
1.024e-05
9.607e-06
8.989e-06
8.384e-06
7.79e-06
7.206e-06
6.631e-06
6.064e-06
5.504e-06
4.95e-06
4.401e-06
3.856e-06
3.314e-06
2.773e-06
2.232e-06
1.69e-06
1.144e-06
5.921e-07
1.141e-07
0.0002453
0.0002473
0.0002486
0.000249
0.0002488
0.0002481
0.0002471
0.0002461
0.000245
0.0002439
0.0002429
0.0002419
0.000241
0.0002401
0.0002393
0.0002384
0.0002376
0.0002368
0.000236
0.0002352
0.0002343
0.0002335
0.0002327
0.0002318
0.000231
0.0002301
0.0002292
0.0002283
0.0002274
0.0002264
0.0002255
0.0002245
0.0002234
0.0002224
0.0002212
0.0002201
0.0002189
0.0002176
0.0002163
0.0002149
0.0002135
0.0002119
0.0002103
0.0002085
0.0002066
0.0002046
0.0002025
0.0002001
0.0001975
0.0001948
0.0001917
0.0001884
0.0001848
0.0001809
0.0001767
0.0001721
0.0001671
0.0001619
0.0001563
0.0001504
0.0001443
0.0001379
0.0001315
0.000125
0.0001185
0.0001122
0.0001061
0.0001001
9.44e-05
8.887e-05
8.356e-05
7.848e-05
7.365e-05
6.909e-05
6.48e-05
6.08e-05
5.708e-05
5.365e-05
5.049e-05
4.758e-05
4.491e-05
4.246e-05
4.02e-05
3.811e-05
3.618e-05
3.437e-05
3.269e-05
3.112e-05
2.963e-05
2.823e-05
2.691e-05
2.565e-05
2.446e-05
2.332e-05
2.224e-05
2.12e-05
2.021e-05
1.926e-05
1.834e-05
1.746e-05
1.662e-05
1.581e-05
1.502e-05
1.426e-05
1.353e-05
1.281e-05
1.212e-05
1.145e-05
1.079e-05
1.015e-05
9.528e-06
8.917e-06
8.318e-06
7.73e-06
7.152e-06
6.583e-06
6.021e-06
5.467e-06
4.918e-06
4.375e-06
3.835e-06
3.298e-06
2.763e-06
2.227e-06
1.691e-06
1.151e-06
6.047e-07
1.256e-07
0.000243
0.0002448
0.0002461
0.0002467
0.0002467
0.0002463
0.0002455
0.0002447
0.0002438
0.0002428
0.0002419
0.000241
0.0002402
0.0002394
0.0002386
0.0002379
0.0002371
0.0002363
0.0002356
0.0002348
0.0002341
0.0002333
0.0002325
0.0002317
0.0002309
0.0002301
0.0002292
0.0002284
0.0002275
0.0002266
0.0002256
0.0002247
0.0002237
0.0002227
0.0002216
0.0002205
0.0002193
0.0002181
0.0002169
0.0002155
0.0002141
0.0002126
0.0002111
0.0002094
0.0002076
0.0002057
0.0002036
0.0002013
0.0001989
0.0001962
0.0001932
0.00019
0.0001864
0.0001825
0.0001782
0.0001735
0.0001685
0.0001631
0.0001574
0.0001513
0.0001449
0.0001383
0.0001316
0.0001248
0.0001182
0.0001116
0.0001053
9.922e-05
9.333e-05
8.767e-05
8.224e-05
7.706e-05
7.215e-05
6.753e-05
6.321e-05
5.92e-05
5.55e-05
5.211e-05
4.901e-05
4.617e-05
4.359e-05
4.122e-05
3.906e-05
3.706e-05
3.521e-05
3.349e-05
3.188e-05
3.037e-05
2.895e-05
2.761e-05
2.634e-05
2.513e-05
2.398e-05
2.288e-05
2.183e-05
2.082e-05
1.986e-05
1.893e-05
1.805e-05
1.719e-05
1.637e-05
1.557e-05
1.48e-05
1.406e-05
1.334e-05
1.264e-05
1.196e-05
1.13e-05
1.066e-05
1.003e-05
9.413e-06
8.812e-06
8.222e-06
7.643e-06
7.073e-06
6.512e-06
5.959e-06
5.412e-06
4.871e-06
4.335e-06
3.803e-06
3.273e-06
2.745e-06
2.217e-06
1.688e-06
1.156e-06
6.186e-07
1.393e-07
0.000241
0.0002427
0.000244
0.0002447
0.0002449
0.0002446
0.0002441
0.0002434
0.0002427
0.0002419
0.0002411
0.0002403
0.0002395
0.0002388
0.000238
0.0002373
0.0002366
0.0002359
0.0002352
0.0002345
0.0002338
0.0002331
0.0002324
0.0002316
0.0002309
0.0002301
0.0002293
0.0002285
0.0002276
0.0002268
0.0002259
0.000225
0.000224
0.0002231
0.000222
0.000221
0.0002199
0.0002188
0.0002176
0.0002163
0.000215
0.0002136
0.0002121
0.0002105
0.0002088
0.000207
0.000205
0.0002029
0.0002005
0.000198
0.0001951
0.0001919
0.0001884
0.0001845
0.0001802
0.0001755
0.0001704
0.0001648
0.0001589
0.0001525
0.0001459
0.0001389
0.0001318
0.0001247
0.0001177
0.0001109
0.0001043
9.802e-05
9.194e-05
8.609e-05
8.051e-05
7.519e-05
7.018e-05
6.55e-05
6.115e-05
5.714e-05
5.348e-05
5.015e-05
4.713e-05
4.44e-05
4.192e-05
3.967e-05
3.762e-05
3.573e-05
3.399e-05
3.237e-05
3.086e-05
2.943e-05
2.809e-05
2.682e-05
2.561e-05
2.446e-05
2.336e-05
2.231e-05
2.13e-05
2.033e-05
1.941e-05
1.851e-05
1.766e-05
1.683e-05
1.603e-05
1.526e-05
1.452e-05
1.379e-05
1.309e-05
1.241e-05
1.175e-05
1.111e-05
1.048e-05
9.864e-06
9.264e-06
8.675e-06
8.097e-06
7.53e-06
6.971e-06
6.421e-06
5.878e-06
5.341e-06
4.81e-06
4.283e-06
3.76e-06
3.24e-06
2.721e-06
2.203e-06
1.683e-06
1.161e-06
6.336e-07
1.55e-07
0.0002394
0.000241
0.0002422
0.000243
0.0002433
0.0002432
0.0002428
0.0002423
0.0002417
0.000241
0.0002403
0.0002396
0.0002389
0.0002382
0.0002376
0.0002369
0.0002362
0.0002356
0.0002349
0.0002343
0.0002336
0.000233
0.0002323
0.0002316
0.0002309
0.0002301
0.0002294
0.0002286
0.0002278
0.000227
0.0002262
0.0002254
0.0002245
0.0002235
0.0002226
0.0002216
0.0002206
0.0002195
0.0002184
0.0002172
0.000216
0.0002147
0.0002133
0.0002119
0.0002103
0.0002086
0.0002068
0.0002048
0.0002026
0.0002002
0.0001974
0.0001944
0.000191
0.0001871
0.0001829
0.0001781
0.0001729
0.0001672
0.000161
0.0001543
0.0001472
0.0001398
0.0001323
0.0001247
0.0001172
0.00011
0.0001031
9.642e-05
9.007e-05
8.4e-05
7.822e-05
7.276e-05
6.765e-05
6.291e-05
5.855e-05
5.457e-05
5.098e-05
4.774e-05
4.484e-05
4.224e-05
3.991e-05
3.781e-05
3.59e-05
3.415e-05
3.253e-05
3.103e-05
2.963e-05
2.83e-05
2.705e-05
2.586e-05
2.473e-05
2.364e-05
2.261e-05
2.161e-05
2.066e-05
1.974e-05
1.885e-05
1.8e-05
1.718e-05
1.639e-05
1.562e-05
1.488e-05
1.417e-05
1.347e-05
1.279e-05
1.214e-05
1.15e-05
1.087e-05
1.026e-05
9.667e-06
9.083e-06
8.51e-06
7.947e-06
7.394e-06
6.849e-06
6.311e-06
5.78e-06
5.255e-06
4.735e-06
4.22e-06
3.708e-06
3.198e-06
2.69e-06
2.183e-06
1.675e-06
1.164e-06
6.497e-07
1.725e-07
0.0002379
0.0002395
0.0002407
0.0002415
0.0002418
0.0002419
0.0002417
0.0002413
0.0002408
0.0002402
0.0002396
0.000239
0.0002384
0.0002377
0.0002371
0.0002365
0.0002359
0.0002353
0.0002347
0.0002341
0.0002335
0.0002329
0.0002322
0.0002316
0.0002309
0.0002302
0.0002296
0.0002288
0.0002281
0.0002274
0.0002266
0.0002258
0.000225
0.0002241
0.0002232
0.0002223
0.0002214
0.0002204
0.0002194
0.0002183
0.0002172
0.000216
0.0002148
0.0002134
0.000212
0.0002105
0.0002088
0.000207
0.000205
0.0002028
0.0002003
0.0001974
0.0001941
0.0001904
0.0001862
0.0001815
0.0001762
0.0001703
0.0001639
0.0001568
0.0001492
0.0001413
0.000133
0.0001247
0.0001166
0.0001087
0.0001013
9.421e-05
8.751e-05
8.118e-05
7.52e-05
6.96e-05
6.442e-05
5.966e-05
5.534e-05
5.144e-05
4.795e-05
4.486e-05
4.213e-05
3.971e-05
3.756e-05
3.563e-05
3.39e-05
3.231e-05
3.085e-05
2.949e-05
2.821e-05
2.7e-05
2.585e-05
2.476e-05
2.371e-05
2.27e-05
2.174e-05
2.081e-05
1.991e-05
1.905e-05
1.821e-05
1.741e-05
1.663e-05
1.588e-05
1.515e-05
1.445e-05
1.376e-05
1.31e-05
1.245e-05
1.182e-05
1.12e-05
1.06e-05
1.002e-05
9.44e-06
8.875e-06
8.32e-06
7.775e-06
7.237e-06
6.708e-06
6.185e-06
5.668e-06
5.156e-06
4.649e-06
4.146e-06
3.647e-06
3.15e-06
2.654e-06
2.159e-06
1.664e-06
1.167e-06
6.667e-07
1.916e-07
0.0002367
0.0002382
0.0002393
0.0002401
0.0002406
0.0002408
0.0002407
0.0002404
0.00024
0.0002395
0.000239
0.0002385
0.0002379
0.0002373
0.0002368
0.0002362
0.0002357
0.0002351
0.0002345
0.000234
0.0002334
0.0002328
0.0002322
0.0002316
0.000231
0.0002304
0.0002298
0.0002291
0.0002284
0.0002278
0.000227
0.0002263
0.0002256
0.0002248
0.000224
0.0002231
0.0002223
0.0002214
0.0002205
0.0002195
0.0002185
0.0002174
0.0002163
0.0002152
0.0002139
0.0002126
0.0002112
0.0002096
0.0002078
0.0002058
0.0002036
0.000201
0.0001979
0.0001945
0.0001904
0.0001858
0.0001806
0.0001746
0.000168
0.0001605
0.0001523
0.0001435
0.0001342
0.0001248
0.0001156
0.0001068
9.861e-05
9.1e-05
8.392e-05
7.733e-05
7.12e-05
6.553e-05
6.035e-05
5.566e-05
5.144e-05
4.769e-05
4.438e-05
4.149e-05
3.898e-05
3.679e-05
3.487e-05
3.317e-05
3.164e-05
3.025e-05
2.897e-05
2.776e-05
2.663e-05
2.555e-05
2.452e-05
2.353e-05
2.257e-05
2.165e-05
2.076e-05
1.991e-05
1.908e-05
1.827e-05
1.75e-05
1.675e-05
1.602e-05
1.531e-05
1.463e-05
1.396e-05
1.331e-05
1.268e-05
1.207e-05
1.147e-05
1.088e-05
1.03e-05
9.74e-06
9.187e-06
8.644e-06
8.109e-06
7.583e-06
7.063e-06
6.551e-06
6.044e-06
5.543e-06
5.046e-06
4.554e-06
4.065e-06
3.579e-06
3.095e-06
2.613e-06
2.132e-06
1.651e-06
1.169e-06
6.844e-07
2.12e-07
0.0002357
0.000237
0.0002382
0.000239
0.0002395
0.0002398
0.0002398
0.0002396
0.0002393
0.0002389
0.0002385
0.000238
0.0002375
0.000237
0.0002365
0.000236
0.0002354
0.0002349
0.0002344
0.0002339
0.0002334
0.0002328
0.0002323
0.0002317
0.0002312
0.0002306
0.00023
0.0002294
0.0002288
0.0002282
0.0002275
0.0002269
0.0002262
0.0002255
0.0002248
0.000224
0.0002233
0.0002225
0.0002217
0.0002208
0.0002199
0.000219
0.0002181
0.0002171
0.000216
0.0002149
0.0002137
0.0002124
0.0002109
0.0002093
0.0002073
0.0002051
0.0002024
0.0001993
0.0001956
0.0001913
0.0001863
0.0001805
0.0001738
0.0001661
0.0001574
0.0001475
0.0001365
0.0001251
0.0001141
0.0001037
9.433e-05
8.61e-05
7.874e-05
7.206e-05
6.593e-05
6.034e-05
5.531e-05
5.081e-05
4.681e-05
4.33e-05
4.025e-05
3.764e-05
3.542e-05
3.352e-05
3.188e-05
3.045e-05
2.916e-05
2.799e-05
2.691e-05
2.588e-05
2.491e-05
2.397e-05
2.306e-05
2.219e-05
2.134e-05
2.051e-05
1.971e-05
1.893e-05
1.817e-05
1.744e-05
1.672e-05
1.603e-05
1.535e-05
1.469e-05
1.405e-05
1.343e-05
1.282e-05
1.223e-05
1.165e-05
1.108e-05
1.052e-05
9.978e-06
9.442e-06
8.914e-06
8.394e-06
7.881e-06
7.376e-06
6.876e-06
6.382e-06
5.893e-06
5.408e-06
4.927e-06
4.45e-06
3.976e-06
3.505e-06
3.036e-06
2.569e-06
2.102e-06
1.637e-06
1.17e-06
7.026e-07
2.334e-07
0.0002348
0.0002361
0.0002372
0.000238
0.0002386
0.0002389
0.000239
0.0002389
0.0002387
0.0002384
0.000238
0.0002376
0.0002372
0.0002367
0.0002362
0.0002358
0.0002353
0.0002348
0.0002343
0.0002338
0.0002334
0.0002329
0.0002324
0.0002319
0.0002314
0.0002308
0.0002303
0.0002298
0.0002292
0.0002287
0.0002281
0.0002275
0.0002269
0.0002263
0.0002256
0.000225
0.0002243
0.0002236
0.0002229
0.0002222
0.0002214
0.0002207
0.0002199
0.0002191
0.0002182
0.0002174
0.0002164
0.0002154
0.0002143
0.000213
0.0002115
0.0002097
0.0002075
0.0002049
0.0002017
0.0001979
0.0001935
0.0001884
0.0001822
0.0001747
0.0001658
0.0001551
0.0001412
0.0001257
0.0001108
9.765e-05
8.699e-05
7.851e-05
7.118e-05
6.483e-05
5.909e-05
5.389e-05
4.925e-05
4.511e-05
4.146e-05
3.83e-05
3.56e-05
3.335e-05
3.149e-05
2.994e-05
2.864e-05
2.751e-05
2.65e-05
2.558e-05
2.471e-05
2.388e-05
2.308e-05
2.229e-05
2.152e-05
2.076e-05
2.002e-05
1.93e-05
1.858e-05
1.789e-05
1.721e-05
1.654e-05
1.59e-05
1.526e-05
1.464e-05
1.404e-05
1.345e-05
1.287e-05
1.231e-05
1.175e-05
1.121e-05
1.068e-05
1.015e-05
9.635e-06
9.127e-06
8.626e-06
8.13e-06
7.641e-06
7.157e-06
6.678e-06
6.204e-06
5.733e-06
5.266e-06
4.802e-06
4.341e-06
3.883e-06
3.427e-06
2.973e-06
2.521e-06
2.07e-06
1.62e-06
1.171e-06
7.211e-07
2.555e-07
0.000234
0.0002353
0.0002363
0.0002372
0.0002378
0.0002381
0.0002383
0.0002383
0.0002382
0.0002379
0.0002376
0.0002373
0.0002369
0.0002365
0.0002361
0.0002356
0.0002352
0.0002347
0.0002343
0.0002338
0.0002334
0.0002329
0.0002325
0.000232
0.0002316
0.0002311
0.0002306
0.0002301
0.0002297
0.0002292
0.0002287
0.0002281
0.0002276
0.0002271
0.0002265
0.000226
0.0002254
0.0002248
0.0002242
0.0002236
0.000223
0.0002224
0.0002218
0.0002212
0.0002205
0.0002199
0.0002193
0.0002186
0.0002178
0.000217
0.0002159
0.0002147
0.0002131
0.0002111
0.0002086
0.0002057
0.0002022
0.0001983
0.0001937
0.0001878
0.0001789
0.0001676
0.0001498
0.0001262
0.0001045
8.785e-05
7.628e-05
6.755e-05
6.04e-05
5.528e-05
5.052e-05
4.614e-05
4.221e-05
3.866e-05
3.55e-05
3.279e-05
3.053e-05
2.872e-05
2.728e-05
2.614e-05
2.521e-05
2.442e-05
2.372e-05
2.306e-05
2.242e-05
2.18e-05
2.117e-05
2.054e-05
1.991e-05
1.928e-05
1.865e-05
1.803e-05
1.742e-05
1.681e-05
1.621e-05
1.562e-05
1.504e-05
1.447e-05
1.391e-05
1.336e-05
1.282e-05
1.229e-05
1.177e-05
1.126e-05
1.075e-05
1.026e-05
9.766e-06
9.281e-06
8.802e-06
8.328e-06
7.859e-06
7.394e-06
6.932e-06
6.475e-06
6.02e-06
5.568e-06
5.119e-06
4.673e-06
4.229e-06
3.787e-06
3.347e-06
2.908e-06
2.472e-06
2.037e-06
1.603e-06
1.171e-06
7.396e-07
2.778e-07
0.0002334
0.0002346
0.0002356
0.0002364
0.000237
0.0002374
0.0002377
0.0002377
0.0002377
0.0002375
0.0002373
0.000237
0.0002367
0.0002363
0.0002359
0.0002355
0.0002351
0.0002347
0.0002343
0.0002339
0.0002335
0.0002331
0.0002326
0.0002322
0.0002318
0.0002314
0.000231
0.0002305
0.0002301
0.0002297
0.0002292
0.0002288
0.0002283
0.0002279
0.0002274
0.000227
0.0002265
0.000226
0.0002255
0.0002251
0.0002246
0.0002242
0.0002237
0.0002233
0.0002229
0.0002225
0.0002221
0.0002218
0.0002214
0.000221
0.0002205
0.0002198
0.0002188
0.0002175
0.0002158
0.0002138
0.0002117
0.0002097
0.0002072
0.0002031
0.0002005
0.0001881
0.0001422
0.0001185
0.0001112
8.622e-05
5.935e-05
5.151e-05
4.855e-05
4.52e-05
4.051e-05
3.737e-05
3.447e-05
3.17e-05
2.915e-05
2.695e-05
2.518e-05
2.385e-05
2.289e-05
2.22e-05
2.168e-05
2.126e-05
2.087e-05
2.049e-05
2.009e-05
1.967e-05
1.923e-05
1.876e-05
1.827e-05
1.777e-05
1.726e-05
1.674e-05
1.622e-05
1.571e-05
1.519e-05
1.467e-05
1.416e-05
1.366e-05
1.316e-05
1.267e-05
1.218e-05
1.17e-05
1.123e-05
1.076e-05
1.029e-05
9.833e-06
9.376e-06
8.923e-06
8.474e-06
8.028e-06
7.585e-06
7.144e-06
6.705e-06
6.269e-06
5.835e-06
5.402e-06
4.971e-06
4.542e-06
4.115e-06
3.689e-06
3.265e-06
2.843e-06
2.422e-06
2.003e-06
1.586e-06
1.171e-06
7.578e-07
3.001e-07
0.0002329
0.000234
0.000235
0.0002358
0.0002364
0.0002369
0.0002371
0.0002373
0.0002373
0.0002372
0.000237
0.0002367
0.0002365
0.0002361
0.0002358
0.0002354
0.0002351
0.0002347
0.0002343
0.0002339
0.0002336
0.0002332
0.0002328
0.0002324
0.0002321
0.0002317
0.0002313
0.0002309
0.0002306
0.0002302
0.0002298
0.0002295
0.0002291
0.0002287
0.0002283
0.000228
0.0002276
0.0002272
0.0002269
0.0002265
0.0002262
0.0002259
0.0002256
0.0002254
0.0002252
0.000225
0.0002249
0.0002249
0.0002249
0.0002249
0.0002249
0.0002248
0.0002244
0.0002237
0.0002227
0.0002214
0.0002203
0.0002194
0.0002204
0.0002135
0.0001621
0.0001507
0.000117
0.0001117
0.0001218
0.0001084
9.221e-05
9.169e-05
4.972e-05
3.435e-05
3.16e-05
2.886e-05
2.654e-05
2.467e-05
2.272e-05
2.103e-05
1.975e-05
1.893e-05
1.847e-05
1.825e-05
1.816e-05
1.811e-05
1.804e-05
1.793e-05
1.777e-05
1.756e-05
1.729e-05
1.698e-05
1.664e-05
1.626e-05
1.587e-05
1.546e-05
1.503e-05
1.46e-05
1.417e-05
1.373e-05
1.329e-05
1.286e-05
1.242e-05
1.198e-05
1.155e-05
1.112e-05
1.069e-05
1.026e-05
9.836e-06
9.412e-06
8.99e-06
8.569e-06
8.149e-06
7.73e-06
7.313e-06
6.896e-06
6.481e-06
6.066e-06
5.651e-06
5.238e-06
4.825e-06
4.413e-06
4.003e-06
3.593e-06
3.184e-06
2.778e-06
2.372e-06
1.969e-06
1.568e-06
1.17e-06
7.755e-07
3.218e-07
0.0002324
0.0002335
0.0002345
0.0002353
0.0002359
0.0002364
0.0002367
0.0002369
0.0002369
0.0002369
0.0002367
0.0002365
0.0002363
0.000236
0.0002357
0.0002354