/*--------------------------------*- C++ -*----------------------------------*\
  =========                 |
  \\      /  F ield         | OpenFOAM: The Open Source CFD Toolbox
   \\    /   O peration     | Website:  https://openfoam.org
    \\  /    A nd           | Version:  7
     \\/     M anipulation  |
\*---------------------------------------------------------------------------*/
FoamFile
{
    version     2.0;
    format      ascii;
    class       surfaceScalarField;
    location    "1379.99947341836969";
    object      phi;
}
// * * * * * * * * * * * * * * * * * * * * * * * * * * * * * * * * * * * * * //

dimensions      [0 3 -1 0 0 0 0];

internalField   nonuniform List<scalar> 
8032
(
6.857e-10
2.518e-10
4.804e-10
2.053e-10
3.48e-10
1.324e-10
2.643e-10
8.372e-11
2.101e-10
5.416e-11
1.738e-10
3.637e-11
1.483e-10
2.55e-11
1.296e-10
1.865e-11
1.155e-10
1.414e-11
1.044e-10
1.103e-11
9.564e-11
8.796e-12
8.851e-11
7.134e-12
8.265e-11
5.857e-12
7.78e-11
4.851e-12
7.376e-11
4.04e-12
7.039e-11
3.375e-12
6.757e-11
2.819e-12
6.522e-11
2.347e-12
6.328e-11
1.941e-12
6.169e-11
1.586e-12
6.042e-11
1.271e-12
5.943e-11
9.885e-13
5.87e-11
7.307e-13
5.821e-11
4.923e-13
5.794e-11
2.684e-13
5.789e-11
5.508e-14
5.804e-11
-1.511e-13
5.839e-11
-3.53e-13
5.895e-11
-5.533e-13
5.97e-11
-7.543e-13
6.066e-11
-9.581e-13
6.182e-11
-1.166e-12
6.32e-11
-1.381e-12
6.481e-11
-1.602e-12
6.664e-11
-1.832e-12
6.871e-11
-2.071e-12
7.103e-11
-2.319e-12
7.361e-11
-2.577e-12
7.645e-11
-2.844e-12
7.957e-11
-3.12e-12
8.297e-11
-3.402e-12
8.666e-11
-3.69e-12
9.064e-11
-3.979e-12
9.491e-11
-4.268e-12
9.946e-11
-4.551e-12
1.043e-10
-4.823e-12
1.094e-10
-5.078e-12
1.147e-10
-5.311e-12
1.202e-10
-5.511e-12
1.259e-10
-5.673e-12
1.316e-10
-5.787e-12
1.375e-10
-5.843e-12
1.433e-10
-5.834e-12
1.491e-10
-5.751e-12
1.547e-10
-5.587e-12
1.6e-10
-5.337e-12
1.65e-10
-4.998e-12
1.696e-10
-4.568e-12
1.736e-10
-4.051e-12
1.771e-10
-3.453e-12
1.799e-10
-2.784e-12
1.819e-10
-2.058e-12
1.832e-10
-1.291e-12
1.837e-10
-5.012e-13
1.834e-10
2.918e-13
1.823e-10
1.069e-12
1.805e-10
1.814e-12
1.78e-10
2.512e-12
1.749e-10
3.15e-12
1.711e-10
3.72e-12
1.669e-10
4.215e-12
1.623e-10
4.633e-12
1.573e-10
4.973e-12
1.521e-10
5.236e-12
1.467e-10
5.425e-12
1.411e-10
5.544e-12
1.355e-10
5.598e-12
1.299e-10
5.592e-12
1.244e-10
5.534e-12
1.19e-10
5.43e-12
1.137e-10
5.287e-12
1.086e-10
5.111e-12
1.037e-10
4.909e-12
9.897e-11
4.686e-12
9.452e-11
4.45e-12
9.032e-11
4.203e-12
8.636e-11
3.952e-12
8.266e-11
3.7e-12
7.921e-11
3.45e-12
7.601e-11
3.205e-12
7.304e-11
2.968e-12
7.03e-11
2.739e-12
6.778e-11
2.52e-12
6.547e-11
2.313e-12
6.335e-11
2.117e-12
6.142e-11
1.933e-12
5.966e-11
1.761e-12
5.806e-11
1.601e-12
5.66e-11
1.452e-12
5.529e-11
1.315e-12
5.41e-11
1.189e-12
5.303e-11
1.073e-12
5.206e-11
9.661e-13
5.119e-11
8.689e-13
5.041e-11
7.801e-13
4.971e-11
6.994e-13
4.909e-11
6.26e-13
4.853e-11
5.595e-13
4.803e-11
4.993e-13
4.758e-11
4.45e-13
4.719e-11
3.961e-13
4.684e-11
3.521e-13
4.652e-11
3.128e-13
4.625e-11
2.777e-13
4.6e-11
2.467e-13
4.578e-11
2.194e-13
4.558e-11
1.958e-13
4.541e-11
1.757e-13
4.525e-11
1.592e-13
4.51e-11
1.464e-13
4.496e-11
1.377e-13
4.483e-11
1.337e-13
4.47e-11
1.355e-13
4.455e-11
1.454e-13
4.438e-11
1.676e-13
4.417e-11
2.092e-13
4.39e-11
2.779e-13
3.611e-13
9.523e-10
2.37e-10
8.501e-10
3.075e-10
7.275e-10
2.55e-10
6.183e-10
1.929e-10
5.294e-10
1.43e-10
4.593e-10
1.065e-10
4.042e-10
8.055e-11
3.607e-10
6.215e-11
3.259e-10
4.892e-11
2.978e-10
3.918e-11
2.747e-10
3.184e-11
2.557e-10
2.618e-11
2.398e-10
2.172e-11
2.266e-10
1.813e-11
2.154e-10
1.519e-11
2.06e-10
1.275e-11
1.981e-10
1.07e-11
1.916e-10
8.937e-12
1.861e-10
7.411e-12
1.816e-10
6.072e-12
1.78e-10
4.879e-12
1.752e-10
3.803e-12
1.731e-10
2.82e-12
1.717e-10
1.907e-12
1.709e-10
1.05e-12
1.707e-10
2.32e-13
1.711e-10
-5.583e-13
1.721e-10
-1.332e-12
1.736e-10
-2.099e-12
1.758e-10
-2.867e-12
1.784e-10
-3.645e-12
1.817e-10
-4.437e-12
1.856e-10
-5.25e-12
1.901e-10
-6.089e-12
1.952e-10
-6.957e-12
2.01e-10
-7.856e-12
2.075e-10
-8.788e-12
2.146e-10
-9.752e-12
2.225e-10
-1.075e-11
2.312e-10
-1.177e-11
2.406e-10
-1.282e-11
2.508e-10
-1.387e-11
2.617e-10
-1.494e-11
2.735e-10
-1.599e-11
2.859e-10
-1.702e-11
2.991e-10
-1.8e-11
3.129e-10
-1.892e-11
3.274e-10
-1.975e-11
3.423e-10
-2.045e-11
3.577e-10
-2.101e-11
3.733e-10
-2.139e-11
3.89e-10
-2.156e-11
4.046e-10
-2.149e-11
4.2e-10
-2.115e-11
4.35e-10
-2.052e-11
4.492e-10
-1.957e-11
4.625e-10
-1.83e-11
4.747e-10
-1.671e-11
4.854e-10
-1.481e-11
4.946e-10
-1.263e-11
5.02e-10
-1.019e-11
5.075e-10
-7.543e-12
5.109e-10
-4.755e-12
5.123e-10
-1.885e-12
5.116e-10
9.992e-13
5.089e-10
3.831e-12
5.041e-10
6.55e-12
4.975e-10
9.103e-12
4.892e-10
1.145e-11
4.794e-10
1.355e-11
4.682e-10
1.539e-11
4.559e-10
1.695e-11
4.427e-10
1.823e-11
4.287e-10
1.923e-11
4.141e-10
1.996e-11
3.992e-10
2.044e-11
3.841e-10
2.068e-11
3.69e-10
2.07e-11
3.54e-10
2.053e-11
3.393e-10
2.018e-11
3.249e-10
1.969e-11
3.109e-10
1.907e-11
2.975e-10
1.835e-11
2.846e-10
1.755e-11
2.724e-10
1.67e-11
2.608e-10
1.581e-11
2.498e-10
1.489e-11
2.396e-10
1.397e-11
2.3e-10
1.305e-11
2.21e-10
1.215e-11
2.127e-10
1.127e-11
2.05e-10
1.042e-11
1.979e-10
9.607e-12
1.914e-10
8.833e-12
1.854e-10
8.1e-12
1.8e-10
7.409e-12
1.75e-10
6.763e-12
1.704e-10
6.159e-12
1.663e-10
5.599e-12
1.625e-10
5.079e-12
1.591e-10
4.599e-12
1.56e-10
4.158e-12
1.532e-10
3.753e-12
1.507e-10
3.381e-12
1.484e-10
3.042e-12
1.464e-10
2.732e-12
1.446e-10
2.451e-12
1.429e-10
2.195e-12
1.415e-10
1.963e-12
1.402e-10
1.754e-12
1.39e-10
1.565e-12
1.38e-10
1.395e-12
1.37e-10
1.242e-12
1.362e-10
1.106e-12
1.355e-10
9.851e-13
1.348e-10
8.788e-13
1.342e-10
7.864e-13
1.337e-10
7.075e-13
1.332e-10
6.421e-13
1.327e-10
5.905e-13
1.323e-10
5.536e-13
1.319e-10
5.328e-13
1.315e-10
5.305e-13
1.311e-10
5.504e-13
1.307e-10
5.981e-13
1.302e-10
6.797e-13
1.297e-10
7.942e-13
9.022e-13
9.779e-10
1.966e-10
9.637e-10
3.217e-10
9.013e-10
3.175e-10
8.212e-10
2.73e-10
7.41e-10
2.233e-10
6.68e-10
1.794e-10
6.046e-10
1.439e-10
5.508e-10
1.16e-10
5.053e-10
9.438e-11
4.67e-10
7.748e-11
4.347e-10
6.414e-11
4.074e-10
5.349e-11
3.843e-10
4.486e-11
3.646e-10
3.777e-11
3.479e-10
3.188e-11
3.338e-10
2.691e-11
3.218e-10
2.267e-11
3.117e-10
1.901e-11
3.033e-10
1.582e-11
2.964e-10
1.299e-11
2.908e-10
1.046e-11
2.864e-10
8.169e-12
2.832e-10
6.064e-12
2.81e-10
4.106e-12
2.798e-10
2.261e-12
2.795e-10
4.986e-13
2.802e-10
-1.207e-12
2.817e-10
-2.877e-12
2.841e-10
-4.532e-12
2.875e-10
-6.19e-12
2.917e-10
-7.865e-12
2.968e-10
-9.572e-12
3.029e-10
-1.132e-11
3.099e-10
-1.312e-11
3.179e-10
-1.498e-11
3.27e-10
-1.69e-11
3.371e-10
-1.889e-11
3.483e-10
-2.095e-11
3.606e-10
-2.306e-11
3.741e-10
-2.523e-11
3.887e-10
-2.744e-11
4.045e-10
-2.968e-11
4.215e-10
-3.191e-11
4.396e-10
-3.412e-11
4.588e-10
-3.628e-11
4.792e-10
-3.833e-11
5.005e-10
-4.024e-11
5.227e-10
-4.195e-11
5.456e-10
-4.34e-11
5.692e-10
-4.454e-11
5.931e-10
-4.53e-11
6.171e-10
-4.561e-11
6.41e-10
-4.542e-11
6.645e-10
-4.466e-11
6.873e-10
-4.329e-11
7.09e-10
-4.126e-11
7.293e-10
-3.857e-11
7.478e-10
-3.521e-11
7.642e-10
-3.12e-11
7.781e-10
-2.659e-11
7.894e-10
-2.147e-11
7.978e-10
-1.592e-11
8.031e-10
-1.007e-11
8.052e-10
-4.044e-12
8.042e-10
2.009e-12
8.001e-10
7.957e-12
7.93e-10
1.368e-11
7.83e-10
1.905e-11
7.705e-10
2.4e-11
7.556e-10
2.844e-11
7.386e-10
3.234e-11
7.199e-10
3.567e-11
6.997e-10
3.841e-11
6.784e-10
4.057e-11
6.562e-10
4.216e-11
6.334e-10
4.322e-11
6.103e-10
4.377e-11
5.872e-10
4.387e-11
5.641e-10
4.355e-11
5.414e-10
4.287e-11
5.193e-10
4.187e-11
4.977e-10
4.061e-11
4.769e-10
3.913e-11
4.57e-10
3.748e-11
4.38e-10
3.57e-11
4.2e-10
3.384e-11
4.03e-10
3.192e-11
3.87e-10
2.998e-11
3.72e-10
2.804e-11
3.58e-10
2.614e-11
3.45e-10
2.428e-11
3.329e-10
2.248e-11
3.218e-10
2.075e-11
3.115e-10
1.91e-11
3.021e-10
1.754e-11
2.934e-10
1.606e-11
2.855e-10
1.468e-11
2.783e-10
1.339e-11
2.717e-10
1.218e-11
2.657e-10
1.107e-11
2.603e-10
1.004e-11
2.553e-10
9.084e-12
2.509e-10
8.21e-12
2.469e-10
7.407e-12
2.432e-10
6.673e-12
2.399e-10
6.003e-12
2.37e-10
5.392e-12
2.344e-10
4.837e-12
2.32e-10
4.333e-12
2.299e-10
3.877e-12
2.28e-10
3.464e-12
2.263e-10
3.093e-12
2.248e-10
2.759e-12
2.234e-10
2.461e-12
2.222e-10
2.196e-12
2.211e-10
1.962e-12
2.201e-10
1.758e-12
2.193e-10
1.583e-12
2.185e-10
1.437e-12
2.177e-10
1.319e-12
2.171e-10
1.231e-12
2.164e-10
1.175e-12
2.158e-10
1.152e-12
2.152e-10
1.167e-12
2.146e-10
1.222e-12
2.139e-10
1.318e-12
2.133e-10
1.441e-12
1.541e-12
9.752e-10
1.589e-10
9.93e-10
3.039e-10
9.728e-10
3.377e-10
9.269e-10
3.189e-10
8.69e-10
2.811e-10
8.085e-10
2.4e-10
7.504e-10
2.02e-10
6.972e-10
1.692e-10
6.498e-10
1.418e-10
6.081e-10
1.192e-10
5.717e-10
1.005e-10
5.401e-10
8.507e-11
5.127e-10
7.219e-11
4.892e-10
6.137e-11
4.688e-10
5.219e-11
4.514e-10
4.434e-11
4.365e-10
3.755e-11
4.239e-10
3.162e-11
4.133e-10
2.64e-11
4.046e-10
2.174e-11
3.975e-10
1.754e-11
3.92e-10
1.371e-11
3.879e-10
1.018e-11
3.851e-10
6.881e-12
3.836e-10
3.762e-12
3.833e-10
7.756e-13
3.842e-10
-2.119e-12
3.863e-10
-4.958e-12
3.896e-10
-7.774e-12
3.94e-10
-1.059e-11
3.995e-10
-1.344e-11
4.063e-10
-1.634e-11
4.143e-10
-1.931e-11
4.235e-10
-2.237e-11
4.341e-10
-2.551e-11
4.459e-10
-2.877e-11
4.592e-10
-3.212e-11
4.738e-10
-3.559e-11
4.899e-10
-3.915e-11
5.075e-10
-4.279e-11
5.265e-10
-4.65e-11
5.471e-10
-5.024e-11
5.692e-10
-5.398e-11
5.927e-10
-5.767e-11
6.177e-10
-6.125e-11
6.44e-10
-6.465e-11
6.716e-10
-6.781e-11
7.003e-10
-7.063e-11
7.299e-10
-7.302e-11
7.602e-10
-7.487e-11
7.91e-10
-7.609e-11
8.219e-10
-7.656e-11
8.527e-10
-7.619e-11
8.829e-10
-7.487e-11
9.122e-10
-7.254e-11
9.4e-10
-6.912e-11
9.661e-10
-6.459e-11
9.898e-10
-5.895e-11
1.011e-09
-5.224e-11
1.029e-09
-4.454e-11
1.043e-09
-3.597e-11
1.054e-09
-2.67e-11
1.061e-09
-1.693e-11
1.064e-09
-6.872e-12
1.063e-09
3.238e-12
1.057e-09
1.318e-11
1.048e-09
2.274e-11
1.036e-09
3.173e-11
1.02e-09
4.002e-11
1.001e-09
4.748e-11
9.788e-10
5.404e-11
9.548e-10
5.964e-11
9.29e-10
6.428e-11
9.016e-10
6.795e-11
8.731e-10
7.068e-11
8.438e-10
7.252e-11
8.14e-10
7.352e-11
7.842e-10
7.375e-11
7.544e-10
7.328e-11
7.251e-10
7.22e-11
6.964e-10
7.059e-11
6.685e-10
6.852e-11
6.415e-10
6.609e-11
6.156e-10
6.337e-11
5.909e-10
6.043e-11
5.674e-10
5.733e-11
5.452e-10
5.414e-11
5.243e-10
5.09e-11
5.046e-10
4.767e-11
4.863e-10
4.447e-11
4.692e-10
4.135e-11
4.534e-10
3.833e-11
4.387e-10
3.542e-11
4.252e-10
3.264e-11
4.127e-10
3e-11
4.013e-10
2.751e-11
3.908e-10
2.517e-11
3.812e-10
2.298e-11
3.724e-10
2.094e-11
3.644e-10
1.904e-11
3.572e-10
1.728e-11
3.506e-10
1.566e-11
3.447e-10
1.417e-11
3.393e-10
1.28e-11
3.344e-10
1.155e-11
3.3e-10
1.04e-11
3.26e-10
9.352e-12
3.225e-10
8.4e-12
3.193e-10
7.534e-12
3.164e-10
6.749e-12
3.138e-10
6.04e-12
3.115e-10
5.4e-12
3.095e-10
4.824e-12
3.076e-10
4.308e-12
3.06e-10
3.849e-12
3.045e-10
3.443e-12
3.031e-10
3.088e-12
3.019e-10
2.781e-12
3.009e-10
2.521e-12
2.999e-10
2.309e-12
2.99e-10
2.144e-12
2.981e-10
2.029e-12
2.973e-10
1.963e-12
2.965e-10
1.95e-12
2.957e-10
1.987e-12
2.95e-10
2.07e-12
2.943e-10
2.179e-12
2.262e-12
9.668e-10
1.296e-10
9.944e-10
2.762e-10
9.979e-10
3.342e-10
9.781e-10
3.387e-10
9.426e-10
3.167e-10
8.987e-10
2.839e-10
8.519e-10
2.488e-10
8.057e-10
2.154e-10
7.62e-10
1.855e-10
7.218e-10
1.594e-10
6.855e-10
1.368e-10
6.531e-10
1.175e-10
6.244e-10
1.009e-10
5.991e-10
8.663e-11
5.771e-10
7.427e-11
5.579e-10
6.352e-11
5.413e-10
5.409e-11
5.272e-10
4.576e-11
5.153e-10
3.833e-11
5.054e-10
3.165e-11
4.973e-10
2.558e-11
4.91e-10
2.001e-11
4.864e-10
1.484e-11
4.832e-10
9.995e-12
4.816e-10
5.391e-12
4.814e-10
9.685e-13
4.826e-10
-3.329e-12
4.852e-10
-7.552e-12
4.892e-10
-1.175e-11
4.946e-10
-1.595e-11
5.013e-10
-2.019e-11
5.095e-10
-2.452e-11
5.191e-10
-2.894e-11
5.302e-10
-3.348e-11
5.429e-10
-3.816e-11
5.571e-10
-4.299e-11
5.729e-10
-4.798e-11
5.905e-10
-5.311e-11
6.097e-10
-5.838e-11
6.307e-10
-6.376e-11
6.534e-10
-6.923e-11
6.779e-10
-7.474e-11
7.041e-10
-8.024e-11
7.321e-10
-8.566e-11
7.618e-10
-9.091e-11
7.93e-10
-9.59e-11
8.257e-10
-1.005e-10
8.597e-10
-1.046e-10
8.948e-10
-1.081e-10
9.307e-10
-1.108e-10
9.672e-10
-1.125e-10
1.004e-09
-1.132e-10
1.04e-09
-1.126e-10
1.076e-09
-1.106e-10
1.11e-09
-1.071e-10
1.143e-09
-1.021e-10
1.174e-09
-9.536e-11
1.202e-09
-8.703e-11
1.227e-09
-7.713e-11
1.248e-09
-6.577e-11
1.266e-09
-5.315e-11
1.278e-09
-3.949e-11
1.286e-09
-2.508e-11
1.29e-09
-1.026e-11
1.288e-09
4.638e-12
1.282e-09
1.929e-11
1.272e-09
3.338e-11
1.257e-09
4.665e-11
1.238e-09
5.889e-11
1.215e-09
6.991e-11
1.19e-09
7.961e-11
1.162e-09
8.791e-11
1.131e-09
9.48e-11
1.099e-09
1.003e-10
1.065e-09
1.044e-10
1.031e-09
1.071e-10
9.953e-10
1.087e-10
9.6e-10
1.091e-10
9.247e-10
1.085e-10
8.9e-10
1.07e-10
8.559e-10
1.047e-10
8.227e-10
1.017e-10
7.907e-10
9.816e-11
7.598e-10
9.419e-11
7.304e-10
8.989e-11
7.023e-10
8.536e-11
6.758e-10
8.067e-11
6.508e-10
7.592e-11
6.273e-10
7.116e-11
6.053e-10
6.645e-11
5.848e-10
6.185e-11
5.658e-10
5.738e-11
5.481e-10
5.307e-11
5.318e-10
4.895e-11
5.168e-10
4.504e-11
5.029e-10
4.134e-11
4.902e-10
3.786e-11
4.786e-10
3.46e-11
4.68e-10
3.155e-11
4.583e-10
2.872e-11
4.495e-10
2.61e-11
4.415e-10
2.368e-11
4.342e-10
2.144e-11
4.276e-10
1.939e-11
4.217e-10
1.751e-11
4.163e-10
1.578e-11
4.114e-10
1.421e-11
4.07e-10
1.278e-11
4.031e-10
1.147e-11
3.996e-10
1.029e-11
3.964e-10
9.218e-12
3.935e-10
8.251e-12
3.91e-10
7.379e-12
3.887e-10
6.598e-12
3.866e-10
5.901e-12
3.848e-10
5.282e-12
3.831e-10
4.739e-12
3.817e-10
4.267e-12
3.803e-10
3.864e-12
3.791e-10
3.529e-12
3.78e-10
3.262e-12
3.769e-10
3.062e-12
3.76e-10
2.929e-12
3.751e-10
2.862e-12
3.742e-10
2.858e-12
3.734e-10
2.907e-12
3.725e-10
2.985e-12
3.047e-12
9.592e-10
1.079e-10
9.875e-10
2.478e-10
1.003e-09
3.19e-10
1e-09
3.413e-10
9.826e-10
3.343e-10
9.546e-10
3.119e-10
9.205e-10
2.828e-10
8.839e-10
2.521e-10
8.47e-10
2.224e-10
8.115e-10
1.949e-10
7.781e-10
1.702e-10
7.474e-10
1.482e-10
7.196e-10
1.288e-10
6.946e-10
1.116e-10
6.724e-10
9.649e-11
6.528e-10
8.308e-11
6.358e-10
7.114e-11
6.21e-10
6.046e-11
6.085e-10
5.083e-11
5.981e-10
4.208e-11
5.896e-10
3.406e-11
5.83e-10
2.666e-11
5.781e-10
1.974e-11
5.749e-10
1.321e-11
5.733e-10
6.983e-12
5.733e-10
9.802e-13
5.748e-10
-4.871e-12
5.779e-10
-1.063e-11
5.825e-10
-1.636e-11
5.887e-10
-2.211e-11
5.964e-10
-2.793e-11
6.057e-10
-3.384e-11
6.167e-10
-3.99e-11
6.293e-10
-4.612e-11
6.437e-10
-5.252e-11
6.598e-10
-5.912e-11
6.778e-10
-6.593e-11
6.976e-10
-7.293e-11
7.193e-10
-8.011e-11
7.43e-10
-8.744e-11
7.687e-10
-9.488e-11
7.963e-10
-1.024e-10
8.259e-10
-1.098e-10
8.574e-10
-1.172e-10
8.908e-10
-1.243e-10
9.259e-10
-1.31e-10
9.627e-10
-1.373e-10
1.001e-09
-1.428e-10
1.04e-09
-1.475e-10
1.081e-09
-1.511e-10
1.122e-09
-1.535e-10
1.163e-09
-1.543e-10
1.204e-09
-1.535e-10
1.244e-09
-1.508e-10
1.283e-09
-1.46e-10
1.32e-09
-1.391e-10
1.355e-09
-1.3e-10
1.386e-09
-1.187e-10
1.414e-09
-1.052e-10
1.438e-09
-8.974e-11
1.458e-09
-7.254e-11
1.472e-09
-5.393e-11
1.481e-09
-3.431e-11
1.485e-09
-1.412e-11
1.484e-09
6.188e-12
1.477e-09
2.615e-11
1.465e-09
4.534e-11
1.448e-09
6.342e-11
1.427e-09
8.008e-11
1.402e-09
9.51e-11
1.373e-09
1.083e-10
1.341e-09
1.197e-10
1.307e-09
1.291e-10
1.271e-09
1.366e-10
1.233e-09
1.422e-10
1.194e-09
1.461e-10
1.154e-09
1.482e-10
1.115e-09
1.489e-10
1.075e-09
1.481e-10
1.036e-09
1.461e-10
9.975e-10
1.43e-10
9.601e-10
1.391e-10
9.24e-10
1.343e-10
8.892e-10
1.29e-10
8.559e-10
1.232e-10
8.243e-10
1.17e-10
7.943e-10
1.107e-10
7.66e-10
1.042e-10
7.393e-10
9.777e-11
7.144e-10
9.137e-11
6.912e-10
8.51e-11
6.695e-10
7.902e-11
6.495e-10
7.315e-11
6.309e-10
6.753e-11
6.137e-10
6.218e-11
5.98e-10
5.712e-11
5.835e-10
5.235e-11
5.702e-10
4.788e-11
5.58e-10
4.371e-11
5.469e-10
3.983e-11
5.368e-10
3.622e-11
5.276e-10
3.289e-11
5.192e-10
2.981e-11
5.116e-10
2.698e-11
5.048e-10
2.438e-11
4.985e-10
2.201e-11
4.929e-10
1.983e-11
4.879e-10
1.785e-11
4.833e-10
1.604e-11
4.792e-10
1.44e-11
4.755e-10
1.291e-11
4.722e-10
1.157e-11
4.692e-10
1.036e-11
4.665e-10
9.269e-12
4.641e-10
8.295e-12
4.62e-10
7.43e-12
4.6e-10
6.667e-12
4.583e-10
6e-12
4.567e-10
5.427e-12
4.553e-10
4.944e-12
4.54e-10
4.549e-12
4.529e-10
4.241e-12
4.518e-10
4.018e-12
4.508e-10
3.876e-12
4.498e-10
3.81e-12
4.489e-10
3.806e-12
4.481e-10
3.843e-12
3.881e-12
9.536e-10
9.183e-11
9.795e-10
2.219e-10
9.996e-10
2.989e-10
1.008e-09
3.334e-10
1.003e-09
3.39e-10
9.879e-10
3.269e-10
9.656e-10
3.051e-10
9.39e-10
2.788e-10
9.101e-10
2.512e-10
8.808e-10
2.242e-10
8.521e-10
1.989e-10
8.249e-10
1.755e-10
7.995e-10
1.542e-10
7.762e-10
1.349e-10
7.551e-10
1.175e-10
7.363e-10
1.019e-10
7.197e-10
8.774e-11
7.053e-10
7.49e-11
6.929e-10
6.319e-11
6.825e-10
5.244e-11
6.741e-10
4.251e-11
6.675e-10
3.325e-11
6.627e-10
2.455e-11
6.596e-10
1.63e-11
6.582e-10
8.384e-12
6.585e-10
7.219e-13
6.604e-10
-6.771e-12
6.639e-10
-1.417e-11
6.691e-10
-2.154e-11
6.759e-10
-2.895e-11
6.844e-10
-3.645e-11
6.947e-10
-4.408e-11
7.067e-10
-5.189e-11
7.205e-10
-5.992e-11
7.361e-10
-6.818e-11
7.537e-10
-7.669e-11
7.732e-10
-8.546e-11
7.948e-10
-9.447e-11
8.184e-10
-1.037e-10
8.441e-10
-1.131e-10
8.719e-10
-1.227e-10
9.019e-10
-1.323e-10
9.34e-10
-1.419e-10
9.681e-10
-1.514e-10
1.004e-09
-1.605e-10
1.042e-09
-1.692e-10
1.082e-09
-1.772e-10
1.124e-09
-1.843e-10
1.166e-09
-1.903e-10
1.21e-09
-1.949e-10
1.255e-09
-1.979e-10
1.299e-09
-1.99e-10
1.344e-09
-1.98e-10
1.388e-09
-1.945e-10
1.43e-09
-1.884e-10
1.47e-09
-1.795e-10
1.508e-09
-1.678e-10
1.543e-09
-1.532e-10
1.573e-09
-1.359e-10
1.6e-09
-1.159e-10
1.621e-09
-9.376e-11
1.637e-09
-6.974e-11
1.647e-09
-4.44e-11
1.651e-09
-1.832e-11
1.649e-09
7.887e-12
1.642e-09
3.364e-11
1.629e-09
5.84e-11
1.61e-09
8.17e-11
1.587e-09
1.032e-10
1.56e-09
1.225e-10
1.529e-09
1.395e-10
1.494e-09
1.542e-10
1.457e-09
1.663e-10
1.418e-09
1.76e-10
1.376e-09
1.833e-10
1.334e-09
1.883e-10
1.291e-09
1.911e-10
1.248e-09
1.92e-10
1.205e-09
1.911e-10
1.163e-09
1.886e-10
1.121e-09
1.847e-10
1.08e-09
1.796e-10
1.041e-09
1.736e-10
1.003e-09
1.667e-10
9.673e-10
1.593e-10
9.329e-10
1.515e-10
9.002e-10
1.433e-10
8.694e-10
1.35e-10
8.404e-10
1.268e-10
8.132e-10
1.185e-10
7.879e-10
1.105e-10
7.643e-10
1.026e-10
7.423e-10
9.507e-11
7.22e-10
8.783e-11
7.033e-10
8.093e-11
6.86e-10
7.44e-11
6.701e-10
6.824e-11
6.555e-10
6.246e-11
6.422e-10
5.706e-11
6.3e-10
5.203e-11
6.188e-10
4.736e-11
6.087e-10
4.303e-11
5.995e-10
3.904e-11
5.911e-10
3.536e-11
5.835e-10
3.199e-11
5.766e-10
2.889e-11
5.704e-10
2.606e-11
5.648e-10
2.347e-11
5.597e-10
2.111e-11
5.551e-10
1.897e-11
5.51e-10
1.703e-11
5.473e-10
1.527e-11
5.44e-10
1.368e-11
5.41e-10
1.225e-11
5.383e-10
1.097e-11
5.359e-10
9.829e-12
5.338e-10
8.82e-12
5.318e-10
7.934e-12
5.301e-10
7.167e-12
5.285e-10
6.514e-12
5.271e-10
5.971e-12
5.258e-10
5.534e-12
5.246e-10
5.2e-12
5.235e-10
4.964e-12
5.225e-10
4.818e-12
5.216e-10
4.749e-12
5.207e-10
4.736e-12
4.747e-12
9.498e-10
7.955e-11
9.725e-10
1.992e-10
9.939e-10
2.775e-10
1.008e-09
3.196e-10
1.012e-09
3.349e-10
1.007e-09
3.318e-10
9.945e-10
3.173e-10
9.77e-10
2.963e-10
9.562e-10
2.72e-10
9.335e-10
2.469e-10
9.104e-10
2.22e-10
8.875e-10
1.983e-10
8.656e-10
1.761e-10
8.45e-10
1.555e-10
8.261e-10
1.365e-10
8.089e-10
1.191e-10
7.935e-10
1.031e-10
7.8e-10
8.839e-11
7.684e-10
7.482e-11
7.586e-10
6.223e-11
7.506e-10
5.05e-11
7.444e-10
3.947e-11
7.399e-10
2.903e-11
7.372e-10
1.906e-11
7.361e-10
9.46e-12
7.367e-10
1.22e-13
7.39e-10
-9.043e-12
7.429e-10
-1.812e-11
7.485e-10
-2.718e-11
7.559e-10
-3.63e-11
7.65e-10
-4.555e-11
7.759e-10
-5.497e-11
7.886e-10
-6.461e-11
8.032e-10
-7.452e-11
8.198e-10
-8.472e-11
8.383e-10
-9.523e-11
8.589e-10
-1.061e-10
8.816e-10
-1.172e-10
9.065e-10
-1.286e-10
9.336e-10
-1.402e-10
9.629e-10
-1.52e-10
9.944e-10
-1.639e-10
1.028e-09
-1.757e-10
1.064e-09
-1.873e-10
1.102e-09
-1.986e-10
1.142e-09
-2.093e-10
1.184e-09
-2.192e-10
1.228e-09
-2.28e-10
1.273e-09
-2.354e-10
1.319e-09
-2.412e-10
1.366e-09
-2.449e-10
1.414e-09
-2.463e-10
1.461e-09
-2.451e-10
1.507e-09
-2.408e-10
1.552e-09
-2.334e-10
1.595e-09
-2.225e-10
1.635e-09
-2.081e-10
1.672e-09
-1.901e-10
1.705e-09
-1.686e-10
1.733e-09
-1.44e-10
1.756e-09
-1.164e-10
1.773e-09
-8.663e-11
1.783e-09
-5.516e-11
1.788e-09
-2.278e-11
1.786e-09
9.753e-12
1.778e-09
4.17e-11
1.764e-09
7.238e-11
1.744e-09
1.012e-10
1.72e-09
1.278e-10
1.691e-09
1.517e-10
1.658e-09
1.727e-10
1.621e-09
1.907e-10
1.581e-09
2.057e-10
1.54e-09
2.177e-10
1.496e-09
2.267e-10
1.452e-09
2.329e-10
1.406e-09
2.365e-10
1.361e-09
2.376e-10
1.315e-09
2.365e-10
1.27e-09
2.335e-10
1.226e-09
2.287e-10
1.184e-09
2.225e-10
1.142e-09
2.15e-10
1.102e-09
2.066e-10
1.064e-09
1.975e-10
1.028e-09
1.878e-10
9.933e-10
1.778e-10
9.608e-10
1.676e-10
9.302e-10
1.574e-10
9.015e-10
1.472e-10
8.747e-10
1.373e-10
8.497e-10
1.276e-10
8.265e-10
1.183e-10
8.05e-10
1.093e-10
7.851e-10
1.008e-10
7.668e-10
9.272e-11
7.499e-10
8.51e-11
7.344e-10
7.795e-11
7.202e-10
7.125e-11
7.073e-10
6.501e-11
6.954e-10
5.922e-11
6.846e-10
5.385e-11
6.747e-10
4.888e-11
6.658e-10
4.431e-11
6.577e-10
4.011e-11
6.503e-10
3.625e-11
6.436e-10
3.272e-11
6.376e-10
2.95e-11
6.322e-10
2.656e-11
6.273e-10
2.388e-11
6.228e-10
2.145e-11
6.189e-10
1.925e-11
6.153e-10
1.726e-11
6.121e-10
1.546e-11
6.092e-10
1.385e-11
6.066e-10
1.242e-11
6.043e-10
1.114e-11
6.022e-10
1.002e-11
6.003e-10
9.039e-12
5.986e-10
8.197e-12
5.971e-10
7.488e-12
5.957e-10
6.905e-12
5.945e-10
6.445e-12
5.934e-10
6.1e-12
5.923e-10
5.861e-12
5.914e-10
5.717e-12
5.904e-10
5.648e-12
5.63e-12
9.472e-10
6.988e-11
9.668e-10
1.796e-10
9.879e-10
2.564e-10
1.005e-09
3.029e-10
1.014e-09
3.251e-10
1.017e-09
3.295e-10
1.012e-09
3.216e-10
1.003e-09
3.059e-10
9.893e-10
2.856e-10
9.732e-10
2.629e-10
9.557e-10
2.395e-10
9.376e-10
2.164e-10
9.197e-10
1.94e-10
9.025e-10
1.727e-10
8.863e-10
1.527e-10
8.713e-10
1.341e-10
8.577e-10
1.167e-10
8.457e-10
1.004e-10
8.353e-10
8.526e-11
8.264e-10
7.106e-11
8.192e-10
5.769e-11
8.137e-10
4.502e-11
8.098e-10
3.295e-11
8.075e-10
2.135e-11
8.068e-10
1.011e-11
8.078e-10
-8.667e-13
8.105e-10
-1.168e-11
8.148e-10
-2.242e-11
8.208e-10
-3.318e-11
8.285e-10
-4.402e-11
8.38e-10
-5.503e-11
8.492e-10
-6.625e-11
8.624e-10
-7.776e-11
8.774e-10
-8.958e-11
8.945e-10
-1.018e-10
9.135e-10
-1.143e-10
9.347e-10
-1.272e-10
9.58e-10
-1.405e-10
9.836e-10
-1.541e-10
1.011e-09
-1.68e-10
1.041e-09
-1.821e-10
1.074e-09
-1.963e-10
1.108e-09
-2.104e-10
1.145e-09
-2.243e-10
1.185e-09
-2.378e-10
1.226e-09
-2.506e-10
1.269e-09
-2.624e-10
1.314e-09
-2.73e-10
1.361e-09
-2.819e-10
1.408e-09
-2.889e-10
1.457e-09
-2.935e-10
1.506e-09
-2.953e-10
1.555e-09
-2.939e-10
1.603e-09
-2.89e-10
1.65e-09
-2.802e-10
1.695e-09
-2.673e-10
1.737e-09
-2.502e-10
1.775e-09
-2.287e-10
1.81e-09
-2.03e-10
1.839e-09
-1.733e-10
1.863e-09
-1.402e-10
1.881e-09
-1.043e-10
1.892e-09
-6.64e-11
1.896e-09
-2.737e-11
1.894e-09
1.182e-11
1.886e-09
5.026e-11
1.871e-09
8.712e-11
1.851e-09
1.217e-10
1.825e-09
1.535e-10
1.794e-09
1.821e-10
1.76e-09
2.072e-10
1.722e-09
2.288e-10
1.681e-09
2.467e-10
1.638e-09
2.609e-10
1.593e-09
2.717e-10
1.546e-09
2.791e-10
1.499e-09
2.834e-10
1.452e-09
2.847e-10
1.405e-09
2.834e-10
1.359e-09
2.798e-10
1.314e-09
2.741e-10
1.27e-09
2.666e-10
1.227e-09
2.578e-10
1.186e-09
2.477e-10
1.146e-09
2.368e-10
1.109e-09
2.252e-10
1.074e-09
2.133e-10
1.04e-09
2.011e-10
1.008e-09
1.889e-10
9.789e-10
1.768e-10
9.513e-10
1.649e-10
9.256e-10
1.534e-10
9.017e-10
1.422e-10
8.795e-10
1.315e-10
8.59e-10
1.213e-10
8.401e-10
1.116e-10
8.227e-10
1.025e-10
8.067e-10
9.394e-11
7.92e-10
8.592e-11
7.786e-10
7.844e-11
7.663e-10
7.149e-11
7.551e-10
6.505e-11
7.449e-10
5.909e-11
7.356e-10
5.36e-11
7.272e-10
4.855e-11
7.195e-10
4.391e-11
7.126e-10
3.966e-11
7.063e-10
3.577e-11
7.006e-10
3.223e-11
6.955e-10
2.9e-11
6.909e-10
2.607e-11
6.867e-10
2.34e-11
6.83e-10
2.1e-11
6.796e-10
1.882e-11
6.766e-10
1.687e-11
6.739e-10
1.513e-11
6.715e-10
1.357e-11
6.693e-10
1.22e-11
6.673e-10
1.099e-11
6.656e-10
9.95e-12
6.64e-10
9.062e-12
6.626e-10
8.322e-12
6.613e-10
7.723e-12
6.602e-10
7.258e-12
6.591e-10
6.917e-12
6.581e-10
6.691e-12
6.572e-10
6.562e-12
6.514e-12
9.453e-10
6.204e-11
9.625e-10
1.624e-10
9.824e-10
2.364e-10
1e-09
2.849e-10
1.014e-09
3.118e-10
1.021e-09
3.22e-10
1.023e-09
3.198e-10
1.02e-09
3.091e-10
1.013e-09
2.927e-10
1.003e-09
2.73e-10
9.905e-10
2.516e-10
9.773e-10
2.296e-10
9.636e-10
2.077e-10
9.5e-10
1.864e-10
9.368e-10
1.659e-10
9.244e-10
1.465e-10
9.13e-10
1.28e-10
9.028e-10
1.106e-10
8.939e-10
9.419e-11
8.863e-10
7.863e-11
8.802e-10
6.384e-11
8.755e-10
4.971e-11
8.723e-10
3.615e-11
8.706e-10
2.304e-11
8.704e-10
1.027e-11
8.718e-10
-2.263e-12
8.748e-10
-1.466e-11
8.794e-10
-2.701e-11
8.856e-10
-3.941e-11
8.935e-10
-5.193e-11
9.032e-10
-6.467e-11
9.146e-10
-7.767e-11
9.279e-10
-9.101e-11
9.43e-10
-1.047e-10
9.601e-10
-1.189e-10
9.793e-10
-1.334e-10
1.001e-09
-1.485e-10
1.024e-09
-1.639e-10
1.049e-09
-1.797e-10
1.077e-09
-1.959e-10
1.108e-09
-2.123e-10
1.14e-09
-2.288e-10
1.175e-09
-2.452e-10
1.212e-09
-2.614e-10
1.251e-09
-2.771e-10
1.293e-09
-2.921e-10
1.336e-09
-3.06e-10
1.382e-09
-3.184e-10
1.429e-09
-3.29e-10
1.477e-09
-3.372e-10
1.527e-09
-3.428e-10
1.576e-09
-3.451e-10
1.626e-09
-3.437e-10
1.675e-09
-3.382e-10
1.723e-09
-3.281e-10
1.769e-09
-3.133e-10
1.812e-09
-2.934e-10
1.852e-09
-2.684e-10
1.887e-09
-2.383e-10
1.918e-09
-2.036e-10
1.942e-09
-1.648e-10
1.96e-09
-1.226e-10
1.972e-09
-7.792e-11
1.977e-09
-3.197e-11
1.974e-09
1.412e-11
1.965e-09
5.926e-11
1.95e-09
1.025e-10
1.929e-09
1.429e-10
1.902e-09
1.8e-10
1.871e-09
2.133e-10
1.836e-09
2.426e-10
1.797e-09
2.676e-10
1.755e-09
2.884e-10
1.711e-09
3.05e-10
1.665e-09
3.174e-10
1.618e-09
3.26e-10
1.571e-09
3.309e-10
1.523e-09
3.324e-10
1.476e-09
3.309e-10
1.429e-09
3.266e-10
1.383e-09
3.199e-10
1.338e-09
3.112e-10
1.295e-09
3.009e-10
1.254e-09
2.892e-10
1.214e-09
2.764e-10
1.176e-09
2.63e-10
1.141e-09
2.49e-10
1.107e-09
2.349e-10
1.075e-09
2.206e-10
1.046e-09
2.065e-10
1.018e-09
1.927e-10
9.919e-10
1.792e-10
9.678e-10
1.663e-10
9.455e-10
1.538e-10
9.249e-10
1.419e-10
9.058e-10
1.307e-10
8.883e-10
1.2e-10
8.722e-10
1.101e-10
8.574e-10
1.007e-10
8.439e-10
9.199e-11
8.315e-10
8.388e-11
8.202e-10
7.636e-11
8.099e-10
6.941e-11
8.005e-10
6.299e-11
7.919e-10
5.708e-11
7.842e-10
5.166e-11
7.771e-10
4.669e-11
7.708e-10
4.214e-11
7.65e-10
3.799e-11
7.598e-10
3.42e-11
7.551e-10
3.076e-11
7.509e-10
2.763e-11
7.471e-10
2.48e-11
7.437e-10
2.225e-11
7.406e-10
1.995e-11
7.378e-10
1.789e-11
7.354e-10
1.605e-11
7.331e-10
1.441e-11
7.311e-10
1.298e-11
7.294e-10
1.173e-11
7.278e-10
1.065e-11
7.263e-10
9.749e-12
7.251e-10
9.005e-12
7.239e-10
8.413e-12
7.229e-10
7.965e-12
7.219e-10
7.651e-12
7.21e-10
7.46e-12
7.38e-12
9.44e-10
5.551e-11
9.59e-10
1.474e-10
9.777e-10
2.178e-10
9.96e-10
2.666e-10
1.011e-09
2.965e-10
1.022e-09
3.11e-10
1.029e-09
3.134e-10
1.031e-09
3.071e-10
1.029e-09
2.945e-10
1.024e-09
2.779e-10
1.017e-09
2.587e-10
1.008e-09
2.382e-10
9.988e-10
2.172e-10
9.888e-10
1.963e-10
9.789e-10
1.759e-10
9.692e-10
1.561e-10
9.602e-10
1.37e-10
9.52e-10
1.188e-10
9.448e-10
1.014e-10
9.387e-10
8.475e-11
9.338e-10
6.878e-11
9.301e-10
5.34e-11
9.277e-10
3.853e-11
9.267e-10
2.407e-11
9.27e-10
9.906e-12
9.288e-10
-4.058e-12
9.321e-10
-1.792e-11
9.369e-10
-3.178e-11
9.432e-10
-4.574e-11
9.511e-10
-5.987e-11
9.607e-10
-7.425e-11
9.72e-10
-8.897e-11
9.851e-10
-1.041e-10
1e-09
-1.196e-10
1.017e-09
-1.357e-10
1.036e-09
-1.522e-10
1.056e-09
-1.693e-10
1.079e-09
-1.868e-10
1.104e-09
-2.048e-10
1.132e-09
-2.232e-10
1.161e-09
-2.418e-10
1.193e-09
-2.606e-10
1.227e-09
-2.794e-10
1.264e-09
-2.979e-10
1.303e-09
-3.159e-10
1.344e-09
-3.331e-10
1.387e-09
-3.49e-10
1.432e-09
-3.633e-10
1.478e-09
-3.756e-10
1.526e-09
-3.852e-10
1.575e-09
-3.918e-10
1.625e-09
-3.947e-10
1.675e-09
-3.934e-10
1.724e-09
-3.874e-10
1.772e-09
-3.763e-10
1.818e-09
-3.596e-10
1.862e-09
-3.37e-10
1.902e-09
-3.086e-10
1.938e-09
-2.743e-10
1.969e-09
-2.344e-10
1.994e-09
-1.897e-10
2.012e-09
-1.41e-10
2.024e-09
-8.947e-11
2.028e-09
-3.643e-11
2.026e-09
1.672e-11
2.016e-09
6.866e-11
2e-09
1.182e-10
1.979e-09
1.645e-10
1.952e-09
2.069e-10
1.92e-09
2.449e-10
1.885e-09
2.781e-10
1.846e-09
3.065e-10
1.804e-09
3.301e-10
1.76e-09
3.489e-10
1.715e-09
3.63e-10
1.668e-09
3.727e-10
1.621e-09
3.782e-10
1.573e-09
3.799e-10
1.526e-09
3.78e-10
1.48e-09
3.731e-10
1.434e-09
3.654e-10
1.39e-09
3.554e-10
1.348e-09
3.435e-10
1.307e-09
3.301e-10
1.267e-09
3.156e-10
1.23e-09
3.002e-10
1.195e-09
2.843e-10
1.162e-09
2.681e-10
1.131e-09
2.519e-10
1.101e-09
2.358e-10
1.074e-09
2.2e-10
1.049e-09
2.047e-10
1.025e-09
1.899e-10
1.003e-09
1.757e-10
9.827e-10
1.622e-10
9.64e-10
1.494e-10
9.468e-10
1.373e-10
9.31e-10
1.259e-10
9.164e-10
1.153e-10
9.031e-10
1.053e-10
8.909e-10
9.608e-11
8.797e-10
8.75e-11
8.696e-10
7.957e-11
8.603e-10
7.225e-11
8.519e-10
6.551e-11
8.442e-10
5.932e-11
8.373e-10
5.364e-11
8.31e-10
4.844e-11
8.253e-10
4.369e-11
8.201e-10
3.935e-11
8.155e-10
3.541e-11
8.113e-10
3.183e-11
8.075e-10
2.858e-11
8.041e-10
2.565e-11
8.011e-10
2.3e-11
7.983e-10
2.063e-11
7.959e-10
1.85e-11
7.937e-10
1.661e-11
7.917e-10
1.495e-11
7.899e-10
1.349e-11
7.884e-10
1.223e-11
7.87e-10
1.115e-11
7.857e-10
1.026e-11
7.846e-10
9.538e-12
7.836e-10
8.98e-12
7.826e-10
8.579e-12
7.818e-10
8.325e-12
8.213e-12
9.431e-10
4.994e-11
9.564e-10
1.341e-10
9.737e-10
2.004e-10
9.918e-10
2.485e-10
1.008e-09
2.801e-10
1.022e-09
2.976e-10
1.031e-09
3.037e-10
1.037e-09
3.01e-10
1.04e-09
2.919e-10
1.04e-09
2.782e-10
1.037e-09
2.614e-10
1.032e-09
2.427e-10
1.027e-09
2.23e-10
1.02e-09
2.028e-10
1.013e-09
1.827e-10
1.007e-09
1.629e-10
1e-09
1.436e-10
9.94e-10
1.249e-10
9.886e-10
1.068e-10
9.841e-10
8.932e-11
9.804e-10
7.242e-11
9.778e-10
5.602e-11
9.763e-10
4.005e-11
9.759e-10
2.442e-11
9.768e-10
9.029e-12
9.79e-10
-6.211e-12
9.824e-10
-2.14e-11
9.873e-10
-3.664e-11
9.936e-10
-5.202e-11
1.001e-09
-6.764e-11
1.011e-09
-8.357e-11
1.022e-09
-9.988e-11
1.034e-09
-1.167e-10
1.048e-09
-1.339e-10
1.065e-09
-1.518e-10
1.083e-09
-1.702e-10
1.102e-09
-1.892e-10
1.124e-09
-2.088e-10
1.148e-09
-2.288e-10
1.175e-09
-2.494e-10
1.203e-09
-2.702e-10
1.234e-09
-2.912e-10
1.266e-09
-3.123e-10
1.302e-09
-3.33e-10
1.339e-09
-3.533e-10
1.378e-09
-3.726e-10
1.42e-09
-3.906e-10
1.463e-09
-4.068e-10
1.509e-09
-4.208e-10
1.555e-09
-4.319e-10
1.603e-09
-4.396e-10
1.652e-09
-4.432e-10
1.701e-09
-4.422e-10
1.749e-09
-4.359e-10
1.796e-09
-4.238e-10
1.842e-09
-4.054e-10
1.886e-09
-3.803e-10
1.926e-09