/*--------------------------------*- C++ -*----------------------------------*\
  =========                 |
  \\      /  F ield         | OpenFOAM: The Open Source CFD Toolbox
   \\    /   O peration     | Website:  https://openfoam.org
    \\  /    A nd           | Version:  7
     \\/     M anipulation  |
\*---------------------------------------------------------------------------*/
FoamFile
{
    version     2.0;
    format      ascii;
    class       volVectorField;
    location    "1379.99947341836969";
    object      U;
}
// * * * * * * * * * * * * * * * * * * * * * * * * * * * * * * * * * * * * * //

dimensions      [0 1 -1 0 0 0 0];

internalField   nonuniform List<vector> 
4096
(
(0.001039 0.0001611 0)
(0.0007463 0.0001314 0)
(0.0005302 8.474e-05 0)
(0.0003919 5.358e-05 0)
(0.0003036 3.466e-05 0)
(0.0002457 2.328e-05 0)
(0.0002061 1.632e-05 0)
(0.0001778 1.194e-05 0)
(0.0001568 9.048e-06 0)
(0.0001407 7.059e-06 0)
(0.0001281 5.63e-06 0)
(0.0001179 4.566e-06 0)
(0.0001095 3.749e-06 0)
(0.0001027 3.105e-06 0)
(9.7e-05 2.586e-06 0)
(9.225e-05 2.16e-06 0)
(8.829e-05 1.804e-06 0)
(8.498e-05 1.502e-06 0)
(8.224e-05 1.242e-06 0)
(7.998e-05 1.015e-06 0)
(7.815e-05 8.135e-07 0)
(7.671e-05 6.326e-07 0)
(7.561e-05 4.677e-07 0)
(7.483e-05 3.151e-07 0)
(7.434e-05 1.718e-07 0)
(7.413e-05 3.525e-08 0)
(7.419e-05 -9.668e-08 0)
(7.452e-05 -2.259e-07 0)
(7.51e-05 -3.541e-07 0)
(7.593e-05 -4.828e-07 0)
(7.703e-05 -6.132e-07 0)
(7.839e-05 -7.464e-07 0)
(8.002e-05 -8.835e-07 0)
(8.193e-05 -1.025e-06 0)
(8.412e-05 -1.172e-06 0)
(8.662e-05 -1.325e-06 0)
(8.943e-05 -1.484e-06 0)
(9.257e-05 -1.649e-06 0)
(9.604e-05 -1.82e-06 0)
(9.985e-05 -1.997e-06 0)
(0.000104 -2.178e-06 0)
(0.0001086 -2.362e-06 0)
(0.0001135 -2.547e-06 0)
(0.0001188 -2.731e-06 0)
(0.0001244 -2.912e-06 0)
(0.0001304 -3.087e-06 0)
(0.0001367 -3.25e-06 0)
(0.0001434 -3.399e-06 0)
(0.0001503 -3.527e-06 0)
(0.0001575 -3.631e-06 0)
(0.0001648 -3.703e-06 0)
(0.0001722 -3.74e-06 0)
(0.0001797 -3.734e-06 0)
(0.0001871 -3.681e-06 0)
(0.0001944 -3.576e-06 0)
(0.0002014 -3.416e-06 0)
(0.000208 -3.199e-06 0)
(0.0002141 -2.924e-06 0)
(0.0002196 -2.593e-06 0)
(0.0002244 -2.21e-06 0)
(0.0002284 -1.782e-06 0)
(0.0002315 -1.317e-06 0)
(0.0002337 -8.262e-07 0)
(0.0002348 -3.208e-07 0)
(0.0002349 1.868e-07 0)
(0.0002341 6.845e-07 0)
(0.0002322 1.161e-06 0)
(0.0002295 1.608e-06 0)
(0.0002258 2.016e-06 0)
(0.0002214 2.381e-06 0)
(0.0002164 2.698e-06 0)
(0.0002107 2.965e-06 0)
(0.0002046 3.183e-06 0)
(0.000198 3.351e-06 0)
(0.0001912 3.472e-06 0)
(0.0001842 3.548e-06 0)
(0.000177 3.583e-06 0)
(0.0001699 3.579e-06 0)
(0.0001628 3.542e-06 0)
(0.0001557 3.475e-06 0)
(0.0001489 3.384e-06 0)
(0.0001422 3.271e-06 0)
(0.0001358 3.142e-06 0)
(0.0001297 2.999e-06 0)
(0.0001238 2.848e-06 0)
(0.0001183 2.69e-06 0)
(0.0001131 2.529e-06 0)
(0.0001082 2.368e-06 0)
(0.0001036 2.208e-06 0)
(9.934e-05 2.051e-06 0)
(9.539e-05 1.899e-06 0)
(9.174e-05 1.753e-06 0)
(8.837e-05 1.613e-06 0)
(8.528e-05 1.48e-06 0)
(8.244e-05 1.355e-06 0)
(7.985e-05 1.237e-06 0)
(7.749e-05 1.127e-06 0)
(7.534e-05 1.024e-06 0)
(7.338e-05 9.295e-07 0)
(7.161e-05 8.417e-07 0)
(7.001e-05 7.608e-07 0)
(6.856e-05 6.864e-07 0)
(6.726e-05 6.183e-07 0)
(6.608e-05 5.561e-07 0)
(6.503e-05 4.993e-07 0)
(6.408e-05 4.476e-07 0)
(6.323e-05 4.006e-07 0)
(6.247e-05 3.581e-07 0)
(6.18e-05 3.196e-07 0)
(6.119e-05 2.848e-07 0)
(6.065e-05 2.535e-07 0)
(6.018e-05 2.253e-07 0)
(5.975e-05 2.002e-07 0)
(5.937e-05 1.777e-07 0)
(5.904e-05 1.579e-07 0)
(5.874e-05 1.404e-07 0)
(5.847e-05 1.253e-07 0)
(5.823e-05 1.124e-07 0)
(5.802e-05 1.019e-07 0)
(5.782e-05 9.371e-08 0)
(5.764e-05 8.813e-08 0)
(5.747e-05 8.554e-08 0)
(5.73e-05 8.671e-08 0)
(5.712e-05 9.306e-08 0)
(5.692e-05 1.073e-07 0)
(5.668e-05 1.339e-07 0)
(5.636e-05 1.778e-07 0)
(5.595e-05 2.311e-07 0)
(0.001209 0.0003128 0)
(0.001154 0.0003282 0)
(0.00101 0.000248 0)
(0.0008613 0.0001771 0)
(0.0007345 0.0001262 0)
(0.0006327 9.143e-05 0)
(0.0005526 6.787e-05 0)
(0.0004896 5.172e-05 0)
(0.0004394 4.036e-05 0)
(0.0003992 3.213e-05 0)
(0.0003664 2.601e-05 0)
(0.0003395 2.132e-05 0)
(0.0003171 1.765e-05 0)
(0.0002985 1.471e-05 0)
(0.0002828 1.231e-05 0)
(0.0002697 1.032e-05 0)
(0.0002587 8.65e-06 0)
(0.0002494 7.222e-06 0)
(0.0002417 5.985e-06 0)
(0.0002353 4.901e-06 0)
(0.0002301 3.936e-06 0)
(0.000226 3.067e-06 0)
(0.0002229 2.272e-06 0)
(0.0002206 1.536e-06 0)
(0.0002192 8.436e-07 0)
(0.0002186 1.838e-07 0)
(0.0002188 -4.54e-07 0)
(0.0002197 -1.079e-06 0)
(0.0002213 -1.698e-06 0)
(0.0002236 -2.318e-06 0)
(0.0002267 -2.946e-06 0)
(0.0002305 -3.586e-06 0)
(0.0002351 -4.244e-06 0)
(0.0002404 -4.922e-06 0)
(0.0002466 -5.625e-06 0)
(0.0002536 -6.353e-06 0)
(0.0002614 -7.109e-06 0)
(0.0002701 -7.891e-06 0)
(0.0002798 -8.699e-06 0)
(0.0002904 -9.53e-06 0)
(0.0003019 -1.038e-05 0)
(0.0003145 -1.124e-05 0)
(0.000328 -1.211e-05 0)
(0.0003425 -1.297e-05 0)
(0.000358 -1.38e-05 0)
(0.0003744 -1.461e-05 0)
(0.0003917 -1.536e-05 0)
(0.0004098 -1.604e-05 0)
(0.0004286 -1.662e-05 0)
(0.000448 -1.708e-05 0)
(0.0004678 -1.739e-05 0)
(0.0004878 -1.754e-05 0)
(0.0005079 -1.749e-05 0)
(0.0005278 -1.722e-05 0)
(0.0005472 -1.671e-05 0)
(0.0005659 -1.594e-05 0)
(0.0005835 -1.491e-05 0)
(0.0005998 -1.362e-05 0)
(0.0006144 -1.207e-05 0)
(0.0006272 -1.029e-05 0)
(0.0006378 -8.301e-06 0)
(0.0006461 -6.145e-06 0)
(0.0006518 -3.869e-06 0)
(0.0006549 -1.527e-06 0)
(0.0006553 8.263e-07 0)
(0.0006531 3.136e-06 0)
(0.0006483 5.353e-06 0)
(0.0006411 7.434e-06 0)
(0.0006315 9.342e-06 0)
(0.0006199 1.105e-05 0)
(0.0006065 1.255e-05 0)
(0.0005914 1.381e-05 0)
(0.0005751 1.485e-05 0)
(0.0005576 1.566e-05 0)
(0.0005394 1.625e-05 0)
(0.0005205 1.663e-05 0)
(0.0005013 1.682e-05 0)
(0.000482 1.683e-05 0)
(0.0004628 1.668e-05 0)
(0.0004437 1.639e-05 0)
(0.0004251 1.598e-05 0)
(0.0004069 1.547e-05 0)
(0.0003894 1.489e-05 0)
(0.0003726 1.423e-05 0)
(0.0003565 1.354e-05 0)
(0.0003412 1.281e-05 0)
(0.0003268 1.206e-05 0)
(0.0003132 1.131e-05 0)
(0.0003005 1.056e-05 0)
(0.0002886 9.827e-06 0)
(0.0002776 9.112e-06 0)
(0.0002673 8.422e-06 0)
(0.0002579 7.762e-06 0)
(0.0002492 7.133e-06 0)
(0.0002412 6.538e-06 0)
(0.0002339 5.979e-06 0)
(0.0002271 5.455e-06 0)
(0.000221 4.966e-06 0)
(0.0002155 4.513e-06 0)
(0.0002104 4.092e-06 0)
(0.0002058 3.704e-06 0)
(0.0002016 3.348e-06 0)
(0.0001979 3.02e-06 0)
(0.0001945 2.72e-06 0)
(0.0001914 2.446e-06 0)
(0.0001887 2.196e-06 0)
(0.0001862 1.969e-06 0)
(0.000184 1.763e-06 0)
(0.000182 1.576e-06 0)
(0.0001802 1.407e-06 0)
(0.0001787 1.255e-06 0)
(0.0001772 1.118e-06 0)
(0.000176 9.951e-07 0)
(0.0001749 8.855e-07 0)
(0.0001739 7.883e-07 0)
(0.000173 7.028e-07 0)
(0.0001722 6.286e-07 0)
(0.0001714 5.652e-07 0)
(0.0001708 5.128e-07 0)
(0.0001702 4.716e-07 0)
(0.0001697 4.424e-07 0)
(0.0001691 4.265e-07 0)
(0.0001686 4.262e-07 0)
(0.0001681 4.453e-07 0)
(0.0001676 4.901e-07 0)
(0.000167 5.689e-07 0)
(0.0001664 6.861e-07 0)
(0.0001657 8.085e-07 0)
(0.001226 0.0002775 0)
(0.001243 0.0004027 0)
(0.001194 0.0003664 0)
(0.001102 0.0002982 0)
(0.0009998 0.0002345 0)
(0.0009017 0.000183 0)
(0.0008145 0.0001436 0)
(0.0007395 0.000114 0)
(0.0006759 9.171e-05 0)
(0.0006223 7.466e-05 0)
(0.0005771 6.143e-05 0)
(0.0005389 5.099e-05 0)
(0.0005067 4.261e-05 0)
(0.0004793 3.578e-05 0)
(0.000456 3.013e-05 0)
(0.0004363 2.539e-05 0)
(0.0004195 2.136e-05 0)
(0.0004054 1.789e-05 0)
(0.0003936 1.487e-05 0)
(0.0003838 1.22e-05 0)
(0.0003758 9.818e-06 0)
(0.0003694 7.662e-06 0)
(0.0003646 5.685e-06 0)
(0.0003611 3.849e-06 0)
(0.0003589 2.119e-06 0)
(0.0003579 4.676e-07 0)
(0.0003582 -1.13e-06 0)
(0.0003596 -2.694e-06 0)
(0.0003621 -4.244e-06 0)
(0.0003658 -5.797e-06 0)
(0.0003706 -7.366e-06 0)
(0.0003766 -8.966e-06 0)
(0.0003838 -1.061e-05 0)
(0.0003922 -1.229e-05 0)
(0.0004018 -1.404e-05 0)
(0.0004128 -1.585e-05 0)
(0.000425 -1.771e-05 0)
(0.0004386 -1.965e-05 0)
(0.0004537 -2.164e-05 0)
(0.0004702 -2.368e-05 0)
(0.0004881 -2.576e-05 0)
(0.0005076 -2.787e-05 0)
(0.0005286 -2.998e-05 0)
(0.0005511 -3.207e-05 0)
(0.000575 -3.411e-05 0)
(0.0006003 -3.605e-05 0)
(0.000627 -3.786e-05 0)
(0.0006548 -3.948e-05 0)
(0.0006837 -4.087e-05 0)
(0.0007135 -4.195e-05 0)
(0.0007438 -4.268e-05 0)
(0.0007745 -4.299e-05 0)
(0.0008052 -4.282e-05 0)
(0.0008356 -4.212e-05 0)
(0.0008652 -4.083e-05 0)
(0.0008936 -3.893e-05 0)
(0.0009205 -3.64e-05 0)
(0.0009453 -3.323e-05 0)
(0.0009676 -2.945e-05 0)
(0.0009871 -2.51e-05 0)
(0.001003 -2.026e-05 0)
(0.001016 -1.502e-05 0)
(0.001025 -9.485e-06 0)
(0.001029 -3.794e-06 0)
(0.00103 1.925e-06 0)
(0.001027 7.545e-06 0)
(0.00102 1.294e-05 0)
(0.001009 1.802e-05 0)
(0.0009943 2.269e-05 0)
(0.0009767 2.688e-05 0)
(0.0009563 3.055e-05 0)
(0.0009335 3.368e-05 0)
(0.0009086 3.625e-05 0)
(0.000882 3.827e-05 0)
(0.0008542 3.976e-05 0)
(0.0008254 4.074e-05 0)
(0.000796 4.125e-05 0)
(0.0007664 4.133e-05 0)
(0.0007368 4.101e-05 0)
(0.0007076 4.035e-05 0)
(0.0006789 3.94e-05 0)
(0.0006509 3.819e-05 0)
(0.0006238 3.679e-05 0)
(0.0005977 3.522e-05 0)
(0.0005728 3.354e-05 0)
(0.0005491 3.177e-05 0)
(0.0005267 2.996e-05 0)
(0.0005055 2.813e-05 0)
(0.0004857 2.63e-05 0)
(0.0004672 2.45e-05 0)
(0.0004499 2.275e-05 0)
(0.0004338 2.105e-05 0)
(0.000419 1.943e-05 0)
(0.0004053 1.788e-05 0)
(0.0003927 1.641e-05 0)
(0.0003811 1.502e-05 0)
(0.0003705 1.372e-05 0)
(0.0003608 1.251e-05 0)
(0.000352 1.138e-05 0)
(0.0003439 1.033e-05 0)
(0.0003366 9.367e-06 0)
(0.00033 8.475e-06 0)
(0.000324 7.656e-06 0)
(0.0003185 6.905e-06 0)
(0.0003136 6.218e-06 0)
(0.0003092 5.591e-06 0)
(0.0003053 5.02e-06 0)
(0.0003017 4.501e-06 0)
(0.0002985 4.03e-06 0)
(0.0002956 3.603e-06 0)
(0.000293 3.219e-06 0)
(0.0002907 2.872e-06 0)
(0.0002887 2.561e-06 0)
(0.0002868 2.283e-06 0)
(0.0002852 2.036e-06 0)
(0.0002837 1.818e-06 0)
(0.0002824 1.629e-06 0)
(0.0002812 1.466e-06 0)
(0.0002801 1.331e-06 0)
(0.0002792 1.222e-06 0)
(0.0002783 1.142e-06 0)
(0.0002774 1.093e-06 0)
(0.0002766 1.077e-06 0)
(0.0002758 1.099e-06 0)
(0.000275 1.165e-06 0)
(0.0002742 1.279e-06 0)
(0.0002734 1.431e-06 0)
(0.0002726 1.564e-06 0)
(0.001224 0.0002275 0)
(0.00126 0.0004003 0)
(0.001258 0.0004193 0)
(0.001216 0.0003789 0)
(0.001149 0.0003228 0)
(0.001074 0.0002684 0)
(0.0009977 0.0002214 0)
(0.0009265 0.0001826 0)
(0.0008621 0.0001512 0)
(0.000805 0.0001259 0)
(0.000755 0.0001054 0)
(0.0007115 8.868e-05 0)
(0.0006738 7.491e-05 0)
(0.0006412 6.345e-05 0)
(0.0006131 5.381e-05 0)
(0.000589 4.56e-05 0)
(0.0005683 3.854e-05 0)
(0.0005507 3.241e-05 0)
(0.0005359 2.702e-05 0)
(0.0005235 2.223e-05 0)
(0.0005134 1.792e-05 0)
(0.0005053 1.4e-05 0)
(0.0004991 1.04e-05 0)
(0.0004947 7.031e-06 0)
(0.000492 3.855e-06 0)
(0.0004908 8.155e-07 0)
(0.0004912 -2.128e-06 0)
(0.0004931 -5.015e-06 0)
(0.0004966 -7.876e-06 0)
(0.0005014 -1.074e-05 0)
(0.0005078 -1.364e-05 0)
(0.0005157 -1.659e-05 0)
(0.0005252 -1.96e-05 0)
(0.0005362 -2.271e-05 0)
(0.0005489 -2.592e-05 0)
(0.0005632 -2.923e-05 0)
(0.0005793 -3.265e-05 0)
(0.0005971 -3.618e-05 0)
(0.0006168 -3.981e-05 0)
(0.0006383 -4.353e-05 0)
(0.0006618 -4.732e-05 0)
(0.0006871 -5.115e-05 0)
(0.0007144 -5.497e-05 0)
(0.0007436 -5.874e-05 0)
(0.0007746 -6.241e-05 0)
(0.0008075 -6.591e-05 0)
(0.000842 -6.915e-05 0)
(0.000878 -7.205e-05 0)
(0.0009153 -7.451e-05 0)
(0.0009536 -7.642e-05 0)
(0.0009928 -7.769e-05 0)
(0.001032 -7.819e-05 0)
(0.001072 -7.783e-05 0)
(0.001111 -7.65e-05 0)
(0.001149 -7.413e-05 0)
(0.001185 -7.065e-05 0)
(0.00122 -6.602e-05 0)
(0.001252 -6.026e-05 0)
(0.00128 -5.34e-05 0)
(0.001305 -4.552e-05 0)
(0.001326 -3.676e-05 0)
(0.001342 -2.728e-05 0)
(0.001354 -1.728e-05 0)
(0.00136 -6.986e-06 0)
(0.001361 3.358e-06 0)
(0.001357 1.353e-05 0)
(0.001348 2.33e-05 0)
(0.001334 3.25e-05 0)
(0.001315 4.097e-05 0)
(0.001293 4.859e-05 0)
(0.001267 5.529e-05 0)
(0.001238 6.1e-05 0)
(0.001206 6.572e-05 0)
(0.001172 6.945e-05 0)
(0.001136 7.222e-05 0)
(0.001099 7.407e-05 0)
(0.001061 7.507e-05 0)
(0.001023 7.527e-05 0)
(0.0009847 7.477e-05 0)
(0.0009469 7.365e-05 0)
(0.0009098 7.197e-05 0)
(0.0008735 6.985e-05 0)
(0.0008384 6.734e-05 0)
(0.0008046 6.454e-05 0)
(0.0007722 6.152e-05 0)
(0.0007413 5.834e-05 0)
(0.0007121 5.507e-05 0)
(0.0006844 5.176e-05 0)
(0.0006585 4.845e-05 0)
(0.0006342 4.519e-05 0)
(0.0006115 4.2e-05 0)
(0.0005905 3.891e-05 0)
(0.0005709 3.595e-05 0)
(0.0005529 3.311e-05 0)
(0.0005362 3.042e-05 0)
(0.0005209 2.789e-05 0)
(0.0005069 2.55e-05 0)
(0.000494 2.327e-05 0)
(0.0004823 2.12e-05 0)
(0.0004716 1.927e-05 0)
(0.0004619 1.748e-05 0)
(0.000453 1.584e-05 0)
(0.000445 1.432e-05 0)
(0.0004377 1.293e-05 0)
(0.0004311 1.166e-05 0)
(0.0004252 1.05e-05 0)
(0.0004199 9.437e-06 0)
(0.000415 8.471e-06 0)
(0.0004107 7.595e-06 0)
(0.0004068 6.801e-06 0)
(0.0004033 6.083e-06 0)
(0.0004002 5.435e-06 0)
(0.0003974 4.853e-06 0)
(0.0003949 4.333e-06 0)
(0.0003927 3.869e-06 0)
(0.0003907 3.46e-06 0)
(0.0003889 3.102e-06 0)
(0.0003873 2.793e-06 0)
(0.0003858 2.533e-06 0)
(0.0003845 2.322e-06 0)
(0.0003833 2.16e-06 0)
(0.0003821 2.05e-06 0)
(0.0003811 1.994e-06 0)
(0.00038 1.995e-06 0)
(0.000379 2.054e-06 0)
(0.0003781 2.169e-06 0)
(0.0003771 2.317e-06 0)
(0.0003762 2.434e-06 0)
(0.001219 0.0001846 0)
(0.001255 0.0003712 0)
(0.001275 0.00043 0)
(0.001265 0.0004209 0)
(0.001229 0.0003826 0)
(0.001178 0.0003353 0)
(0.00112 0.0002885 0)
(0.001061 0.0002462 0)
(0.001003 0.0002095 0)
(0.0009497 0.0001783 0)
(0.0009007 0.0001519 0)
(0.0008567 0.0001296 0)
(0.0008176 0.0001108 0)
(0.0007831 9.472e-05 0)
(0.0007528 8.094e-05 0)
(0.0007264 6.903e-05 0)
(0.0007035 5.865e-05 0)
(0.0006839 4.952e-05 0)
(0.0006672 4.142e-05 0)
(0.0006532 3.417e-05 0)
(0.0006417 2.76e-05 0)
(0.0006325 2.158e-05 0)
(0.0006255 1.601e-05 0)
(0.0006206 1.08e-05 0)
(0.0006175 5.858e-06 0)
(0.0006163 1.116e-06 0)
(0.000617 -3.487e-06 0)
(0.0006194 -8.007e-06 0)
(0.0006236 -1.249e-05 0)
(0.0006296 -1.699e-05 0)
(0.0006374 -2.153e-05 0)
(0.0006469 -2.615e-05 0)
(0.0006583 -3.088e-05 0)
(0.0006716 -3.574e-05 0)
(0.0006868 -4.075e-05 0)
(0.000704 -4.593e-05 0)
(0.0007232 -5.126e-05 0)
(0.0007446 -5.676e-05 0)
(0.0007681 -6.242e-05 0)
(0.0007938 -6.819e-05 0)
(0.0008218 -7.407e-05 0)
(0.000852 -7.999e-05 0)
(0.0008845 -8.59e-05 0)
(0.0009192 -9.173e-05 0)
(0.0009561 -9.738e-05 0)
(0.0009951 -0.0001028 0)
(0.001036 -0.0001077 0)
(0.001079 -0.0001122 0)
(0.001123 -0.0001159 0)
(0.001168 -0.0001188 0)
(0.001215 -0.0001207 0)
(0.001261 -0.0001214 0)
(0.001308 -0.0001208 0)
(0.001354 -0.0001187 0)
(0.001399 -0.000115 0)
(0.001442 -0.0001096 0)
(0.001483 -0.0001024 0)
(0.001521 -9.343e-05 0)
(0.001555 -8.28e-05 0)
(0.001584 -7.06e-05 0)
(0.001609 -5.703e-05 0)
(0.001628 -4.236e-05 0)
(0.001641 -2.689e-05 0)
(0.001649 -1.097e-05 0)
(0.00165 5.04e-06 0)
(0.001645 2.078e-05 0)
(0.001635 3.592e-05 0)
(0.001618 5.017e-05 0)
(0.001597 6.33e-05 0)
(0.00157 7.513e-05 0)
(0.001539 8.553e-05 0)
(0.001505 9.444e-05 0)
(0.001467 0.0001018 0)
(0.001427 0.0001077 0)
(0.001385 0.000112 0)
(0.001341 0.000115 0)
(0.001297 0.0001166 0)
(0.001251 0.000117 0)
(0.001206 0.0001163 0)
(0.001161 0.0001147 0)
(0.001117 0.0001122 0)
(0.001074 0.0001089 0)
(0.001033 0.0001051 0)
(0.0009923 0.0001008 0)
(0.0009537 9.62e-05 0)
(0.0009169 9.132e-05 0)
(0.000882 8.628e-05 0)
(0.000849 8.116e-05 0)
(0.000818 7.605e-05 0)
(0.0007889 7.099e-05 0)
(0.0007617 6.605e-05 0)
(0.0007364 6.125e-05 0)
(0.0007129 5.663e-05 0)
(0.0006911 5.222e-05 0)
(0.0006711 4.803e-05 0)
(0.0006526 4.406e-05 0)
(0.0006356 4.034e-05 0)
(0.0006201 3.685e-05 0)
(0.0006058 3.359e-05 0)
(0.0005928 3.057e-05 0)
(0.000581 2.777e-05 0)
(0.0005702 2.518e-05 0)
(0.0005604 2.279e-05 0)
(0.0005516 2.06e-05 0)
(0.0005435 1.859e-05 0)
(0.0005363 1.676e-05 0)
(0.0005297 1.508e-05 0)
(0.0005238 1.355e-05 0)
(0.0005185 1.216e-05 0)
(0.0005137 1.091e-05 0)
(0.0005094 9.765e-06 0)
(0.0005055 8.736e-06 0)
(0.0005021 7.81e-06 0)
(0.000499 6.98e-06 0)
(0.0004962 6.24e-06 0)
(0.0004937 5.584e-06 0)
(0.0004915 5.009e-06 0)
(0.0004895 4.51e-06 0)
(0.0004877 4.087e-06 0)
(0.000486 3.737e-06 0)
(0.0004845 3.46e-06 0)
(0.0004831 3.258e-06 0)
(0.0004819 3.131e-06 0)
(0.0004807 3.08e-06 0)
(0.0004795 3.101e-06 0)
(0.0004784 3.186e-06 0)
(0.0004774 3.305e-06 0)
(0.0004764 3.398e-06 0)
(0.001214 0.000152 0)
(0.001246 0.0003354 0)
(0.001274 0.0004181 0)
(0.001282 0.0004352 0)
(0.001269 0.0004166 0)
(0.00124 0.0003813 0)
(0.0012 0.0003402 0)
(0.001155 0.0002992 0)
(0.001108 0.000261 0)
(0.001061 0.0002267 0)
(0.001017 0.0001965 0)
(0.0009764 0.00017 0)
(0.0009389 0.000147 0)
(0.0009051 0.0001269 0)
(0.0008749 0.0001093 0)
(0.0008481 9.382e-05 0)
(0.0008247 8.015e-05 0)
(0.0008044 6.798e-05 0)
(0.0007869 5.706e-05 0)
(0.0007723 4.718e-05 0)
(0.0007602 3.817e-05 0)
(0.0007505 2.987e-05 0)
(0.0007431 2.213e-05 0)
(0.0007379 1.485e-05 0)
(0.0007348 7.92e-06 0)
(0.0007338 1.247e-06 0)
(0.0007348 -5.248e-06 0)
(0.0007377 -1.164e-05 0)
(0.0007427 -1.799e-05 0)
(0.0007496 -2.436e-05 0)
(0.0007585 -3.08e-05 0)
(0.0007694 -3.735e-05 0)
(0.0007824 -4.405e-05 0)
(0.0007975 -5.094e-05 0)
(0.0008147 -5.804e-05 0)
(0.0008343 -6.535e-05 0)
(0.0008561 -7.29e-05 0)
(0.0008802 -8.066e-05 0)
(0.0009068 -8.863e-05 0)
(0.0009359 -9.677e-05 0)
(0.0009675 -0.000105 0)
(0.001002 -0.0001133 0)
(0.001038 -0.0001216 0)
(0.001077 -0.0001298 0)
(0.001119 -0.0001377 0)
(0.001163 -0.0001452 0)
(0.001209 -0.0001522 0)
(0.001257 -0.0001584 0)
(0.001306 -0.0001636 0)
(0.001358 -0.0001676 0)
(0.00141 -0.0001702 0)
(0.001462 -0.0001712 0)
(0.001515 -0.0001703 0)
(0.001567 -0.0001673 0)
(0.001617 -0.000162 0)
(0.001666 -0.0001544 0)
(0.001712 -0.0001442 0)
(0.001754 -0.0001317 0)
(0.001792 -0.0001167 0)
(0.001826 -9.953e-05 0)
(0.001853 -8.044e-05 0)
(0.001875 -5.979e-05 0)
(0.00189 -3.801e-05 0)
(0.001899 -1.56e-05 0)
(0.0019 6.928e-06 0)
(0.001895 2.908e-05 0)
(0.001883 5.038e-05 0)
(0.001864 7.045e-05 0)
(0.00184 8.894e-05 0)
(0.00181 0.0001056 0)
(0.001776 0.0001203 0)
(0.001737 0.0001328 0)
(0.001695 0.0001433 0)
(0.00165 0.0001516 0)
(0.001602 0.0001578 0)
(0.001553 0.000162 0)
(0.001503 0.0001644 0)
(0.001452 0.0001651 0)
(0.001401 0.0001642 0)
(0.001351 0.000162 0)
(0.001301 0.0001585 0)
(0.001253 0.0001541 0)
(0.001206 0.0001488 0)
(0.00116 0.0001428 0)
(0.001117 0.0001364 0)
(0.001075 0.0001295 0)
(0.001036 0.0001225 0)
(0.0009985 0.0001153 0)
(0.0009634 0.0001081 0)
(0.0009304 0.000101 0)
(0.0008996 9.405e-05 0)
(0.0008708 8.729e-05 0)
(0.0008441 8.078e-05 0)
(0.0008194 7.455e-05 0)
(0.0007966 6.862e-05 0)
(0.0007755 6.301e-05 0)
(0.0007561 5.774e-05 0)
(0.0007383 5.279e-05 0)
(0.0007221 4.817e-05 0)
(0.0007072 4.387e-05 0)
(0.0006936 3.989e-05 0)
(0.0006812 3.62e-05 0)
(0.00067 3.28e-05 0)
(0.0006598 2.968e-05 0)
(0.0006505 2.681e-05 0)
(0.0006421 2.419e-05 0)
(0.0006345 2.179e-05 0)
(0.0006277 1.96e-05 0)
(0.0006215 1.761e-05 0)
(0.000616 1.58e-05 0)
(0.000611 1.416e-05 0)
(0.0006065 1.268e-05 0)
(0.0006025 1.135e-05 0)
(0.0005988 1.015e-05 0)
(0.0005956 9.085e-06 0)
(0.0005927 8.136e-06 0)
(0.0005901 7.299e-06 0)
(0.0005877 6.571e-06 0)
(0.0005856 5.946e-06 0)
(0.0005837 5.423e-06 0)
(0.000582 4.999e-06 0)
(0.0005804 4.674e-06 0)
(0.000579 4.446e-06 0)
(0.0005776 4.312e-06 0)
(0.0005764 4.267e-06 0)
(0.0005752 4.297e-06 0)
(0.0005741 4.37e-06 0)
(0.000573 4.434e-06 0)
(0.00121 0.0001279 0)
(0.001237 0.0003006 0)
(0.001267 0.0003955 0)
(0.001285 0.0004318 0)
(0.001287 0.0004309 0)
(0.001274 0.0004088 0)
(0.00125 0.0003762 0)
(0.001219 0.0003397 0)
(0.001183 0.0003031 0)
(0.001146 0.0002683 0)
(0.001109 0.0002362 0)
(0.001073 0.0002071 0)
(0.00104 0.0001811 0)
(0.001008 0.0001578 0)
(0.00098 0.000137 0)
(0.0009545 0.0001184 0)
(0.0009318 0.0001017 0)
(0.000912 8.663e-05 0)
(0.0008948 7.297e-05 0)
(0.0008803 6.049e-05 0)
(0.0008683 4.901e-05 0)
(0.0008586 3.834e-05 0)
(0.0008513 2.835e-05 0)
(0.0008463 1.888e-05 0)
(0.0008434 9.835e-06 0)
(0.0008427 1.089e-06 0)
(0.000844 -7.451e-06 0)
(0.0008475 -1.587e-05 0)
(0.0008531 -2.426e-05 0)
(0.0008608 -3.268e-05 0)
(0.0008706 -4.12e-05 0)
(0.0008826 -4.987e-05 0)
(0.0008968 -5.875e-05 0)
(0.0009133 -6.786e-05 0)
(0.0009322 -7.725e-05 0)
(0.0009535 -8.692e-05 0)
(0.0009772 -9.688e-05 0)
(0.001003 -0.0001071 0)
(0.001032 -0.0001176 0)
(0.001064 -0.0001284 0)
(0.001098 -0.0001393 0)
(0.001135 -0.0001502 0)
(0.001175 -0.0001611 0)
(0.001217 -0.0001719 0)
(0.001262 -0.0001823 0)
(0.00131 -0.0001921 0)
(0.00136 -0.0002012 0)
(0.001412 -0.0002094 0)
(0.001466 -0.0002162 0)
(0.001521 -0.0002215 0)
(0.001578 -0.0002249 0)
(0.001635 -0.0002261 0)
(0.001692 -0.0002249 0)
(0.001748 -0.000221 0)
(0.001803 -0.000214 0)
(0.001856 -0.000204 0)
(0.001906 -0.0001906 0)
(0.001953 -0.000174 0)
(0.001994 -0.0001543 0)
(0.002031 -0.0001316 0)
(0.002061 -0.0001064 0)
(0.002085 -7.915e-05 0)
(0.002101 -5.037e-05 0)
(0.00211 -2.076e-05 0)
(0.002112 9.008e-06 0)
(0.002106 3.826e-05 0)
(0.002093 6.64e-05 0)
(0.002073 9.288e-05 0)
(0.002047 0.0001173 0)
(0.002014 0.0001393 0)
(0.001977 0.0001586 0)
(0.001935 0.0001752 0)
(0.001889 0.000189 0)
(0.00184 0.0002 0)
(0.001788 0.0002083 0)
(0.001735 0.000214 0)
(0.00168 0.0002172 0)
(0.001625 0.0002182 0)
(0.00157 0.0002171 0)
(0.001515 0.0002142 0)
(0.001462 0.0002098 0)
(0.001409 0.000204 0)
(0.001358 0.000197 0)
(0.001309 0.0001893 0)
(0.001261 0.0001808 0)
(0.001216 0.0001718 0)
(0.001173 0.0001626 0)
(0.001133 0.0001531 0)
(0.001094 0.0001437 0)
(0.001058 0.0001343 0)
(0.001025 0.0001252 0)
(0.0009934 0.0001163 0)
(0.0009642 0.0001077 0)
(0.0009372 9.943e-05 0)
(0.0009122 9.159e-05 0)
(0.0008891 8.417e-05 0)
(0.0008679 7.718e-05 0)
(0.0008484 7.062e-05 0)
(0.0008305 6.449e-05 0)
(0.0008142 5.879e-05 0)
(0.0007992 5.349e-05 0)
(0.0007856 4.859e-05 0)
(0.0007732 4.407e-05 0)
(0.000762 3.99e-05 0)
(0.0007517 3.608e-05 0)
(0.0007425 3.257e-05 0)
(0.0007341 2.937e-05 0)
(0.0007265 2.644e-05 0)
(0.0007196 2.378e-05 0)
(0.0007135 2.136e-05 0)
(0.0007079 1.916e-05 0)
(0.0007029 1.717e-05 0)
(0.0006984 1.538e-05 0)
(0.0006944 1.377e-05 0)
(0.0006908 1.233e-05 0)
(0.0006875 1.105e-05 0)
(0.0006846 9.911e-06 0)
(0.000682 8.918e-06 0)
(0.0006796 8.06e-06 0)
(0.0006775 7.333e-06 0)
(0.0006756 6.733e-06 0)
(0.0006739 6.256e-06 0)
(0.0006723 5.899e-06 0)
(0.0006708 5.657e-06 0)
(0.0006695 5.522e-06 0)
(0.0006682 5.475e-06 0)
(0.0006671 5.491e-06 0)
(0.0006659 5.522e-06 0)
(0.001208 0.0001097 0)
(0.00123 0.0002696 0)
(0.001258 0.0003689 0)
(0.001281 0.0004179 0)
(0.001292 0.0004313 0)
(0.001292 0.0004216 0)
(0.001281 0.0003983 0)
(0.001262 0.000368 0)
(0.001237 0.0003349 0)
(0.001209 0.0003015 0)
(0.00118 0.0002694 0)
(0.001151 0.0002392 0)
(0.001122 0.0002114 0)
(0.001095 0.0001858 0)
(0.00107 0.0001626 0)
(0.001046 0.0001414 0)
(0.001026 0.0001221 0)
(0.001007 0.0001045 0)
(0.000991 8.832e-05 0)
(0.0009773 7.339e-05 0)
(0.0009659 5.952e-05 0)
(0.0009568 4.654e-05 0)
(0.00095 3.429e-05 0)
(0.0009453 2.263e-05 0)
(0.0009429 1.142e-05 0)
(0.0009426 5.401e-07 0)
(0.0009444 -1.012e-05 0)
(0.0009484 -2.066e-05 0)
(0.0009545 -3.118e-05 0)
(0.0009628 -4.176e-05 0)
(0.0009734 -5.248e-05 0)
(0.0009862 -6.339e-05 0)
(0.001001 -7.456e-05 0)
(0.001019 -8.604e-05 0)
(0.001039 -9.786e-05 0)
(0.001061 -0.00011 0)
(0.001086 -0.0001226 0)
(0.001114 -0.0001355 0)
(0.001144 -0.0001487 0)
(0.001178 -0.0001622 0)
(0.001214 -0.0001758 0)
(0.001253 -0.0001896 0)
(0.001294 -0.0002033 0)
(0.001339 -0.0002168 0)
(0.001387 -0.0002298 0)
(0.001437 -0.0002422 0)
(0.001489 -0.0002536 0)
(0.001544 -0.0002638 0)
(0.001601 -0.0002724 0)
(0.001659 -0.0002791 0)
(0.001719 -0.0002834 0)
(0.001779 -0.000285 0)
(0.00184 -0.0002835 0)
(0.0019 -0.0002786 0)
(0.001958 -0.0002699 0)
(0.002014 -0.0002573 0)
(0.002068 -0.0002406 0)
(0.002117 -0.0002197 0)
(0.002161 -0.0001949 0)
(0.0022 -0.0001663 0)
(0.002233 -0.0001345 0)
(0.002258 -0.0001001 0)
(0.002276 -6.372e-05 0)
(0.002286 -2.631e-05 0)
(0.002287 1.129e-05 0)
(0.002281 4.822e-05 0)
(0.002267 8.37e-05 0)
(0.002245 0.0001171 0)
(0.002217 0.0001478 0)
(0.002183 0.0001755 0)
(0.002143 0.0001998 0)
(0.002098 0.0002207 0)
(0.00205 0.0002381 0)
(0.001998 0.0002519 0)
(0.001943 0.0002624 0)
(0.001887 0.0002696 0)
(0.001829 0.0002737 0)
(0.001771 0.000275 0)
(0.001713 0.0002737 0)
(0.001655 0.0002701 0)
(0.001598 0.0002646 0)
(0.001542 0.0002573 0)
(0.001489 0.0002487 0)
(0.001437 0.000239 0)
(0.001387 0.0002283 0)
(0.001339 0.0002171 0)
(0.001294 0.0002055 0)
(0.001251 0.0001937 0)
(0.00121 0.0001818 0)
(0.001172 0.0001701 0)
(0.001137 0.0001586 0)
(0.001104 0.0001474 0)
(0.001073 0.0001365 0)
(0.001044 0.0001262 0)
(0.001018 0.0001163 0)
(0.0009932 0.000107 0)
(0.0009707 9.814e-05 0)
(0.00095 8.986e-05 0)
(0.000931 8.212e-05 0)
(0.0009136 7.491e-05 0)
(0.0008977 6.821e-05 0)
(0.0008832 6.2e-05 0)
(0.00087 5.627e-05 0)
(0.0008579 5.099e-05 0)
(0.000847 4.614e-05 0)
(0.0008371 4.169e-05 0)
(0.0008281 3.762e-05 0)
(0.00082 3.39e-05 0)
(0.0008127 3.051e-05 0)
(0.000806 2.742e-05 0)
(0.0008001 2.462e-05 0)
(0.0007947 2.209e-05 0)
(0.0007898 1.98e-05 0)
(0.0007855 1.774e-05 0)
(0.0007816 1.589e-05 0)
(0.0007781 1.424e-05 0)
(0.000775 1.278e-05 0)
(0.0007721 1.149e-05 0)
(0.0007696 1.037e-05 0)
(0.0007673 9.415e-06 0)
(0.0007653 8.613e-06 0)
(0.0007634 7.961e-06 0)
(0.0007618 7.453e-06 0)
(0.0007602 7.081e-06 0)
(0.0007588 6.835e-06 0)
(0.0007575 6.698e-06 0)
(0.0007563 6.646e-06 0)
(0.0007552 6.642e-06 0)
(0.001206 9.564e-05 0)
(0.001225 0.0002424 0)
(0.001251 0.0003417 0)
(0.001275 0.0003984 0)
(0.001292 0.0004224 0)
(0.0013 0.0004233 0)
(0.001299 0.0004089 0)
(0.00129 0.0003854 0)
(0.001275 0.0003569 0)
(0.001256 0.0003263 0)
(0.001234 0.0002954 0)
(0.001212 0.0002654 0)
(0.001189 0.0002368 0)
(0.001166 0.00021 0)
(0.001145 0.0001851 0)
(0.001125 0.000162 0)
(0.001107 0.0001406 0)
(0.00109 0.0001208 0)
(0.001076 0.0001025 0)
(0.001063 8.531e-05 0)
(0.001053 6.924e-05 0)
(0.001045 5.408e-05 0)
(0.001039 3.967e-05 0)
(0.001035 2.586e-05 0)
(0.001033 1.253e-05 0)
(0.001033 -4.766e-07 0)
(0.001036 -1.326e-05 0)
(0.00104 -2.595e-05 0)
(0.001047 -3.863e-05 0)
(0.001056 -5.141e-05 0)
(0.001067 -6.437e-05 0)
(0.00108 -7.758e-05 0)
(0.001095 -9.112e-05 0)
(0.001113 -0.000105 0)
(0.001134 -0.0001193 0)
(0.001157 -0.0001341 0)
(0.001183 -0.0001493 0)
(0.001211 -0.0001649 0)
(0.001243 -0.0001809 0)
(0.001277 -0.0001973 0)
(0.001314 -0.0002138 0)
(0.001354 -0.0002305 0)
(0.001397 -0.0002471 0)
(0.001443 -0.0002634 0)
(0.001491 -0.0002793 0)
(0.001543 -0.0002943 0)
(0.001597 -0.0003082 0)
(0.001653 -0.0003206 0)
(0.001712 -0.0003311 0)
(0.001772 -0.0003392 0)
(0.001834 -0.0003446 0)
(0.001896 -0.0003466 0)
(0.001959 -0.0003449 0)
(0.002021 -0.0003391 0)
(0.002082 -0.0003287 0)
(0.002141 -0.0003135 0)
(0.002196 -0.0002933 0)
(0.002248 -0.000268 0)
(0.002294 -0.0002378 0)
(0.002335 -0.0002031 0)
(0.002369 -0.0001643 0)
(0.002396 -0.0001222 0)
(0.002414 -7.78e-05 0)
(0.002424 -3.21e-05 0)
(0.002426 1.381e-05 0)
(0.002419 5.885e-05 0)
(0.002404 0.0001021 0)
(0.002382 0.0001427 0)
(0.002352 0.00018 0)
(0.002316 0.0002136 0)
(0.002275 0.0002432 0)
(0.002228 0.0002685 0)
(0.002178 0.0002895 0)
(0.002124 0.0003063 0)
(0.002067 0.000319 0)
(0.002009 0.0003277 0)
(0.001949 0.0003327 0)
(0.001889 0.0003343 0)
(0.001829 0.0003328 0)
(0.001769 0.0003285 0)
(0.001711 0.0003218 0)
(0.001653 0.000313 0)
(0.001598 0.0003026 0)
(0.001544 0.0002908 0)
(0.001493 0.0002779 0)
(0.001444 0.0002644 0)
(0.001397 0.0002503 0)
(0.001353 0.000236 0)
(0.001311 0.0002216 0)
(0.001272 0.0002074 0)
(0.001235 0.0001934 0)
(0.001201 0.0001798 0)
(0.001169 0.0001667 0)
(0.00114 0.0001541 0)
(0.001113 0.0001421 0)
(0.001087 0.0001308 0)
(0.001064 0.0001201 0)
(0.001043 0.00011 0)
(0.001023 0.0001006 0)
(0.001005 9.181e-05 0)
(0.0009887 8.365e-05 0)
(0.0009737 7.609e-05 0)
(0.00096 6.911e-05 0)
(0.0009475 6.266e-05 0)
(0.0009362 5.674e-05 0)
(0.0009259 5.13e-05 0)
(0.0009165 4.632e-05 0)
(0.0009081 4.177e-05 0)
(0.0009004 3.762e-05 0)
(0.0008935 3.384e-05 0)
(0.0008873 3.041e-05 0)
(0.0008817 2.73e-05 0)
(0.0008766 2.448e-05 0)
(0.0008721 2.194e-05 0)
(0.000868 1.967e-05 0)
(0.0008643 1.763e-05 0)
(0.000861 1.582e-05 0)
(0.0008581 1.422e-05 0)
(0.0008555 1.282e-05 0)
(0.0008531 1.161e-05 0)
(0.0008509 1.059e-05 0)
(0.000849 9.746e-06 0)
(0.0008473 9.067e-06 0)
(0.0008458 8.549e-06 0)
(0.0008443 8.178e-06 0)
(0.000843 7.941e-06 0)
(0.0008418 7.815e-06 0)
(0.0008407 7.772e-06 0)
(0.001205 8.443e-05 0)
(0.001221 0.0002189 0)
(0.001245 0.0003154 0)
(0.001269 0.0003762 0)
(0.001289 0.0004077 0)
(0.001302 0.000417 0)
(0.001308 0.0004105 0)
(0.001307 0.0003936 0)
(0.001301 0.0003701 0)
(0.00129 0.000343 0)
(0.001276 0.0003143 0)
(0.001259 0.0002854 0)
(0.001242 0.0002571 0)
(0.001225 0.0002298 0)
(0.001208 0.0002039 0)
(0.001191 0.0001795 0)
(0.001176 0.0001566 0)
(0.001162 0.0001351 0)
(0.00115 0.0001149 0)
(0.001139 9.58e-05 0)
(0.001131 7.778e-05 0)
(0.001124 6.063e-05 0)
(0.001119 4.422e-05 0)
(0.001115 2.841e-05 0)
(0.001114 1.304e-05 0)
(0.001115 -2.003e-06 0)
(0.001118 -1.686e-05 0)
(0.001123 -3.164e-05 0)
(0.00113 -4.645e-05 0)
(0.001139 -6.141e-05 0)
(0.00115 -7.66e-05 0)
(0.001163 -9.211e-05 0)
(0.001179 -0.000108 0)
(0.001197 -0.0001244 0)
(0.001218 -0.0001412 0)
(0.001241 -0.0001586 0)
(0.001267 -0.0001764 0)
(0.001296 -0.0001948 0)
(0.001327 -0.0002137 0)
(0.001361 -0.0002329 0)
(0.001398 -0.0002524 0)
(0.001438 -0.000272 0)
(0.001481 -0.0002916 0)
(0.001528 -0.0003109 0)
(0.001577 -0.0003295 0)
(0.001628 -0.0003473 0)
(0.001683 -0.0003638 0)
(0.00174 -0.0003785 0)
(0.001799 -0.000391 0)
(0.00186 -0.0004007 0)
(0.001922 -0.0004072 0)
(0.001986 -0.0004098 0)
(0.00205 -0.0004081 0)
(0.002113 -0.0004014 0)
(0.002175 -0.0003894 0)
(0.002235 -0.0003716 0)
(0.002292 -0.0003479 0)
(0.002345 -0.0003181 0)
(0.002393 -0.0002824 0)
(0.002435 -0.0002413 0)
(0.00247 -0.0001952 0)
(0.002498 -0.0001452 0)
(0.002517 -9.237e-05 0)
(0.002527 -3.798e-05 0)
(0.002529 1.66e-05 0)
(0.002521 7.009e-05 0)
(0.002506 0.0001213 0)
(0.002482 0.0001694 0)
(0.002452 0.0002135 0)
(0.002415 0.0002531 0)
(0.002372 0.0002879 0)
(0.002325 0.0003177 0)
(0.002273 0.0003424 0)
(0.002218 0.0003622 0)
(0.002161 0.0003771 0)
(0.002102 0.0003873 0)
(0.002041 0.0003931 0)
(0.00198 0.000395 0)
(0.001919 0.0003932 0)
(0.001859 0.0003881 0)
(0.0018 0.0003802 0)
(0.001742 0.0003698 0)
(0.001686 0.0003575 0)
(0.001631 0.0003436 0)