/*--------------------------------*- C++ -*----------------------------------*\
  =========                 |
  \\      /  F ield         | OpenFOAM: The Open Source CFD Toolbox
   \\    /   O peration     | Website:  https://openfoam.org
    \\  /    A nd           | Version:  7
     \\/     M anipulation  |
\*---------------------------------------------------------------------------*/
FoamFile
{
    version     2.0;
    format      ascii;
    class       volScalarField;
    location    "1379.99947341836969";
    object      Y.K;
}
// * * * * * * * * * * * * * * * * * * * * * * * * * * * * * * * * * * * * * //

dimensions      [0 0 0 0 0 0 0];

internalField   nonuniform List<scalar> 
4096
(
1.009e-70
-3.82e-72
1.22e-69
-6.048e-70
-6.03e-71
2.961e-71
5.987e-71
1.048e-70
-2.024e-70
2.927e-69
-3.599e-68
6.091e-67
-8.669e-66
1.262e-64
-1.656e-63
2.08e-62
-2.438e-61
2.738e-60
-2.9e-59
2.963e-58
-2.848e-57
2.649e-56
-2.382e-55
2.045e-54
-1.652e-53
1.293e-52
-9.324e-52
6.734e-51
-4.892e-50
3.608e-49
-2.708e-48
2.075e-47
-1.591e-46
1.236e-45
-9.503e-45
7.236e-44
-5.274e-43
3.605e-42
-2.311e-41
1.361e-40
-6.968e-40
2.843e-39
-7.932e-39
-2.156e-38
4.98e-37
-4.5e-36
2.706e-35
-1.378e-34
5.212e-34
-1.427e-33
1.665e-33
1.9e-32
-8.863e-32
4.53e-31
1.561e-30
7.669e-30
5.932e-29
7.823e-28
2.74e-27
3.9e-26
1.748e-26
6.559e-25
1.785e-24
1.572e-23
5.097e-23
1.505e-22
1.082e-21
3.141e-21
1.024e-20
1.3e-19
1.84e-18
5.237e-18
1.102e-17
2.058e-17
3.608e-17
6.069e-17
9.895e-17
1.572e-16
2.44e-16
3.71e-16
5.534e-16
8.109e-16
1.168e-15
1.657e-15
2.314e-15
3.189e-15
4.336e-15
5.823e-15
7.732e-15
1.015e-14
1.32e-14
1.7e-14
2.171e-14
2.748e-14
3.453e-14
4.307e-14
5.336e-14
6.569e-14
8.039e-14
9.785e-14
1.185e-13
1.428e-13
1.712e-13
2.045e-13
2.433e-13
2.883e-13
3.404e-13
4.006e-13
4.699e-13
5.494e-13
6.406e-13
7.449e-13
8.639e-13
9.993e-13
1.153e-12
1.328e-12
1.525e-12
1.749e-12
2e-12
2.284e-12
2.602e-12
2.958e-12
3.356e-12
3.797e-12
4.279e-12
4.79e-12
5.293e-12
5.688e-12
2.367e-69
-1.334e-68
1.435e-68
-1.814e-69
-5.147e-69
1.407e-69
1.068e-69
7.154e-69
-8.201e-69
1.653e-67
-2.115e-66
3.341e-65
-4.999e-64
7.022e-63
-9.271e-62
1.152e-60
-1.352e-59
1.504e-58
-1.593e-57
1.609e-56
-1.556e-55
1.442e-54
-1.281e-53
1.089e-52
-8.835e-52
6.868e-51
-4.947e-50
3.541e-49
-2.563e-48
1.883e-47
-1.407e-46
1.069e-45
-8.234e-45
6.368e-44
-4.887e-43
3.671e-42
-2.66e-41
1.832e-40
-1.178e-39
6.904e-39
-3.579e-38
1.481e-37
-4.789e-37
-4.57e-37
2.127e-35
-2.072e-34
1.264e-33
-6.607e-33
2.576e-32
-7.372e-32
1.251e-31
8.272e-31
-3.684e-30
2.193e-29
9.137e-29
4.744e-28
3.529e-27
3.831e-26
1.853e-25
1.856e-24
1.874e-24
3.018e-23
9.591e-23
7.053e-22
2.284e-21
6.632e-21
4.09e-20
1.175e-19
3.032e-19
1.778e-18
4.825e-18
1.006e-17
1.881e-17
3.3e-17
5.549e-17
9.032e-17
1.431e-16
2.214e-16
3.355e-16
4.985e-16
7.276e-16
1.044e-15
1.476e-15
2.056e-15
2.826e-15
3.835e-15
5.142e-15
6.818e-15
8.947e-15
1.163e-14
1.497e-14
1.912e-14
2.422e-14
3.044e-14
3.801e-14
4.714e-14
5.81e-14
7.121e-14
8.679e-14
1.052e-13
1.27e-13
1.526e-13
1.826e-13
2.175e-13
2.582e-13
3.054e-13
3.599e-13
4.228e-13
4.953e-13
5.784e-13
6.736e-13
7.824e-13
9.064e-13
1.048e-12
1.208e-12
1.39e-12
1.595e-12
1.827e-12
2.089e-12
2.384e-12
2.715e-12
3.086e-12
3.5e-12
3.962e-12
4.471e-12
5.026e-12
5.608e-12
6.159e-12
-5.525e-68
3.812e-67
-8.936e-67
1.004e-66
-4.685e-67
7.382e-68
-2.364e-67
3.401e-67
-1.905e-67
9.146e-66
-1.137e-64
1.794e-63
-2.685e-62
3.766e-61
-4.954e-60
6.126e-59
-7.147e-58
7.899e-57
-8.303e-56
8.333e-55
-8.004e-54
7.369e-53
-6.503e-52
5.496e-51
-4.433e-50
3.422e-49
-2.455e-48
1.752e-47
-1.262e-46
9.211e-46
-6.829e-45
5.147e-44
-3.931e-43
3.018e-42
-2.304e-41
1.725e-40
-1.249e-39
8.615e-39
-5.57e-38
3.304e-37
-1.755e-36
7.477e-36
-2.882e-35
2.302e-35
7.258e-34
-8.494e-33
5.375e-32
-2.967e-31
1.212e-30
-3.71e-30
9.154e-30
3.03e-29
-1.217e-28
1.097e-27
5.416e-27
3.054e-26
2.173e-25
1.838e-24
1.216e-23
8.43e-23
1.545e-22
1.398e-21
4.945e-21
3.012e-20
9.586e-20
2.612e-19
1.24e-18
3.356e-18
7.081e-18
1.361e-17
2.468e-17
4.283e-17
7.163e-17
1.16e-16
1.827e-16
2.803e-16
4.2e-16
6.161e-16
8.86e-16
1.251e-15
1.738e-15
2.378e-15
3.209e-15
4.276e-15
5.631e-15
7.337e-15
9.469e-15
1.211e-14
1.537e-14
1.935e-14
2.421e-14
3.008e-14
3.717e-14
4.567e-14
5.583e-14
6.792e-14
8.227e-14
9.921e-14
1.192e-13
1.426e-13
1.7e-13
2.02e-13
2.392e-13
2.824e-13
3.324e-13
3.901e-13
4.566e-13
5.33e-13
6.206e-13
7.208e-13
8.352e-13
9.656e-13
1.114e-12
1.282e-12
1.473e-12
1.689e-12
1.932e-12
2.207e-12
2.516e-12
2.863e-12
3.252e-12
3.687e-12
4.174e-12
4.716e-12
5.317e-12
5.982e-12
6.714e-12
7.532e-12
9.346e-67
-7.379e-66
2.429e-65
-4.411e-65
4.142e-65
-8.629e-66
-1.968e-65
7.514e-66
7.146e-66
4.906e-64
-5.817e-63
9.129e-62
-1.363e-60
1.903e-59
-2.486e-58
3.048e-57
-3.522e-56
3.853e-55
-4.01e-54
3.986e-53
-3.793e-52
3.461e-51
-3.029e-50
2.541e-49
-2.035e-48
1.559e-47
-1.113e-46
7.903e-46
-5.653e-45
4.085e-44
-2.993e-43
2.227e-42
-1.679e-41
1.276e-40
-9.669e-40
7.215e-39
-5.228e-38
3.626e-37
-2.371e-36
1.435e-35
-7.877e-35
3.62e-34
-1.615e-33
3.796e-33
1.329e-32
-2.834e-31
1.944e-30
-1.184e-29
5.193e-29
-1.697e-28
6.256e-28
5.942e-28
-1.512e-27
5.685e-26
3.241e-25
1.971e-24
1.358e-23
1.017e-22
6.951e-22
3.437e-21
9.781e-21
5.916e-20
2.162e-19
1.014e-18
2.978e-18
6.83e-18
1.412e-17
2.732e-17
5.018e-17
8.82e-17
1.491e-16
2.432e-16
3.841e-16
5.886e-16
8.774e-16
1.275e-15
1.81e-15
2.516e-15
3.429e-15
4.591e-15
6.051e-15
7.86e-15
1.008e-14
1.278e-14
1.604e-14
1.996e-14
2.463e-14
3.018e-14
3.676e-14
4.454e-14
5.37e-14
6.446e-14
7.709e-14
9.188e-14
1.092e-13
1.293e-13
1.528e-13
1.801e-13
2.118e-13
2.485e-13
2.909e-13
3.399e-13
3.963e-13
4.612e-13
5.357e-13
6.21e-13
7.187e-13
8.302e-13
9.572e-13
1.102e-12
1.266e-12
1.452e-12
1.663e-12
1.902e-12
2.171e-12
2.474e-12
2.815e-12
3.197e-12
3.627e-12
4.107e-12
4.643e-12
5.242e-12
5.908e-12
6.648e-12
7.469e-12
8.378e-12
9.394e-12
1.067e-11
-1.402e-65
1.207e-64
-4.942e-64
1.213e-63
-1.691e-63
6.129e-64
2.141e-63
-4.44e-63
3.338e-63
2.459e-62
-2.851e-61
4.422e-60
-6.55e-59
9.048e-58
-1.167e-56
1.411e-55
-1.606e-54
1.73e-53
-1.774e-52
1.739e-51
-1.634e-50
1.473e-49
-1.275e-48
1.059e-47
-8.413e-47
6.388e-46
-4.533e-45
3.2e-44
-2.267e-43
1.616e-42
-1.164e-41
8.496e-41
-6.288e-40
4.701e-39
-3.522e-38
2.613e-37
-1.896e-36
1.326e-35
-8.815e-35
5.484e-34
-3.145e-33
1.582e-32
-7.964e-32
2.747e-31
-2.607e-31
-6.184e-30
5.405e-29
-3.972e-28
1.928e-27
-7.059e-27
3.636e-26
-2.621e-27
1.124e-25
2.935e-24
1.863e-23
1.219e-22
8.567e-22
5.592e-21
3.583e-20
1.476e-19
4.627e-19
2.012e-18
6.103e-18
1.473e-17
3.205e-17
6.51e-17
1.25e-16
2.281e-16
3.98e-16
6.658e-16
1.071e-15
1.661e-15
2.491e-15
3.622e-15
5.118e-15
7.045e-15
9.471e-15
1.246e-14
1.608e-14
2.04e-14
2.548e-14
3.141e-14
3.827e-14
4.615e-14
5.519e-14
6.551e-14
7.729e-14
9.073e-14
1.061e-13
1.235e-13
1.435e-13
1.663e-13
1.924e-13
2.222e-13
2.564e-13
2.955e-13
3.402e-13
3.913e-13
4.499e-13
5.168e-13
5.932e-13
6.805e-13
7.801e-13
8.935e-13
1.023e-12
1.169e-12
1.336e-12
1.525e-12
1.739e-12
1.981e-12
2.254e-12
2.562e-12
2.91e-12
3.3e-12
3.738e-12
4.23e-12
4.781e-12
5.396e-12
6.083e-12
6.848e-12
7.7e-12
8.646e-12
9.694e-12
1.085e-11
1.214e-11
1.355e-11
1.512e-11
1.725e-11
1.989e-64
-1.816e-63
8.687e-63
-2.668e-62
5.04e-62
-3.209e-62
-8.273e-62
3.161e-61
-5.996e-61
1.673e-60
-1.362e-59
2.041e-58
-2.975e-57
4.031e-56
-5.091e-55
6.017e-54
-6.695e-53
7.057e-52
-7.088e-51
6.814e-50
-6.29e-49
5.584e-48
-4.769e-47
3.914e-46
-3.078e-45
2.315e-44
-1.633e-43
1.145e-42
-8.019e-42
5.62e-41
-3.957e-40
2.812e-39
-2.023e-38
1.473e-37
-1.081e-36
7.931e-36
-5.744e-35
4.054e-34
-2.75e-33
1.77e-32
-1.07e-31
5.952e-31
-2.892e-30
1.356e-29
-3.77e-29
9.005e-30
6.559e-28
-9.59e-27
5.805e-26
-2.315e-25
1.746e-24
-4.041e-25
1.493e-23
1.387e-22
1.021e-21
7.292e-21
5.063e-20
2.63e-19
1.363e-18
4.735e-18
1.318e-17
3.303e-17
7.679e-17
1.673e-16
3.434e-16
6.661e-16
1.225e-15
2.141e-15
3.571e-15
5.699e-15
8.725e-15
1.286e-14
1.829e-14
2.519e-14
3.369e-14
4.385e-14
5.573e-14
6.931e-14
8.458e-14
1.015e-13
1.2e-13
1.403e-13
1.622e-13
1.859e-13
2.117e-13
2.397e-13
2.703e-13
3.039e-13
3.409e-13
3.818e-13
4.273e-13
4.781e-13
5.351e-13
5.99e-13
6.71e-13
7.522e-13
8.44e-13
9.477e-13
1.065e-12
1.198e-12
1.348e-12
1.519e-12
1.711e-12
1.929e-12
2.175e-12
2.452e-12
2.766e-12
3.119e-12
3.516e-12
3.963e-12
4.465e-12
5.028e-12
5.659e-12
6.366e-12
7.155e-12
8.036e-12
9.019e-12
1.011e-11
1.133e-11
1.267e-11
1.417e-11
1.582e-11
1.764e-11
1.965e-11
2.186e-11
2.429e-11
2.696e-11
3.076e-11
-2.747e-63
2.611e-62
-1.404e-61
5.154e-61
-1.248e-60
1.601e-60
1.27e-60
-1.186e-59
3.092e-59
5.217e-60
-5.76e-58
8.901e-57
-1.267e-55
1.666e-54
-2.037e-53
2.329e-52
-2.51e-51
2.566e-50
-2.506e-49
2.348e-48
-2.119e-47
1.845e-46
-1.55e-45
1.255e-44
-9.761e-44
7.279e-43
-5.115e-42
3.567e-41
-2.47e-40
1.7e-39
-1.165e-38
7.999e-38
-5.523e-37
3.853e-36
-2.721e-35
1.94e-34
-1.386e-33
9.801e-33
-6.779e-32
4.538e-31
-2.926e-30
1.773e-29
-9.863e-29
4.844e-28
-2.072e-27
6.951e-27
-1.075e-26
-4.2e-26
6.59e-25
-4.274e-24
6.449e-23
4.541e-23
1.058e-21
7.36e-21
5.799e-20
3.513e-19
1.999e-18
7.688e-18
2.394e-17
6.705e-17
1.736e-16
4.185e-16
9.433e-16
1.993e-15
3.956e-15
7.398e-15
1.307e-14
2.189e-14
3.486e-14
5.297e-14
7.706e-14
1.077e-13
1.451e-13
1.89e-13
2.388e-13
2.936e-13
3.523e-13
4.137e-13
4.767e-13
5.408e-13
6.053e-13
6.7e-13
7.35e-13
8.009e-13
8.682e-13
9.379e-13
1.011e-12
1.089e-12
1.172e-12
1.262e-12
1.362e-12
1.471e-12
1.593e-12
1.729e-12
1.881e-12
2.052e-12
2.244e-12
2.46e-12
2.703e-12
2.977e-12
3.286e-12
3.634e-12
4.025e-12
4.466e-12
4.961e-12
5.517e-12
6.142e-12
6.842e-12
7.627e-12
8.506e-12
9.488e-12
1.058e-11
1.181e-11
1.317e-11
1.469e-11
1.638e-11
1.825e-11
2.032e-11
2.262e-11
2.515e-11
2.795e-11
3.104e-11
3.443e-11
3.815e-11
4.223e-11
4.669e-11
5.155e-11
5.869e-11
3.723e-62
-3.637e-61
2.143e-60
-9.109e-60
2.731e-59
-5.13e-59
1.519e-60
3.187e-58
-1.328e-57
5.011e-57
-3.006e-56
3.708e-55
-4.993e-54
6.273e-53
-7.321e-52
7.995e-51
-8.245e-50
8.097e-49
-7.624e-48
6.919e-47
-6.074e-46
5.166e-45
-4.258e-44
3.398e-43
-2.617e-42
1.938e-41
-1.364e-40
9.502e-40
-6.538e-39
4.437e-38
-2.972e-37
1.967e-36
-1.292e-35
8.467e-35
-5.58e-34
3.722e-33
-2.521e-32
1.73e-31
-1.196e-30
8.3e-30
-5.783e-29
3.863e-28
-2.476e-27
1.382e-26
-7.072e-26
3.129e-25
-1.131e-24
4.656e-24
-9.481e-24
1.196e-23
1.21e-21
3.193e-21
5.89e-20
3.67e-19
2.315e-18
1.011e-17
3.601e-17
1.155e-16
3.411e-16
9.328e-16
2.368e-15
5.588e-15
1.228e-14
2.518e-14
4.83e-14
8.691e-14
1.472e-13
2.356e-13
3.575e-13
5.162e-13
7.122e-13
9.424e-13
1.2e-12
1.477e-12
1.76e-12
2.042e-12
2.311e-12
2.56e-12
2.785e-12
2.987e-12
3.162e-12
3.316e-12
3.454e-12
3.579e-12
3.697e-12
3.813e-12
3.931e-12
4.057e-12
4.194e-12
4.349e-12
4.524e-12
4.724e-12
4.952e-12
5.214e-12
5.513e-12
5.855e-12
6.244e-12
6.686e-12
7.188e-12
7.756e-12
8.398e-12
9.121e-12
9.936e-12
1.085e-11
1.188e-11
1.303e-11
1.432e-11
1.577e-11
1.738e-11
1.917e-11
2.118e-11
2.34e-11
2.588e-11
2.863e-11
3.168e-11
3.505e-11
3.878e-11
4.29e-11
4.744e-11
5.244e-11
5.794e-11
6.397e-11
7.058e-11
7.78e-11
8.569e-11
9.429e-11
1.036e-10
1.175e-10
-4.934e-61
4.909e-60
-3.11e-59
1.496e-58
-5.383e-58
1.368e-57
-1.271e-57
-4.026e-57
2.932e-56
-1.302e-56
-7.856e-55
1.355e-53
-1.771e-52
2.089e-51
-2.286e-50
2.346e-49
-2.284e-48
2.131e-47
-1.918e-46
1.674e-45
-1.423e-44
1.179e-43
-9.519e-43
7.487e-42
-5.72e-41
4.227e-40
-3.003e-39
2.109e-38
-1.458e-37
9.892e-37
-6.573e-36
4.267e-35
-2.701e-34
1.668e-33
-1.008e-32
6.003e-32
-3.562e-31
2.138e-30
-1.317e-29
8.366e-29
-5.405e-28
3.678e-27
-2.269e-26
1.374e-25
-7.675e-25
4.475e-24
-1.756e-23
1.48e-22
-5.621e-22
2.911e-21
2.73e-20
2.592e-19
1.984e-18
9.98e-18
4.143e-17
1.553e-16
5.349e-16
1.698e-15
4.971e-15
1.344e-14
3.354e-14
7.743e-14
1.656e-13
3.289e-13
6.079e-13
1.05e-12
1.701e-12
2.594e-12
3.741e-12
5.123e-12
6.69e-12
8.367e-12
1.006e-11
1.167e-11
1.311e-11
1.435e-11
1.529e-11
1.597e-11
1.64e-11
1.667e-11
1.667e-11
1.659e-11
1.643e-11
1.622e-11
1.598e-11
1.575e-11
1.555e-11
1.54e-11
1.53e-11
1.531e-11
1.538e-11
1.553e-11
1.578e-11
1.614e-11
1.66e-11
1.718e-11
1.789e-11
1.873e-11
1.971e-11
2.085e-11
2.216e-11
2.366e-11
2.535e-11
2.727e-11
2.943e-11
3.186e-11
3.458e-11
3.762e-11
4.101e-11
4.478e-11
4.898e-11
5.364e-11
5.88e-11
6.451e-11
7.083e-11
7.78e-11
8.548e-11
9.393e-11
1.032e-10
1.134e-10
1.246e-10
1.368e-10
1.501e-10
1.646e-10
1.804e-10
1.975e-10
2.159e-10
2.439e-10
6.32e-60
-6.36e-59
4.272e-58
-2.281e-57
9.612e-57
-3.089e-56
6.593e-56
2.615e-56
-8.085e-55
6.324e-54
-4.453e-53
4.817e-52
-5.459e-51
5.857e-50
-5.865e-49
5.546e-48
-5.02e-47
4.396e-46
-3.749e-45
3.13e-44
-2.564e-43
2.064e-42
-1.632e-41
1.267e-40
-9.635e-40
7.15e-39
-5.182e-38
3.714e-37
-2.622e-36
1.818e-35
-1.233e-34
8.149e-34
-5.215e-33
3.218e-32
-1.902e-31
1.071e-30
-5.699e-30
2.837e-29
-1.308e-28
5.538e-28
-2.162e-27
1.018e-26
-4.321e-26
3.71e-26
5.102e-25
-1.369e-24
1.224e-22
6.416e-22
-9.562e-23
1.104e-19
1.14e-18
6.857e-18
3.393e-17
1.514e-16
6.192e-16
2.326e-15
8.026e-15
2.542e-14
7.387e-14
1.971e-13
4.828e-13
1.088e-12
2.259e-12
4.332e-12
7.695e-12
1.272e-11
1.964e-11
2.848e-11
3.894e-11
5.048e-11
6.227e-11
7.35e-11
8.326e-11
9.106e-11
9.612e-11
9.944e-11
9.929e-11
9.801e-11
9.534e-11
9.161e-11
8.717e-11
8.241e-11
7.763e-11
7.303e-11
6.875e-11
6.488e-11
6.147e-11
5.854e-11
5.608e-11
5.41e-11
5.258e-11
5.148e-11
5.079e-11
5.053e-11
5.07e-11
5.119e-11
5.207e-11
5.336e-11
5.505e-11
5.715e-11
5.968e-11
6.266e-11
6.613e-11
7.011e-11
7.464e-11
7.977e-11
8.554e-11
9.202e-11
9.925e-11
1.073e-10
1.163e-10
1.262e-10
1.372e-10
1.493e-10
1.627e-10
1.774e-10
1.936e-10
2.113e-10
2.308e-10
2.52e-10
2.753e-10
3.006e-10
3.281e-10
3.581e-10
3.905e-10
4.257e-10
4.628e-10
5.206e-10
-7.679e-59
7.765e-58
-5.469e-57
3.197e-56
-1.547e-55
6.108e-55
-1.87e-54
3.656e-54
-3.336e-54
3.075e-53
-8.318e-52
1.209e-50
-1.324e-49
1.262e-48
-1.118e-47
9.501e-47
-7.864e-46
6.395e-45
-5.132e-44
4.075e-43
-3.207e-42
2.502e-41
-1.936e-40
1.485e-39
-1.126e-38
8.45e-38
-6.332e-37
4.71e-36
-3.462e-35
2.511e-34
-1.793e-33
1.252e-32
-8.515e-32
5.617e-31
-3.566e-30
2.181e-29
-1.277e-28
7.102e-28
-3.711e-27
1.785e-26
-7.747e-26
2.843e-25
-5.428e-25
-1.913e-24
3.6e-23
-2.788e-22
3.985e-21
-6.624e-22
2.538e-19
2.811e-18
1.838e-17
1.002e-16
4.941e-16
2.231e-15
9.226e-15
3.49e-14
1.207e-13
3.807e-13
1.096e-12
2.881e-12
6.913e-12
1.517e-11
3.048e-11
5.626e-11
9.571e-11
1.509e-10
2.215e-10
3.045e-10
3.937e-10
4.823e-10
5.607e-10
6.243e-10
6.646e-10
6.835e-10
6.773e-10
6.581e-10
6.258e-10
5.842e-10
5.375e-10
4.893e-10
4.421e-10
3.978e-10
3.574e-10
3.213e-10
2.897e-10
2.624e-10
2.392e-10
2.195e-10
2.032e-10
1.897e-10
1.787e-10
1.7e-10
1.632e-10
1.582e-10
1.549e-10
1.527e-10
1.525e-10
1.532e-10
1.551e-10
1.582e-10
1.625e-10
1.68e-10
1.747e-10
1.827e-10
1.921e-10
2.028e-10
2.15e-10
2.289e-10
2.444e-10
2.617e-10
2.81e-10
3.024e-10
3.261e-10
3.522e-10
3.81e-10
4.126e-10
4.472e-10
4.852e-10
5.266e-10
5.719e-10
6.211e-10
6.746e-10
7.327e-10
7.956e-10
8.635e-10
9.37e-10
1.014e-09
1.135e-09
8.574e-58
-8.662e-57
6.336e-56
-4.004e-55
2.184e-54
-1.021e-53
3.932e-53
-1.069e-52
-1.34e-52
3.537e-51
-3.608e-50
2.974e-49
-2.277e-48
1.689e-47
-1.257e-46
9.415e-46
-7.096e-45
5.367e-44
-4.058e-43
3.062e-42
-2.304e-41
1.729e-40
-1.295e-39
9.705e-39
-7.279e-38
5.463e-37
-4.1e-36
3.074e-35
-2.293e-34
1.695e-33
-1.239e-32
8.92e-32
-6.333e-31
4.403e-30
-3.009e-29
2.009e-28
-1.308e-27
8.287e-27
-5.094e-26
3.033e-25
-1.744e-24
9.69e-24
-5.159e-23
2.652e-22
-1.26e-21
7.424e-21
2.553e-20
5.45e-19
6.03e-18
4.272e-17
2.572e-16
1.408e-15
7.062e-15
3.237e-14
1.353e-13
5.149e-13
1.781e-12
5.589e-12
1.591e-11
4.11e-11
9.633e-11
2.051e-10
3.977e-10
7.041e-10
1.143e-09
1.712e-09
2.382e-09
3.094e-09
3.778e-09
4.369e-09
4.772e-09
5.007e-09
4.968e-09
4.812e-09
4.529e-09
4.156e-09
3.733e-09
3.298e-09
2.878e-09
2.489e-09
2.142e-09
1.839e-09
1.58e-09
1.362e-09
1.18e-09
1.029e-09
9.046e-10
8.028e-10
7.197e-10
6.52e-10
5.973e-10
5.533e-10
5.183e-10
4.909e-10
4.7e-10
4.546e-10
4.443e-10
4.378e-10
4.366e-10
4.384e-10
4.436e-10
4.521e-10
4.64e-10
4.793e-10
4.979e-10
5.199e-10
5.455e-10
5.748e-10
6.081e-10
6.454e-10
6.872e-10
7.336e-10
7.851e-10
8.418e-10
9.043e-10
9.729e-10
1.048e-09
1.13e-09
1.22e-09
1.317e-09
1.423e-09
1.537e-09
1.662e-09
1.796e-09
1.94e-09
2.096e-09
2.258e-09
2.515e-09
-8.447e-57
8.438e-56
-6.352e-55
4.3e-54
-2.627e-53
1.462e-52
-7.475e-52
3.547e-51
-1.579e-50
6.708e-50
-2.83e-49
1.263e-48
-7.146e-48
4.631e-47
-3.931e-46
3.338e-45
-2.772e-44
2.212e-43
-1.69e-42
1.238e-41
-8.699e-41
5.878e-40
-3.82e-39
2.39e-38
-1.442e-37
8.433e-37
-4.967e-36
3.168e-35
-2.122e-34
1.413e-33
-9.772e-33
6.988e-32
-5.088e-31
3.746e-30
-2.741e-29
1.981e-28
-1.405e-27
9.72e-27
-6.534e-26
4.264e-25
-2.669e-24
1.665e-23
-9.426e-23
5.744e-22
-2.125e-21
9.369e-20
1.364e-18
1.159e-17
8.412e-17
5.586e-16
3.411e-15
1.909e-14
9.752e-14
4.535e-13
1.914e-12
7.315e-12
2.526e-11
7.871e-11
2.211e-10
5.597e-10
1.277e-09
2.63e-09
4.901e-09
8.287e-09
1.278e-08
1.814e-08
2.383e-08
2.917e-08
3.365e-08
3.663e-08
3.73e-08
3.651e-08
3.454e-08
3.16e-08
2.807e-08
2.434e-08
2.071e-08
1.737e-08
1.442e-08
1.189e-08
9.772e-09
8.036e-09
6.627e-09
5.495e-09
4.589e-09
3.867e-09
3.292e-09
2.834e-09
2.469e-09
2.178e-09
1.946e-09
1.76e-09
1.613e-09
1.496e-09
1.405e-09
1.335e-09
1.282e-09
1.244e-09
1.22e-09
1.205e-09
1.207e-09
1.215e-09
1.232e-09
1.258e-09
1.293e-09
1.336e-09
1.389e-09
1.45e-09
1.521e-09
1.601e-09
1.691e-09
1.792e-09
1.904e-09
2.028e-09
2.165e-09
2.314e-09
2.478e-09
2.657e-09
2.852e-09
3.064e-09
3.293e-09
3.541e-09
3.809e-09
4.098e-09
4.408e-09
4.742e-09
5.087e-09
5.638e-09
6.485e-56
-6.44e-55
4.936e-54
-3.482e-53
2.263e-52
-1.365e-51
7.69e-51
-4.066e-50
2.016e-49
-9.249e-49
3.706e-48
-1.146e-47
-4.701e-47
5.727e-46
-6.438e-45
6.012e-44
-5.007e-43
3.891e-42
-2.873e-41
2.033e-40
-1.385e-39
9.094e-39
-5.74e-38
3.464e-37
-1.973e-36
1.04e-35
-5.084e-35
2.442e-34
-1.029e-33
1.977e-33
1.792e-32
-3.152e-31
3.293e-30
-2.889e-29
2.303e-28
-1.72e-27
1.222e-26
-8.308e-26
5.435e-25
-3.417e-24
2.104e-23
-1.159e-22
7.297e-22
-2.854e-21
1.117e-19
1.776e-18
1.663e-17
1.347e-16
1.001e-15
6.843e-15
4.288e-14
2.453e-13
1.276e-12
6.009e-12
2.555e-11
9.786e-11
3.367e-10
1.039e-09
2.87e-09
7.097e-09
1.571e-08
3.116e-08
5.554e-08
8.93e-08
1.303e-07
1.744e-07
2.159e-07
2.489e-07
2.725e-07
2.715e-07
2.623e-07
2.434e-07
2.174e-07
1.879e-07
1.58e-07
1.3e-07
1.052e-07
8.405e-08
6.663e-08
5.26e-08
4.15e-08
3.282e-08
2.609e-08
2.09e-08
1.69e-08
1.381e-08
1.143e-08
9.581e-09
8.142e-09
7.016e-09
6.133e-09
5.437e-09
4.887e-09
4.453e-09
4.111e-09
3.844e-09
3.637e-09
3.482e-09
3.369e-09
3.293e-09
3.246e-09
3.236e-09
3.249e-09
3.285e-09
3.344e-09
3.426e-09
3.53e-09
3.656e-09
3.804e-09
3.976e-09
4.17e-09
4.389e-09
4.634e-09
4.905e-09
5.204e-09
5.532e-09
5.891e-09
6.283e-09
6.709e-09
7.171e-09
7.671e-09
8.211e-09
8.794e-09
9.419e-09
1.009e-08
1.081e-08
1.155e-08
1.274e-08
-4.177e-55
4.094e-54
-3.174e-53
2.318e-52
-1.593e-51
1.037e-50
-6.461e-50
3.903e-49
-2.328e-48
1.399e-47
-8.759e-47
5.695e-46
-3.625e-45
2.539e-44
-1.806e-43
1.287e-42
-9.113e-42
6.372e-41
-4.388e-40
2.974e-39
-1.983e-38
1.302e-37
-8.428e-37
5.39e-36
-3.415e-35
2.146e-34
-1.354e-33
8.62e-33
-5.498e-32
3.484e-31
-2.204e-30
1.39e-29
-8.72e-29
5.432e-28
-3.351e-27
2.044e-26
-1.229e-25
7.272e-25
-4.221e-24
2.41e-23
-1.306e-22
8.244e-22
-2.995e-21
1.073e-19
1.879e-18
1.941e-17
1.749e-16
1.453e-15
1.113e-14
7.819e-14
5.019e-13
2.928e-12
1.546e-11
7.354e-11
3.142e-10
1.202e-09
4.107e-09
1.25e-08
3.384e-08
8.139e-08
1.739e-07
3.306e-07
5.608e-07
8.533e-07
1.173e-06
1.477e-06
1.719e-06
1.884e-06
1.869e-06
1.788e-06
1.635e-06
1.434e-06
1.212e-06
9.938e-07
7.95e-07
6.236e-07
4.822e-07
3.691e-07
2.809e-07
2.134e-07
1.624e-07
1.242e-07
9.562e-08
7.435e-08
5.847e-08
4.657e-08
3.761e-08
3.083e-08
2.565e-08
2.168e-08
1.86e-08
1.621e-08
1.434e-08
1.287e-08
1.172e-08
1.081e-08
1.01e-08
9.558e-09
9.146e-09
8.846e-09
8.641e-09
8.516e-09
8.474e-09
8.503e-09
8.586e-09
8.727e-09
8.924e-09
9.177e-09
9.485e-09
9.847e-09
1.026e-08
1.074e-08
1.127e-08
1.186e-08
1.252e-08
1.324e-08
1.402e-08
1.488e-08
1.582e-08
1.683e-08
1.792e-08
1.91e-08
2.037e-08
2.174e-08
2.319e-08
2.476e-08
2.635e-08
2.892e-08
1.922e-54
-1.896e-53
1.486e-52
-1.107e-51
7.815e-51
-5.203e-50
3.239e-49
-1.857e-48
9.478e-48
-4.056e-47
1.396e-47
8.047e-46
-1.131e-44
1.168e-43
-1.02e-42
8.084e-42
-6.015e-41
4.275e-40
-2.929e-39
1.945e-38
-1.256e-37
7.875e-37
-4.791e-36
2.813e-35
-1.577e-34
8.44e-34
-4.316e-33
2.055e-32
-8.742e-32
2.869e-31
-1.792e-31
-8.458e-30
1.082e-28
-9.833e-28
7.762e-27
-5.639e-26
3.864e-25
-2.527e-24
1.59e-23
-9.556e-23
5.932e-22
-1.811e-21
8.139e-20
1.586e-18
1.809e-17
1.813e-16
1.679e-15
1.438e-14
1.133e-13
8.162e-13
5.349e-12
3.172e-11
1.694e-10
8.107e-10
3.465e-09
1.318e-08
4.449e-08
1.329e-07
3.503e-07
8.143e-07
1.669e-06
3.024e-06
4.858e-06
6.964e-06
8.98e-06
1.063e-05
1.178e-05
1.168e-05
1.113e-05
1.01e-05
8.756e-06
7.291e-06
5.871e-06
4.598e-06
3.522e-06
2.652e-06
1.972e-06
1.456e-06
1.07e-06
7.874e-07
5.813e-07
4.321e-07
3.241e-07
2.459e-07
1.891e-07
1.474e-07
1.168e-07
9.398e-08
7.689e-08
6.396e-08
5.409e-08
4.649e-08
4.06e-08
3.601e-08
3.241e-08
2.959e-08
2.737e-08
2.565e-08
2.432e-08
2.332e-08
2.26e-08
2.211e-08
2.182e-08
2.172e-08
2.18e-08
2.202e-08
2.237e-08
2.287e-08
2.349e-08
2.425e-08
2.514e-08
2.616e-08
2.731e-08
2.86e-08
3.003e-08
3.161e-08
3.334e-08
3.522e-08
3.727e-08
3.949e-08
4.189e-08
4.447e-08
4.724e-08
5.021e-08
5.338e-08
5.678e-08
6.023e-08
6.58e-08
-9.366e-54
8.045e-53
-6.023e-52
4.729e-51
-3.806e-50
3.078e-49
-2.46e-48
1.922e-47
-1.463e-46
1.083e-45
-7.82e-45
5.518e-44
-3.816e-43
2.596e-42
-1.741e-41
1.153e-40
-7.567e-40
4.922e-39
-3.179e-38
2.041e-37
-1.303e-36
8.274e-36
-5.229e-35
3.288e-34
-2.057e-33
1.279e-32
-7.908e-32
4.854e-31
-2.958e-30
1.788e-29
-1.072e-28
6.363e-28
-3.74e-27
2.174e-26
-1.249e-25
7.083e-25
-3.961e-24
2.183e-23
-1.177e-22
6.44e-22
-2.897e-21
3.39e-20
1.018e-18
1.328e-17
1.481e-16
1.526e-15
1.457e-14
1.283e-13
1.036e-12
7.624e-12
5.079e-11
3.047e-10
1.637e-09
7.833e-09
3.327e-08
1.249e-07
4.131e-07
1.2e-06
3.054e-06
6.803e-06
1.328e-05
2.277e-05
3.447e-05
4.636e-05
5.595e-05
6.358e-05
6.335e-05
6.063e-05
5.505e-05
4.757e-05
3.937e-05
3.141e-05
2.43e-05
1.834e-05
1.357e-05
9.89e-06
7.134e-06
5.115e-06
3.662e-06
2.626e-06
1.894e-06
1.377e-06
1.012e-06
7.534e-07
5.691e-07
4.368e-07
3.408e-07
2.705e-07
2.185e-07
1.797e-07
1.503e-07
1.279e-07
1.106e-07
9.721e-08
8.675e-08
7.857e-08
7.214e-08
6.711e-08
6.32e-08
6.02e-08
5.797e-08
5.636e-08
5.533e-08
5.462e-08
5.463e-08
5.488e-08
5.547e-08
5.64e-08
5.765e-08
5.922e-08
6.11e-08
6.329e-08
6.578e-08
6.858e-08
7.171e-08
7.516e-08
7.894e-08
8.308e-08
8.757e-08
9.243e-08
9.767e-08
1.033e-07
1.094e-07
1.158e-07
1.227e-07
1.301e-07
1.376e-07
1.497e-07
-6.877e-53
6.688e-52
-5.294e-51
4.059e-50
-3.001e-49
2.143e-48
-1.482e-47
9.974e-47
-6.557e-46
4.231e-45
-2.692e-44
1.695e-43
-1.061e-42
6.62e-42
-4.124e-41
2.569e-40
-1.602e-39
1.001e-38
-6.268e-38
3.935e-37
-2.477e-36
1.566e-35
-9.936e-35
6.339e-34
-4.065e-33
2.594e-32
-1.647e-31
1.041e-30
-6.543e-30
4.088e-29
-2.539e-28
1.565e-27
-9.578e-27
5.812e-26
-3.495e-25
2.081e-24
-1.226e-23
7.152e-23
-4.057e-22
2.501e-21
-1.047e-20
3.402e-19
7.37e-18
9.463e-17
1.081e-15
1.146e-14
1.124e-13
1.014e-12
8.358e-12
6.249e-11
4.209e-10
2.537e-09
1.361e-08
6.457e-08
2.698e-07
9.884e-07
3.165e-06
8.829e-06
2.141e-05
4.517e-05
8.315e-05
0.000134
0.0001901
0.0002391
0.0002756
0.0002849
0.0002751
0.000252
0.0002192
0.0001823
0.0001458
0.0001128
8.49e-05
6.245e-05
4.51e-05
3.214e-05
2.269e-05
1.595e-05
1.12e-05
7.889e-06
5.594e-06
4.005e-06
2.902e-06
2.132e-06
1.592e-06
1.208e-06
9.332e-07
7.34e-07
5.879e-07
4.795e-07
3.982e-07
3.365e-07
2.893e-07
2.527e-07
2.243e-07
2.021e-07
1.846e-07
1.709e-07
1.601e-07
1.518e-07
1.455e-07
1.409e-07
1.376e-07
1.356e-07
1.345e-07
1.348e-07
1.357e-07
1.374e-07
1.399e-07
1.431e-07
1.471e-07
1.518e-07
1.571e-07
1.632e-07
1.7e-07
1.776e-07
1.858e-07
1.949e-07
2.047e-07
2.153e-07
2.268e-07
2.391e-07
2.523e-07
2.664e-07
2.814e-07
2.974e-07
3.135e-07
3.396e-07
1.682e-52
-1.642e-51
1.305e-50
-1.004e-49
7.454e-49
-5.342e-48
3.7e-47
-2.48e-46
1.613e-45
-1.02e-44
6.291e-44
-3.8e-43
2.258e-42
-1.326e-41
7.74e-41
-4.523e-40
2.665e-39
-1.593e-38
9.717e-38
-6.069e-37
3.885e-36
-2.543e-35
1.697e-34
-1.149e-33
7.818e-33
-5.244e-32
3.471e-31
-2.271e-30
1.47e-29
-9.412e-29
5.971e-28
-3.753e-27
2.338e-26
-1.444e-25
8.838e-25
-5.364e-24
3.229e-23
-1.915e-22
1.184e-21
-4.384e-21
1.449e-19
3.412e-18
4.755e-17
5.958e-16
6.967e-15
7.574e-14
7.603e-13
6.996e-12
5.855e-11
4.422e-10
2.991e-09
1.797e-08
9.532e-08
4.433e-07
1.798e-06
6.332e-06
1.93e-05
5.084e-05
0.0001156
0.0002278
0.0003908
0.0005871
0.0007749
0.000922
0.001
0.0009796
0.0009144
0.0008109
0.0006868
0.0005588
0.0004391
0.0003346
0.0002484
0.0001805
0.0001288
9.071e-05
6.333e-05
4.401e-05
3.058e-05
2.132e-05
1.498e-05
1.063e-05
7.64e-06
5.573e-06
4.132e-06
3.118e-06
2.396e-06
1.875e-06
1.496e-06
1.215e-06
1.006e-06
8.471e-07
7.259e-07
6.324e-07
5.596e-07
5.027e-07
4.579e-07
4.227e-07
3.951e-07
3.736e-07
3.57e-07
3.446e-07
3.357e-07
3.3e-07
3.259e-07
3.259e-07
3.272e-07
3.303e-07
3.352e-07
3.418e-07
3.502e-07
3.602e-07
3.718e-07
3.849e-07
3.997e-07
4.161e-07
4.342e-07
4.539e-07
4.753e-07
4.985e-07
5.235e-07
5.503e-07
5.79e-07
6.095e-07
6.42e-07
6.766e-07
7.114e-07
7.678e-07
-5.465e-52
5.003e-51
-3.838e-50
2.95e-49
-2.251e-48
1.699e-47
-1.265e-46
9.263e-46
-6.665e-45
4.707e-44
-3.263e-43
2.221e-42
-1.487e-41
9.8e-41
-6.368e-40
4.085e-39
-2.592e-38
1.628e-37
-1.014e-36
6.268e-36
-3.85e-35
2.351e-34
-1.428e-33
8.636e-33
-5.195e-32
3.107e-31
-1.849e-30
1.095e-29
-6.454e-29
3.79e-28
-2.217e-27
1.292e-26
-7.507e-26
4.348e-25
-2.511e-24
1.447e-23
-8.29e-23
4.882e-22
-2.17e-21
3.691e-20
1.202e-18
1.865e-17
2.558e-16
3.281e-15
3.929e-14
4.365e-13
4.465e-12
4.169e-11
3.524e-10
2.671e-09
1.8e-08
1.069e-07
5.541e-07
2.491e-06
9.653e-06
3.209e-05
9.132e-05
0.0002227
0.0004667
0.0008487
0.001336
0.001859
0.002281
0.002603
0.002602
0.002504
0.002293
0.002005
0.001685
0.001367
0.001074
0.0008194
0.0006092
0.000443
0.0003163
0.0002227
0.0001552
0.0001077
7.463e-05
5.191e-05
3.637e-05
2.575e-05
1.847e-05
1.345e-05
9.964e-06
7.512e-06
5.769e-06
4.514e-06
3.6e-06
2.925e-06
2.421e-06
2.039e-06
1.747e-06
1.522e-06
1.347e-06
1.209e-06
1.101e-06
1.016e-06
9.488e-07
8.963e-07
8.556e-07
8.248e-07
8.023e-07
7.87e-07
7.775e-07
7.739e-07
7.76e-07
7.818e-07
7.917e-07
8.056e-07
8.234e-07
8.448e-07
8.698e-07
8.984e-07
9.305e-07
9.662e-07
1.006e-06
1.048e-06
1.095e-06
1.145e-06
1.2e-06
1.258e-06
1.32e-06
1.386e-06
1.456e-06
1.531e-06
1.605e-06
1.726e-06
-1.244e-51
1.221e-50
-9.821e-50
7.714e-49
-5.883e-48
4.358e-47
-3.137e-46
2.197e-45
-1.499e-44
9.995e-44
-6.525e-43
4.183e-42
-2.642e-41
1.648e-40
-1.02e-39
6.276e-39
-3.852e-38
2.365e-37
-1.455e-36
8.984e-36
-5.575e-35
3.479e-34
-2.183e-33
1.377e-32
-8.71e-32
5.483e-31
-3.428e-30
2.131e-29
-1.318e-28
8.117e-28
-4.981e-27
3.047e-26
-1.86e-25
1.133e-24
-6.898e-24
4.197e-23
-2.54e-22
1.618e-21
-5.993e-21
2.129e-19
5.559e-18
8.596e-17
1.203e-15
1.577e-14
1.927e-13
2.179e-12
2.261e-11
2.133e-10
1.811e-09
1.369e-08
9.122e-08
5.298e-07
2.655e-06
1.137e-05
4.137e-05
0.0001273
0.0003317
0.0007359
0.001405
0.002333
0.003323
0.004313
0.005033
0.005233
0.005134
0.004867
0.004434
0.003884
0.003291
0.002707
0.00216
0.001674
0.001263
0.0009309
0.0006723
0.0004778
0.0003358
0.0002344
0.0001634
0.0001142
8.032e-05
5.71e-05
4.112e-05
3.007e-05
2.236e-05
1.692e-05
1.305e-05
1.025e-05
8.205e-06
6.692e-06
5.557e-06
4.696e-06
4.036e-06
3.526e-06
3.127e-06
2.814e-06
2.567e-06
2.371e-06
2.217e-06
2.096e-06
2.002e-06
1.93e-06
1.877e-06
1.841e-06
1.818e-06
1.807e-06
1.811e-06
1.822e-06
1.843e-06
1.873e-06
1.911e-06
1.957e-06
2.011e-06
2.073e-06
2.143e-06
2.221e-06
2.306e-06
2.399e-06
2.501e-06
2.61e-06
2.727e-06
2.852e-06
2.986e-06
3.128e-06
3.278e-06
3.437e-06
3.596e-06
3.853e-06
3e-51
-2.741e-50
2.099e-49
-1.611e-48
1.227e-47
-9.247e-47
6.878e-46
-5.038e-45
3.63e-44
-2.57e-43
1.787e-42
-1.221e-41
8.196e-41
-5.411e-40
3.517e-39
-2.252e-38
1.422e-37
-8.871e-37
5.469e-36
-3.336e-35
2.016e-34
-1.208e-33
7.186e-33
-4.246e-32
2.491e-31
-1.454e-30
8.453e-30
-4.903e-29
2.839e-28
-1.642e-27
9.494e-27
-5.494e-26
3.183e-25
-1.848e-24
1.077e-23
-6.282e-23
3.777e-22
-1.699e-21
3.921e-20
1.348e-18
2.287e-17
3.467e-16
4.939e-15
6.595e-14
8.196e-13
9.401e-12
9.857e-11
9.351e-10
7.935e-09
5.95e-08
3.892e-07
2.192e-06
1.049e-05
4.224e-05
0.0001418
0.0003968
0.0009313
0.001858
0.003223
0.004877
0.006284
0.007882
0.01002
0.01031
0.01019
0.009396
0.007398
0.006212
0.005342
0.004516
0.003693
0.00293
0.00226
0.001701
0.001252
0.0009054
0.000646
0.0004571
0.0003224
0.0002278
0.000162
0.0001163
8.453e-05
6.237e-05
4.679e-05
3.572e-05
2.777e-05
2.199e-05
1.774e-05
1.457e-05
1.218e-05
1.036e-05
8.959e-06
7.867e-06
7.011e-06
6.336e-06
5.802e-06
5.378e-06
5.043e-06
4.779e-06
4.573e-06
4.416e-06
4.301e-06
4.221e-06
4.171e-06
4.147e-06
4.155e-06
4.18e-06
4.226e-06
4.291e-06
4.374e-06
4.475e-06
4.594e-06
4.729e-06
4.881e-06
5.05e-06
5.235e-06
5.436e-06
5.654e-06
5.889e-06
6.14e-06
6.408e-06
6.693e-06
6.994e-06
7.311e-06
7.647e-06
7.98e-06
8.518e-06
7.798e-51
-7.34e-50
5.752e-49
-4.482e-48
3.444e-47
-2.604e-46
1.933e-45
-1.408e-44
1.006e-43
-7.046e-43
4.842e-42
-3.267e-41
2.166e-40
-1.413e-39
9.079e-39
-5.754e-38
3.602e-37
-2.23e-36
1.367e-35
-8.313e-35
5.017e-34
-3.009e-33
1.796e-32
-1.067e-31
6.321e-31
-3.734e-30
2.2e-29
-1.294e-28
7.609e-28
-4.477e-27
2.638e-26
-1.559e-25
9.25e-25
-5.517e-24
3.313e-23
-1.999e-22
1.257e-21
-5.745e-21
1.339e-19
4.604e-18
7.911e-17
1.22e-15
1.768e-14
2.398e-13
3.022e-12
3.504e-11
3.702e-10
3.52e-09
2.974e-08
2.201e-07
1.405e-06
7.615e-06
3.45e-05
0.0001288
0.0003937
0.0009886
0.002071
0.003707
0.005951
0.008285
0.01036
0.009934
0.0108
0.01261
0.01114
0.01149
0.0101
0.0104
0.009017
0.00692
0.005643
0.004554
0.003591
0.002763
0.00208
0.001536
0.001118
0.0008057
0.0005782
0.0004153
0.0002999
0.0002185
0.0001611
0.0001206
9.167e-05
7.09e-05
5.581e-05
4.472e-05
3.648e-05
3.028e-05
2.557e-05
2.195e-05
1.913e-05
1.693e-05
1.52e-05
1.382e-05
1.273e-05
1.186e-05
1.117e-05
1.063e-05