/*--------------------------------*- C++ -*----------------------------------*\
  =========                 |
  \\      /  F ield         | OpenFOAM: The Open Source CFD Toolbox
   \\    /   O peration     | Website:  https://openfoam.org
    \\  /    A nd           | Version:  7
     \\/     M anipulation  |
\*---------------------------------------------------------------------------*/
FoamFile
{
    version     2.0;
    format      ascii;
    class       volScalarField;
    location    "10000";
    object      eps;
}
// * * * * * * * * * * * * * * * * * * * * * * * * * * * * * * * * * * * * * //

dimensions      [0 0 0 0 0 0 0];

internalField   uniform 0.5;

boundaryField
{
    top
    {
        type            calculated;
        value           uniform 0.5;
    }
    inlet
    {
        type            calculated;
        value           uniform 0.5;
    }
    axis
    {
        type            calculated;
        value           uniform 0.5;
    }
    frontAndBack
    {
        type            empty;
    }
}


// ************************************************************************* //
