/*--------------------------------*- C++ -*----------------------------------*\
  =========                 |
  \\      /  F ield         | OpenFOAM: The Open Source CFD Toolbox
   \\    /   O peration     | Website:  https://openfoam.org
    \\  /    A nd           | Version:  7
     \\/     M anipulation  |
\*---------------------------------------------------------------------------*/
FoamFile
{
    version     2.0;
    format      ascii;
    class       volScalarField;
    location    "10000";
    object      p;
}
// * * * * * * * * * * * * * * * * * * * * * * * * * * * * * * * * * * * * * //

dimensions      [1 -1 -2 0 0 0 0];

internalField   nonuniform List<scalar> 
3200
(
109.396
109.411
109.44
109.483
109.539
109.607
109.689
109.782
109.887
110.005
110.134
110.275
110.429
110.595
110.774
110.966
111.172
111.393
111.63
111.884
112.157
112.45
112.766
113.109
113.483
113.893
114.348
114.857
115.436
116.108
116.903
117.872
119.09
121.709
348.946
549.961
736.211
911.58
1077.03
1226.95
106.912
106.927
106.956
106.998
107.053
107.121
107.201
107.292
107.396
107.511
107.638
107.777
107.927
108.09
108.264
108.451
108.651
108.865
109.093
109.336
109.595
109.871
110.166
110.481
110.818
111.178
111.562
111.971
112.403
112.852
113.304
113.73
114.073
114.224
114.12
114.124
114.25
114.502
116.903
171.585
104.397
104.412
104.44
104.481
104.534
104.6
104.678
104.767
104.867
104.979
105.101
105.235
105.379
105.534
105.7
105.878
106.067
106.267
106.479
106.703
106.94
107.189
107.45
107.724
108.009
108.305
108.609
108.919
109.229
109.532
109.816
110.07
110.278
110.431
110.534
110.62
110.701
110.772
110.838
116.412
101.852
101.866
101.893
101.932
101.984
102.047
102.121
102.206
102.302
102.408
102.525
102.651
102.787
102.933
103.088
103.253
103.427
103.61
103.803
104.004
104.214
104.431
104.656
104.887
105.123
105.362
105.601
105.837
106.066
106.285
106.487
106.668
106.824
106.955
107.06
107.146
107.213
107.263
107.313
110.014
99.2782
99.2913
99.3169
99.3544
99.4032
99.463
99.5332
99.6136
99.7037
99.8033
99.9121
100.03
100.156
100.291
100.433
100.584
100.741
100.906
101.078
101.255
101.438
101.625
101.816
102.008
102.202
102.395
102.584
102.768
102.945
103.11
103.264
103.402
103.524
103.629
103.717
103.79
103.847
103.889
103.933
106.031
96.6766
96.6889
96.713
96.7481
96.7939
96.8499
96.9155
96.9905
97.0743
97.1666
97.2671
97.3753
97.491
97.6136
97.7429
97.8783
98.0194
98.1657
98.3164
98.471
98.6287
98.7884
98.9493
99.1101
99.2695
99.4261
99.5785
99.725
99.8642
99.9945
100.115
100.223
100.32
100.405
100.477
100.536
100.584
100.619
100.658
102.496
94.0491
94.0605
94.0829
94.1156
94.1581
94.21
94.2707
94.3398
94.417
94.5016
94.5935
94.692
94.7968
94.9074
95.0234
95.1441
95.2691
95.3978
95.5294
95.6633
95.7986
95.9346
96.0703
96.2047
96.3368
96.4654
96.5896
96.7082
96.8203
96.9249
97.0213
97.1088
97.187
97.2556
97.3145
97.3636
97.4033
97.4337
97.468
99.1501
91.3974
91.408
91.4286
91.4587
91.4978
91.5454
91.6011
91.6643
91.7347
91.8117
91.8949
91.9838
92.078
92.177
92.2802
92.3871
92.4971
92.6097
92.7241
92.8397
92.9558
93.0716
93.1863
93.2992
93.4093
93.516
93.6185
93.7159
93.8077
93.8932
93.9719
94.0435
94.1077
94.1642
94.213
94.2542
94.2879
94.3142
94.3453
95.9224
88.7235
88.7331
88.752
88.7795
88.8152
88.8586
88.9092
88.9666
89.0303
89.0998
89.1746
89.2544
89.3385
89.4265
89.5179
89.6121
89.7086
89.8067
89.906
90.0058
90.1054
90.2042
90.3016
90.3969
90.4895
90.5788
90.6643
90.7453
90.8215
90.8925
90.9578
91.0174
91.0709
91.1182
91.1595
91.1946
91.2238
91.2471
91.2763
92.7776
86.0291
86.0379
86.0551
86.0801
86.1124
86.1517
86.1974
86.2492
86.3065
86.3688
86.4358
86.5069
86.5817
86.6596
86.7402
86.823
86.9074
86.9929
87.079
87.1652
87.2508
87.3354
87.4185
87.4995
87.5779
87.6534
87.7254
87.7936
87.8577
87.9173
87.9724
88.0226
88.068
88.1084
88.1438
88.1743
88.2001
88.2211
88.2489
89.6932
83.3163
83.3243
83.3397
83.3623
83.3914
83.4268
83.4679
83.5143
83.5656
83.6213
83.681
83.7441
83.8104
83.8792
83.9501
84.0227
84.0965
84.171
84.2458
84.3203
84.3942
84.467
84.5382
84.6074
84.6744
84.7387
84.7999
84.858
84.9125
84.9633
85.0103
85.0533
85.0923
85.1273
85.1583
85.1852
85.2083
85.2276
85.2544
86.6543
80.5867
80.5939
80.6078
80.628
80.6542
80.6859
80.7227
80.7642
80.8099
80.8595
80.9125
80.9684
81.027
81.0876
81.15
81.2137
81.2782
81.3432
81.4082
81.4729
81.5368
81.5996
81.661
81.7207
81.7782
81.8334
81.8861
81.936
81.9829
82.0267
82.0673
82.1047
82.1387
82.1695
82.1969
82.2211
82.2422
82.2602
82.2865
83.6503
77.8421
77.8485
77.861
77.8791
77.9025
77.9308
77.9636
78.0006
78.0412
78.0852
78.1322
78.1817
78.2334
78.2868
78.3416
78.3975
78.454
78.5107
78.5674
78.6237
78.6793
78.7338
78.787
78.8387
78.8886
78.9364
78.9821
79.0253
79.0661
79.1044
79.1399
79.1728
79.2029
79.2303
79.255
79.2771
79.2965
79.3135
79.3395
80.6727
75.084
75.0897
75.1008
75.117
75.1379
75.1631
75.1923
75.2251
75.2612
75.3002
75.3418
75.3855
75.4311
75.4782
75.5264
75.5754
75.625
75.6747
75.7243
75.7734
75.822
75.8695
75.916
75.961
76.0045
76.0463
76.0862
76.1242
76.16
76.1937
76.2252
76.2545
76.2815
76.3062
76.3287
76.3491
76.3673
76.3834
76.4096
77.7152
72.3139
72.319
72.3289
72.3432
72.3618
72.3842
72.4102
72.4393
72.4713
72.5058
72.5426
72.5812
72.6215
72.663
72.7054
72.7485
72.7921
72.8357
72.8792
72.9224
72.9649
73.0067
73.0474
73.087
73.1252
73.162
73.1972
73.2308
73.2626
73.2926
73.3208
73.3472
73.3716
73.3942
73.415
73.434
73.4512
73.4667
73.493
74.7726
69.533
69.5375
69.5463
69.5591
69.5756
69.5955
69.6185
69.6443
69.6727
69.7033
69.7358
69.7699
69.8054
69.8421
69.8795
69.9175
69.9559
69.9943
70.0327
70.0707
70.1082
70.145
70.1809
70.2159
70.2498
70.2824
70.3138
70.3437
70.3722
70.3993
70.4248
70.4487
70.4712
70.4921
70.5114
70.5293
70.5458
70.5609
70.5877
71.841
66.7426
66.7467
66.7545
66.7658
66.7804
66.7981
66.8185
66.8413
66.8665
66.8935
66.9223
66.9525
66.9839
67.0162
67.0493
67.0829
67.1168
67.1508
67.1847
67.2183
67.2515
67.2841
67.3161
67.3472
67.3774
67.4066
67.4347
67.4617
67.4875
67.512
67.5353
67.5574
67.5781
67.5976
67.6159
67.6329
67.6487
67.6634
67.6909
68.9164
63.9438
63.9474
63.9543
63.9643
63.9773
63.9929
64.011
64.0313
64.0535
64.0775
64.1029
64.1297
64.1575
64.1861
64.2154
64.2451
64.2751
64.3053
64.3353
64.3652
64.3948
64.4238
64.4524
64.4802
64.5074
64.5337
64.5591
64.5836
64.6071
64.6296
64.6511
64.6716
64.691
64.7094
64.7267
64.743
64.7584
64.7727
64.8008
65.9962
61.1375
61.1406
61.1467
61.1557
61.1671
61.181
61.197
61.215
61.2346
61.2559
61.2784
61.3021
61.3267
61.3521
61.3781
61.4045
61.4311
61.4579
61.4847
61.5113
61.5377
61.5638
61.5894
61.6145
61.639
61.6629
61.686
61.7084
61.7301
61.7509
61.7709
61.7901
61.8085
61.8259
61.8426
61.8584
61.8734
61.8875
61.9168
63.0789
58.3245
58.3273
58.3327
58.3406
58.3507
58.363
58.3772
58.3931
58.4105
58.4293
58.4493
58.4703
58.4921
58.5147
58.5377
58.5612
58.5849
58.6088
58.6327
58.6565
58.6802
58.7036
58.7267
58.7494
58.7717
58.7935
58.8147
58.8354
58.8554
58.8749
58.8937
58.9119
58.9293
58.9462
58.9623
58.9778
58.9926
59.0067
59.0375
60.1634
55.5056
55.5081
55.5129
55.5198
55.5288
55.5397
55.5522
55.5663
55.5818
55.5984
55.6161
55.6347
55.6541
55.6741
55.6946
55.7155
55.7366
55.7579
55.7793
55.8007
55.822
55.8431
55.864
55.8846
55.9049
55.9249
55.9445
55.9636
55.9823
56.0006
56.0184
56.0358
56.0526
56.069
56.0848
56.1001
56.1149
56.1292
56.1622
57.25
52.6815
52.6837
52.6879
52.6941
52.702
52.7116
52.7227
52.7352
52.7488
52.7636
52.7792
52.7957
52.8129
52.8307
52.8489
52.8675
52.8863
52.9053
52.9245
52.9436
52.9628
52.9818
53.0008
53.0196
53.0381
53.0565
53.0746
53.0924
53.1099
53.1272
53.1442
53.1608
53.1772
53.1932
53.209
53.2243
53.2394
53.254
53.2903
54.3405
49.8528
49.8547
49.8585
49.8639
49.8709
49.8794
49.8892
49.9002
49.9122
49.9253
49.9391
49.9537
49.9689
49.9846
50.0008
50.0173
50.0341
50.051
50.0681
50.0853
50.1025
50.1197
50.1368
50.1539
50.1708
50.1877
50.2044
50.2209
50.2374
50.2537
50.2699
50.286
50.3019
50.3178
50.3335
50.3492
50.3647
50.3802
50.4217
51.438
47.02
47.0217
47.025
47.0298
47.036
47.0435
47.0521
47.0618
47.0724
47.0839
47.0961
47.1089
47.1224
47.1363
47.1506
47.1652
47.18
47.1951
47.2103
47.2256
47.241
47.2564
47.2718
47.2872
47.3026
47.318
47.3333
47.3486
47.3639
47.3793
47.3946
47.41
47.4255
47.4411
47.4569
47.4729
47.4891
47.5056
47.5553
48.5464
44.1837
44.1852
44.1881
44.1923
44.1977
44.2043
44.2118
44.2203
44.2296
44.2397
44.2504
44.2617
44.2735
44.2858
44.2983
44.3112
44.3243
44.3376
44.351
44.3646
44.3782
44.3919
44.4056
44.4194
44.4332
44.4471
44.4609
44.4749
44.4889
44.503
44.5173
44.5318
44.5465
44.5615
44.5769
44.5927
44.6092
44.6263
44.6848
45.6672
41.3442
41.3455
41.3481
41.3517
41.3565
41.3622
41.3688
41.3762
41.3844
41.3932
41.4025
41.4124
41.4227
41.4333
41.4443
41.4556
41.467
41.4786
41.4903
41.5022
41.5141
41.5261
41.5382
41.5503
41.5624
41.5746
41.5869
41.5993
41.6118
41.6245
41.6373
41.6504
41.6638
41.6776
41.6917
41.7064
41.7218
41.7379
41.7993
42.7998
38.502
38.5032
38.5054
38.5085
38.5127
38.5176
38.5234
38.5298
38.5369
38.5445
38.5526
38.5611
38.5701
38.5793
38.5888
38.5984
38.6083
38.6183
38.6284
38.6386
38.6489
38.6592
38.6695
38.6799
38.6903
38.7008
38.7113
38.7219
38.7326
38.7435
38.7545
38.7658
38.7772
38.789
38.8011
38.8136
38.8266
38.84
38.894
39.945
35.6574
35.6584
35.6603
35.6631
35.6666
35.6709
35.6758
35.6814
35.6875
35.694
35.701
35.7083
35.7159
35.7238
35.7319
35.7401
35.7485
35.7569
35.7655
35.774
35.7826
35.7912
35.7998
35.8084
35.817
35.8256
35.8342
35.8429
35.8516
35.8604
35.8692
35.8783
35.8874
35.8968
35.9063
35.9161
35.926
35.9361
35.9769
37.1077
32.8108
32.8116
32.8132
32.8156
32.8186
32.8223
32.8265
32.8313
32.8364
32.842
32.8479
32.8541
32.8605
32.8672
32.8739
32.8808
32.8877
32.8947
32.9017
32.9087
32.9157
32.9226
32.9294
32.9362
32.9429
32.9495
32.9561
32.9627
32.9692
32.9757
32.9822
32.9888
32.9954
33.0021
33.009
33.0159
33.023
33.0301
33.0582
34.2911
29.9624
29.9631
29.9645
29.9665
29.969
29.9721
29.9757
29.9797
29.984
29.9887
29.9937
29.9988
30.0042
30.0096
30.0152
30.0208
30.0264
30.032
30.0376
30.0431
30.0484
30.0537
30.0588
30.0638
30.0686
30.0732
30.0777
30.082
30.0862
30.0902
30.0942
30.0981
30.102
30.106
30.11
30.1142
30.1186
30.1232
30.1412
31.4935
27.1125
27.1131
27.1142
27.1159
27.1181
27.1207
27.1236
27.127
27.1306
27.1344
27.1385
27.1427
27.1471
27.1515
27.1559
27.1604
27.1648
27.1691
27.1733
27.1774
27.1813
27.185
27.1885
27.1917
27.1946
27.1973
27.1996
27.2017
27.2034
27.2049
27.2061
27.2071
27.2079
27.2087
27.2095
27.2105
27.212
27.2139
27.2231
28.7043
24.2613
24.2618
24.2628
24.2642
24.2659
24.2681
24.2705
24.2733
24.2762
24.2794
24.2826
24.286
24.2895
24.293
24.2964
24.2999
24.3032
24.3064
24.3094
24.3122
24.3148
24.317
24.319
24.3206
24.3218
24.3226
24.323
24.3228
24.3221
24.3209
24.3192
24.3169
24.3141
24.3109
24.3074
24.304
24.301
24.2989
24.2985
25.837
21.4091
21.4095
21.4103
21.4114
21.4129
21.4146
21.4166
21.4188
21.4212
21.4237
21.4263
21.429
21.4316
21.4343
21.4369
21.4394
21.4418
21.444
21.446
21.4478
21.4492
21.4503
21.451
21.4513
21.4511
21.4503
21.4489
21.4468
21.444
21.4403
21.4357
21.43
21.4232
21.415
21.4056
21.395
21.3834
21.3716
21.3615
21.855
18.556
18.5564
18.557
18.5579
18.5591
18.5605
18.562
18.5638
18.5656
18.5676
18.5696
18.5717
18.5737
18.5757
18.5776
18.5794
18.581
18.5824
18.5836
18.5845
18.585
18.5852
18.585
18.5843
18.583
18.5812
18.5786
18.5753
18.571
18.5657
18.5592
18.5512
18.5413
18.5291
18.5138
18.4941
18.4683
18.4333
18.3841
18.3461
15.7023
15.7025
15.703
15.7038
15.7047
15.7058
15.707
15.7083
15.7098
15.7113
15.7128
15.7143
15.7158
15.7172
15.7185
15.7197
15.7207
15.7216
15.7221
15.7224
15.7224
15.722
15.7212
15.7199
15.7181
15.7157
15.7127
15.709
15.7044
15.699
15.6925
15.6849
15.676
15.6658
15.6541
15.6409
15.6264
15.6114
15.5974
15.5877
12.848
12.8482
12.8486
12.8491
12.8498
12.8506
12.8516
12.8526
12.8536
12.8548
12.8559
12.857
12.858
12.859
12.8599
12.8606
12.8612
12.8616
12.8618
12.8617
12.8613
12.8606
12.8596
12.8581
12.8562
12.8538
12.8509
12.8475
12.8434
12.8388
12.8335
12.8275
12.8209
12.8138
12.8062
12.7984
12.7907
12.7836
12.7775
12.7732
9.99327
9.99342
9.9937
9.9941
9.99461
9.99521
9.99588
9.99661
9.99738
9.99817
9.99895
9.99971
10.0004
10.0011
10.0016
10.0021
10.0024
10.0025
10.0025
10.0022
10.0017
10.0009
9.99988
9.99852
9.99683
9.99478
9.99236
9.98957
9.98639
9.98283
9.97893
9.9747
9.97022
9.96556
9.96085
9.95624
9.95189
9.948
9.94474
9.94225
7.13826
7.13836
7.13855
7.13882
7.13917
7.13957
7.14003
7.14052
7.14103
7.14155
7.14206
7.14255
7.143
7.1434
7.14372
7.14396
7.14409
7.1441
7.14397
7.14368
7.14322
7.14257
7.14171
7.14064
7.13934
7.13781
7.13604
7.13403
7.1318
7.12937
7.12675
7.124
7.12115
7.11827
7.11544
7.11272
7.11021
7.10798
7.1061
7.1046
4.28304
4.28309
4.2832
4.28336
4.28356
4.2838
4.28406
4.28434
4.28463
4.28493
4.28522
4.28549
4.28574
4.28595
4.28611
4.28622
4.28627
4.28624
4.28612
4.28591
4.28559
4.28516
4.28461
4.28393
4.28313
4.28219
4.28112
4.27993
4.27862
4.27721
4.27572
4.27418
4.2726
4.27104
4.26952
4.26808
4.26675
4.26558
4.26457
4.26375
1.42769
1.42771
1.42775
1.4278
1.42786
1.42794
1.42803
1.42812
1.42821
1.42831
1.4284
1.42849
1.42857
1.42863
1.42868
1.42872
1.42872
1.42871
1.42866
1.42859
1.42847
1.42832
1.42814
1.4279
1.42763
1.42732
1.42696
1.42657
1.42614
1.42568
1.42519
1.4247
1.42419
1.4237
1.42322
1.42276
1.42235
1.42198
1.42166
1.4214
1254.08
1145.64
993.011
834.939
671.594
502.552
326.692
140.685
120.712
119.053
117.787
116.783
115.962
115.271
114.676
114.156
113.693
113.277
112.899
112.555
112.238
111.946
111.676
111.426
111.195
110.98
110.782
110.598
110.429
110.274
110.133
110.005
109.891
109.789
109.702
109.627
109.567
109.521
109.489
109.473
170.089
116.812
113.71
113.586
113.564
113.643
113.837
114.17
114.315
114.086
113.683
113.211
112.725
112.251
111.8
111.377
110.983
110.616
110.275
109.957
109.662
109.387
109.13
108.891
108.668
108.46
108.268
108.089
107.925
107.773
107.635
107.51
107.397
107.298
107.212
107.139
107.079
107.034
107.003
106.987
113.384
110.379
110.328
110.309
110.299
110.305
110.318
110.322
110.273
110.141
109.934
109.673
109.378
109.063
108.742
108.423
108.111
107.809
107.52
107.244
106.982
106.734
106.5
106.28
106.072
105.878
105.696
105.527
105.37
105.226
105.093
104.973
104.864
104.768
104.685
104.614
104.557
104.513
104.483
104.468
107.951
106.982
106.963
106.95
106.931
106.906
106.87
106.817
106.738
106.627
106.481
106.304
106.102
105.881
105.648
105.407
105.164
104.922
104.684
104.452
104.227
104.011
103.803
103.606
103.418
103.24
103.073
102.916
102.77
102.634
102.51
102.396
102.294
102.203
102.123
102.056
102.001
101.959
101.93
101.916
104.227
103.654
103.643
103.631
103.609
103.577
103.533
103.474
103.399
103.305
103.191
103.058
102.908
102.744
102.567
102.382
102.192
101.998
101.804
101.611
101.422
101.236
101.056
100.882
100.716
100.556
100.405
100.263
100.129
100.004
99.8887
99.7832
99.6877
99.6026
99.5283
99.465
99.4134
99.3738
99.3468
99.3329
100.83
100.396
100.388
100.377
100.356
100.326
100.285
100.233
100.169
100.091
99.9999
99.8958
99.7793
99.6516
99.5142
99.3689
99.2174
99.0616
98.9031
98.7437
98.5847
98.4273
98.2729
98.1222
97.9762
97.8356
97.7011
97.5732
97.4524
97.3393
97.2341
97.1375
97.0497
96.9712
96.9025
96.8439
96.7959
96.7591
96.7339
96.721
97.5702
97.2045
97.1984
97.1884
97.1706
97.1446
97.1098
97.0657
97.0121
96.9487
96.8753
96.7921
96.6994
96.598
96.4887
96.3725
96.2505
96.1239
95.994
95.8621
95.7291
95.5963
95.4647
95.3351
95.2085
95.0857
94.9672
94.8539
94.7462
94.6448
94.5501
94.4626
94.3829
94.3114
94.2486
94.1949
94.1508
94.117
94.0938
94.0819
94.3963
94.0701
94.0652
94.0569
94.0421
94.0204
93.9915
93.9551
93.9111
93.8594
93.7999
93.7327
93.658
93.5763
93.488
93.3939
93.2946
93.1911
93.084
92.9745
92.8633
92.7514
92.6396
92.5288
92.4197
92.3131
92.2097
92.1102
92.0151
91.925
91.8406
91.7623
91.6906
91.6261
91.5693
91.5206
91.4806
91.4498
91.4287
91.4178
91.2844
90.9837
90.98
90.9732
90.961
90.9431
90.9193
90.8895
90.8536
90.8113
90.7628
90.7081
90.6474
90.5809
90.509
90.4321
90.3506
90.2653
90.1767
90.0855
89.9924
89.8981
89.8034
89.7089
89.6153
89.5233
89.4335
89.3467
89.2633
89.184
89.1093
89.0397
88.9759
88.9182
88.8673
88.8236
88.7876
88.7598
88.7407
88.7309
88.2201
87.9373
87.9344
87.9289
87.9189
87.9042
87.8848
87.8603
87.8309
87.7963
87.7566
87.7119
87.6622
87.6077
87.5486
87.4853
87.4181
87.3475
87.2738
87.1976
87.1196
87.0401
86.9598
86.8793
86.7993
86.7202
86.6426
86.5672
86.4945
86.4251
86.3595
86.2982
86.2417
86.1905
86.1452
86.1063
86.0741
86.0493
86.0322
86.0235
85.1933
84.9237
84.9215
84.9171
84.9089
84.8969
84.8809
84.8609
84.8367
84.8083
84.7756
84.7388
84.6979
84.653
84.6043
84.5519
84.4962
84.4374
84.376
84.3122
84.2466
84.1796
84.1116
84.0431
83.9747
83.9069
83.8401
83.7749
83.7119
83.6514
83.594
83.5403
83.4906
83.4456
83.4055
83.3711
83.3426
83.3205
83.3054
83.2976
82.1969
81.9373
81.9357
81.932
81.9253
81.9155
81.9023
81.8858
81.8659
81.8425
81.8156
81.7852
81.7513
81.7141
81.6737
81.6302
81.5838
81.5348
81.4834
81.4299
81.3746
81.318
81.2604
81.2022
81.1439
81.0858
81.0285
80.9723
80.9178
80.8653
80.8154
80.7685
80.7251
80.6856
80.6504
80.6201
80.595
80.5755
80.5621
80.5553
79.2255
78.9733
78.9721
78.9691
78.9636
78.9555
78.9447
78.931
78.9145
78.8952
78.8729
78.8477
78.8196
78.7886
78.755
78.7187
78.68
78.6389
78.5958
78.5508
78.5043
78.4564
78.4076
78.3581
78.3084
78.2588
78.2096
78.1613
78.1143
78.0689
78.0257
77.9849
77.9471
77.9127
77.8819
77.8554
77.8333
77.8163
77.8045
77.7985
76.2748
76.0279
76.0271
76.0246
76.0201
76.0134
76.0044
75.9931
75.9794
75.9633
75.9447
75.9237
75.9003
75.8745
75.8464
75.8161
75.7836
75.7492
75.7129
75.675
75.6357
75.5952
75.5538
75.5118
75.4694
75.427
75.3849
75.3435
75.303
75.264
75.2266
75.1913
75.1585
75.1285
75.1018
75.0786
75.0594
75.0445
75.0342
75.0289
73.3417
73.0982
73.0975
73.0955
73.0917
73.0861
73.0786
73.0692
73.0577
73.0443
73.0288
73.0112
72.9917
72.9701
72.9465
72.9211
72.8938
72.8648
72.8343
72.8023
72.7691
72.7348
72.6997
72.664
72.6279
72.5917
72.5557
72.5202
72.4855
72.4518
72.4196
72.3892
72.3608
72.3348
72.3116
72.2915
72.2748
72.2618
72.2529
72.2483
70.4235
70.1814
70.1808
70.1791
70.1759
70.1712
70.1649
70.157
70.1474
70.1361
70.1231
70.1084
70.092
70.0738
70.054
70.0326
70.0097
69.9852
69.9595
69.9325
69.9044
69.8753
69.8455
69.8151
69.7844
69.7535
69.7228
69.6924
69.6626
69.6337
69.606
69.5798
69.5553
69.5329
69.5128
69.4954
69.4809
69.4697
69.4619
69.4579
67.5179
67.2755
67.2748
67.2733
67.2706
67.2666
67.2613
67.2546
67.2465
67.237
67.2261
67.2137
67.1998
67.1845
67.1679
67.1498
67.1304
67.1098
67.088
67.0652
67.0414
67.0167
66.9914
66.9656
66.9394
66.9131
66.8869
66.8609
66.8354
66.8106
66.7869
66.7643
66.7432
66.7239
66.7066
66.6916
66.6791
66.6693
66.6626
66.6592
64.6232
64.3786
64.3779
64.3766
64.3742
64.3707
64.3662
64.3605
64.3536
64.3456
64.3363
64.3258
64.3141
64.3012
64.2871
64.2718
64.2554
64.238
64.2195
64.2002
64.18
64.1591
64.1376
64.1156
64.0934
64.0709
64.0485
64.0263
64.0045
63.9833
63.963
63.9436
63.9255
63.9089
63.894
63.8811
63.8703
63.8619
63.8561
63.8531
61.7379
61.4893
61.4885
61.4872
61.4851
61.4821
61.4782
61.4733
61.4674
61.4605
61.4526
61.4437
61.4338
61.4228
61.4109
61.3979
61.384
61.3692
61.3536
61.3372
61.32
61.3023
61.284
61.2654
61.2464
61.2273
61.2082
61.1893
61.1706
61.1525
61.1351
61.1185
61.103
61.0887
61.0759
61.0648
61.0556
61.0483
61.0434
61.0408
58.8605
58.6063
58.6054
58.6041
58.6022
58.5995
58.5961
58.5918
58.5867
58.5808
58.5741
58.5664
58.558
58.5486
58.5385
58.5275
58.5157
58.5031
58.4899
58.4759
58.4614
58.4463
58.4308
58.4149
58.3988
58.3825
58.3662
58.3501
58.3342
58.3187
58.3038
58.2897
58.2764
58.2642
58.2532
58.2437
58.2357
58.2295
58.2253
58.2231
55.9899
55.7287
55.7275
55.7263
55.7244
55.722
55.7189
55.7152
55.7107
55.7056
55.6998
55.6932
55.686
55.678
55.6693
55.66
55.6499
55.6392
55.628
55.6161
55.6038
55.591
55.5778
55.5643
55.5506
55.5368
55.5229
55.5092
55.4956
55.4825
55.4697
55.4576
55.4463
55.4359
55.4265
55.4183
55.4115
55.4062
55.4026
55.4007
53.1249
52.8555
52.854
52.8527
52.8509
52.8486
52.8458
52.8424
52.8385
52.834
52.829
52.8233
52.8171
52.8103
52.8028
52.7949
52.7863
52.7772
52.7677
52.7576
52.7471
52.7363
52.7251
52.7136
52.702
52.6903
52.6785
52.6668
52.6553
52.6441
52.6332
52.6229
52.6133
52.6044
52.5964
52.5894
52.5836
52.5791
52.576
52.5743
50.2644
49.9858
49.984
49.9826
49.9808
49.9786
49.976
49.9729
49.9694
49.9655
49.9611
49.9562
49.9508
49.9449
49.9386
49.9318
49.9245
49.9168
49.9087
49.9001
49.8913
49.8821
49.8726
49.8629
49.853
49.8431
49.8331
49.8232
49.8134
49.8039
49.7947
49.786
49.7777
49.7702
49.7634
49.7574
49.7525
49.7486
49.746
49.7446
47.4077
47.1189
47.1167
47.1152
47.1134
47.1113
47.1088
47.106
47.1028
47.0993
47.0954
47.0912
47.0865
47.0815
47.0761
47.0703
47.0641
47.0576
47.0507
47.0435
47.036
47.0283
47.0203
47.0121
47.0038
46.9954
46.987
46.9786
46.9703
46.9623
46.9545
46.947
46.9401
46.9337
46.9279
46.9229
46.9187
46.9154
46.9131
46.912
44.5538
44.254
44.2515
44.2499
44.248
44.2459
44.2435
44.241
44.2381
44.235
44.2316
44.2279
44.2239
44.2196
44.215
44.2101
44.205
44.1995
44.1937
44.1877
44.1814
44.1749
44.1681
44.1613
44.1543
44.1472
44.1401
44.1331
44.1261
44.1194
44.1128
44.1065
44.1006
44.0952
44.0904
44.0861
44.0825
44.0798
44.0779
44.0769
41.7024
41.3905
41.3877
41.3859
41.384
41.3819
41.3797
41.3773
41.3747
41.372
41.3691
41.3659
41.3625
41.3589
41.3551
41.351
41.3467
41.3422
41.3374
41.3324
41.3271
41.3217
41.3162
41.3104
41.3046
41.2987
41.2928
41.2869
41.2811
41.2754
41.2699
41.2647
41.2597
41.2552
41.2511
41.2475
41.2445
41.2421
41.2405
41.2397
38.8534
38.5277
38.5246
38.5227
38.5207
38.5187
38.5166
38.5145
38.5122
38.5099
38.5074
38.5048
38.5021
38.4991
38.496
38.4927
38.4892
38.4855
38.4816
38.4776
38.4733
38.4689
38.4643
38.4596
38.4548
38.45
38.4451
38.4402
38.4354
38.4306
38.426
38.4217
38.4175
38.4137
38.4103
38.4073
38.4048
38.4028
38.4015
38.4008
36.0059
35.6646
35.6614
35.6594
35.6575
35.6556
35.6538
35.652
35.6502
35.6483
35.6464
35.6444
35.6423
35.64
35.6376
35.6351
35.6324
35.6295
35.6264
35.6232
35.6198
35.6163
35.6126
35.6088
35.605
35.601
35.597
35.593
35.589
35.5851
35.5813
35.5777
35.5743
35.5711
35.5683
35.5658
35.5637
35.5621
35.561
35.5604
33.1574
32.8004
32.7972
32.7953
32.7936
32.7921
32.7907
32.7894
32.7881
32.7869
32.7856
32.7843
32.7829
32.7814
32.7798
32.778
32.7761
32.774
32.7717
32.7693
32.7667
32.764
32.7612
32.7582
32.7551
32.7519
32.7487
32.7455
32.7423
32.7391
32.736
32.733
32.7302
32.7276
32.7253
32.7232
32.7215
32.7202
32.7192
32.7187
30.3026
29.9339
29.9311
29.9295
29.9284
29.9275
29.9268
29.9263
29.9259
29.9255
29.9251
29.9246
29.924
29.9233
29.9225
29.9215
29.9204
29.9191
29.9176
29.9159
29.9141
29.9121
29.9099
29.9077
29.9053
29.9029
29.9003
29.8978
29.8952
29.8927
29.8902
29.8878
29.8855
29.8834
29.8815
29.8798
29.8784
29.8773
29.8765
29.8761
27.4344
27.0634
27.0616
27.061
27.0609
27.0612
27.0618
27.0625
27.0633
27.0641
27.0648
27.0653
27.0657
27.0659
27.066
27.0658
27.0654
27.0648
27.064
27.063
27.0619
27.0605
27.0591
27.0574
27.0557
27.0538
27.0519
27.0499
27.0479
27.0459
27.044
27.042
27.0402
27.0385
27.037
27.0356
27.0345
27.0336
27.0329
27.0326
24.5356
24.1866
24.187
24.1884
24.1906
24.1932
24.1959
24.1985
24.201
24.2033
24.2053
24.207
24.2084
24.2096
24.2104
24.211
24.2113
24.2114
24.2113
24.2109
24.2103
24.2095
24.2086
24.2075
24.2063
24.205
24.2036
24.2021
24.2005
24.199
24.1975
24.196
24.1945
24.1932
24.1919
24.1909
24.1899
24.1892
24.1887
24.1885
21.4557
21.2981
21.3038
21.3108
21.3179
21.3246
21.3305
21.3358
21.3404
21.3443
21.3477
21.3505
21.3529
21.3548
21.3564
21.3576
21.3585
21.3591
21.3594
21.3596
21.3594
21.3591
21.3587
21.358
21.3572
21.3563
21.3553
21.3543
21.3531
21.352
21.3508
21.3496
21.3485
21.3475
21.3465
21.3457
21.3449
21.3444
21.344
21.3438
18.3451
18.3807
18.4118
18.4335
18.4494
18.4614
18.4707
18.4782
18.4842
18.4892
18.4934
18.4969
18.4998
18.5022
18.5042
18.5058
18.507
18.508
18.5087
18.5092
18.5094
18.5094
18.5093
18.509
18.5085
18.508
18.5073
18.5065
18.5057
18.5049
18.504
18.5032
18.5023
18.5015
18.5008
18.5001
18.4995
18.4991
18.4988
18.4986
15.5848
15.5884
15.5952
15.6031
15.6108
15.6181
15.6246
15.6303
15.6353
15.6397
15.6435
15.6468
15.6496
15.652
15.654
15.6557
15.6571
15.6582
15.6591
15.6597
15.6602
15.6604
15.6605
15.6604
15.6602
15.6599
15.6595
15.659
15.6584
15.6578
15.6572
15.6566
15.656
15.6553
15.6548
15.6543
15.6539
15.6535
15.6533
15.6532
12.7709
12.7705
12.7717
12.7741
12.7772
12.7807
12.7842
12.7877
12.7911
12.7942
12.7971
12.7997
12.802
12.804
12.8058
12.8073
12.8086
12.8097
12.8105
12.8112
12.8117
12.8121
12.8123
12.8123
12.8123
12.8121
12.8119
12.8116
12.8112
12.8108
12.8104
12.8099
12.8095
12.8091
12.8086
12.8083
12.808
12.8077
12.8075
12.8074
9.9406
9.93975
9.93967
9.94026
9.94138
9.94289
9.94468
9.94661
9.94861
9.95059
9.95251
9.95432
9.956
9.95754
9.95892
9.96014
9.9612
9.9621
9.96285
9.96347
9.96394
9.96429
9.96453
9.96466
9.9647
9.96466
9.96455
9.96437
9.96414
9.96388
9.96359
9.96328
9.96297
9.96267
9.96238
9.96212
9.96189
9.96171
9.96159
9.96152
7.1035
7.10279
7.10246
7.1025
7.10285
7.10348
7.10432
7.10532
7.10642
7.10758
7.10875
7.1099
7.11101
7.11204
7.113
7.11386
7.11463
7.1153
7.11587
7.11634
7.11672
7.11701
7.11722
7.11736
7.11743
7.11743
7.11738
7.11729
7.11716
7.117
7.11682
7.11662
7.11642
7.11622
7.11603
7.11586
7.11571
7.11559
7.11551
7.11546
4.26313
4.26268
4.26242
4.26233
4.26242
4.26266
4.26302
4.26349
4.26403
4.26462
4.26524
4.26586
4.26648
4.26707
4.26762
4.26813
4.26859
4.26899
4.26934
4.26964
4.26988
4.27007
4.27021
4.27031
4.27037
4.27038
4.27037
4.27033
4.27026
4.27018
4.27008
4.26997
4.26986
4.26974
4.26964
4.26954
4.26945
4.26939
4.26934
4.26931
1.4212
1.42105
1.42095
1.42091
1.42092
1.42098
1.42108
1.42121
1.42138
1.42156
1.42175
1.42195
1.42214
1.42233
1.42251
1.42268
1.42283
1.42297
1.42309
1.42319
1.42327
1.42333
1.42338
1.42342
1.42344
1.42345
1.42345
1.42343
1.42341
1.42339
1.42336
1.42332
1.42329
1.42325
1.42322
1.42318
1.42316
1.42313
1.42312
1.42311
)
;

boundaryField
{
    top
    {
        type            fixedValue;
        value           uniform 0;
    }
    inlet
    {
        type            darcyGradPressure;
        gradient        nonuniform List<scalar> 
80
(
9.81
9.81
9.81
9.81
9.81
9.81
9.81
9.81
9.81
9.81
9.81
9.81
9.81
9.81
9.81
9.81
9.81
9.81
9.81
9.81
9.81
9.81
9.81
9.81
9.81
9.81
9.81
9.81
9.81
9.81
9.81
9.81
9.81
9.86631
7971.96
9446.44
9622.8
9697.7
9742.49
9775.6
9802.57
9790.34
9773.69
9750.2
9710.79
9628.24
9300.64
227.731
9.81
9.81
9.81
9.81
9.81
9.81
9.81
9.81
9.81
9.81
9.81
9.81
9.81
9.81
9.81
9.81
9.81
9.81
9.81
9.81
9.81
9.81
9.81
9.81
9.81
9.81
9.81
9.81
9.81
9.81
9.81
9.81
)
;
        value           nonuniform List<scalar> 
80
(
110.622
110.637
110.666
110.709
110.765
110.834
110.915
111.008
111.113
111.231
111.36
111.501
111.655
111.821
112
112.192
112.398
112.619
112.856
113.11
113.383
113.676
113.993
114.336
114.709
115.12
115.574
116.083
116.663
117.334
118.129
119.098
120.316
122.943
1345.44
1730.77
1939.06
2123.79
2294.84
2448.9
2479.4
2369.43
2214.72
2053.71
1885.44
1706.08
1489.27
169.152
121.938
120.279
119.013
118.009
117.188
116.497
115.903
115.382
114.919
114.503
114.126
113.781
113.464
113.172
112.902
112.653
112.421
112.207
112.008
111.824
111.655
111.5
111.359
111.231
111.117
111.016
110.928
110.854
110.793
110.747
110.716
110.7
)
;
    }
    axis
    {
        type            darcyGradPressure;
        gradient        uniform -0;
        value           nonuniform List<scalar> 
80
(
109.396
106.912
104.397
101.852
99.2782
96.6766
94.0491
91.3974
88.7235
86.0291
83.3163
80.5867
77.8421
75.084
72.3139
69.533
66.7426
63.9438
61.1375
58.3245
55.5056
52.6815
49.8528
47.02
44.1837
41.3442
38.502
35.6574
32.8108
29.9624
27.1125
24.2613
21.4091
18.556
15.7023
12.848
9.99327
7.13826
4.28304
1.42769
109.473
106.987
104.468
101.916
99.3329
96.721
94.0819
91.4178
88.7309
86.0235
83.2976
80.5553
77.7985
75.0289
72.2483
69.4579
66.6592
63.8531
61.0408
58.2231
55.4007
52.5743
49.7446
46.912
44.0769
41.2397
38.4008
35.5604
32.7187
29.8761
27.0326
24.1885
21.3438
18.4986
15.6532
12.8074
9.96152
7.11546
4.26931
1.42311
)
;
    }
    frontAndBack
    {
        type            empty;
    }
}


// ************************************************************************* //
