/*--------------------------------*- C++ -*----------------------------------*\
  =========                 |
  \\      /  F ield         | OpenFOAM: The Open Source CFD Toolbox
   \\    /   O peration     | Website:  https://openfoam.org
    \\  /    A nd           | Version:  7
     \\/     M anipulation  |
\*---------------------------------------------------------------------------*/
FoamFile
{
    version     2.0;
    format      ascii;
    class       surfaceScalarField;
    location    "10000";
    object      phia;
}
// * * * * * * * * * * * * * * * * * * * * * * * * * * * * * * * * * * * * * //

dimensions      [0 3 -1 0 0 0 0];

internalField   nonuniform List<scalar> 
6280
(
-1.22972e-07
1.22972e-07
-2.44535e-07
1.21563e-07
-3.65426e-07
1.20891e-07
-4.86342e-07
1.20916e-07
-6.07961e-07
1.21619e-07
-7.30959e-07
1.22998e-07
-8.56024e-07
1.25065e-07
-9.83875e-07
1.27851e-07
-1.11528e-06
1.31402e-07
-1.25106e-06
1.35787e-07
-1.39216e-06
1.41096e-07
-1.53961e-06
1.47446e-07
-1.69459e-06
1.54988e-07
-1.85851e-06
1.63917e-07
-2.03299e-06
1.74483e-07
-2.22e-06
1.87008e-07
-2.42192e-06
2.01915e-07
-2.64167e-06
2.19758e-07
-2.88295e-06
2.41278e-07
-3.15043e-06
2.6748e-07
-3.45018e-06
2.9975e-07
-3.79022e-06
3.40034e-07
-4.18133e-06
3.91117e-07
-4.63841e-06
4.57071e-07
-5.18237e-06
5.43969e-07
-5.84342e-06
6.6105e-07
-6.66608e-06
8.22655e-07
-7.71753e-06
1.05145e-06
-9.10134e-06
1.38382e-06
-1.09804e-05
1.87908e-06
-1.36154e-05
2.635e-06
-1.74298e-05
3.81436e-06
-2.31198e-05
5.69019e-06
-5.58356e-06
6.65086e-06
-1.13502e-06
8.24877e-07
-5.90955e-07
3.41178e-07
-3.57538e-07
2.64485e-07
-2.16377e-07
2.10373e-07
-1.07606e-07
1.56958e-07
9.13989e-08
-5.53705e-09
-1.21349e-07
2.44321e-07
-2.41275e-07
2.41488e-07
-3.6047e-07
2.40086e-07
-4.7959e-07
2.40036e-07
-5.99268e-07
2.41297e-07
-7.20127e-07
2.43857e-07
-8.42799e-07
2.47737e-07
-9.67931e-07
2.52983e-07
-1.09621e-06
2.59677e-07
-1.22835e-06
2.67933e-07
-1.36516e-06
2.77903e-07
-1.5075e-06
2.89784e-07
-1.65634e-06
3.03827e-07
-1.81277e-06
3.20349e-07
-1.97803e-06
3.39749e-07
-2.15356e-06
3.62531e-07
-2.34097e-06
3.89327e-07
-2.54215e-06
4.20943e-07
-2.75928e-06
4.584e-07
-2.9948e-06
5.03008e-07
-3.2515e-06
5.56446e-07
-3.53234e-06
6.20873e-07
-3.84029e-06
6.99065e-07
-4.17778e-06
7.94565e-07
-4.54566e-06
9.11845e-07
-4.94101e-06
1.0564e-06
-5.35304e-06
1.23468e-06
-5.75514e-06
1.45355e-06
-6.09014e-06
1.71881e-06
-6.24271e-06
2.03165e-06
-5.98881e-06
2.3811e-06
-4.9032e-06
2.72875e-06
-2.19187e-06
2.97887e-06
1.53742e-06
2.92157e-06
-6.40312e-08
2.42632e-06
-1.93469e-06
2.21183e-06
-3.93728e-06
2.26708e-06
-6.30926e-06
2.5941e-06
-6.70259e-07
1.18973e-06
7.8156e-08
1.85075e-08
-1.18198e-07
3.6252e-07
-2.34946e-07
3.58236e-07
-3.50858e-07
3.55998e-07
-4.6651e-07
3.55688e-07
-5.8245e-07
3.57237e-07
-6.99212e-07
3.60619e-07
-8.1732e-07
3.65845e-07
-9.373e-07
3.72964e-07
-1.05969e-06
3.82064e-07
-1.18503e-06
3.93274e-07
-1.31389e-06
4.06765e-07
-1.44686e-06
4.22756e-07
-1.58456e-06
4.41524e-07
-1.72762e-06
4.63408e-07
-1.87669e-06
4.8882e-07
-2.03242e-06
5.18264e-07
-2.19544e-06
5.52343e-07
-2.36628e-06
5.9178e-07
-2.54531e-06
6.37437e-07
-2.73263e-06
6.90328e-07
-2.92782e-06
7.5163e-07
-3.12962e-06
8.22682e-07
-3.33551e-06
9.04954e-07
-3.54092e-06
9.99974e-07
-3.73825e-06
1.10918e-06
-3.91547e-06
1.23362e-06
-4.05435e-06
1.37356e-06
-4.12848e-06
1.52769e-06
-4.10184e-06
1.69217e-06
-3.92953e-06
1.85934e-06
-3.56481e-06
2.01638e-06
-2.98078e-06
2.14471e-06
-2.22406e-06
2.22215e-06
-1.53444e-06
2.23195e-06
-1.29589e-06
2.18777e-06
-1.23452e-06
2.15047e-06
-1.10661e-06
2.13917e-06
-6.55556e-07
2.14305e-06
-1.85187e-07
1.32855e-06
1.58538e-08
1.01515e-07
-1.13695e-07
4.76215e-07
-2.25908e-07
4.70449e-07
-3.37148e-07
4.67238e-07
-4.47887e-07
4.66426e-07
-5.58562e-07
4.67913e-07
-6.69589e-07
4.71646e-07
-7.81361e-07
4.77617e-07
-8.94253e-07
4.85855e-07
-1.00862e-06
4.96432e-07
-1.1248e-06
5.09457e-07
-1.24312e-06
5.25078e-07
-1.36385e-06
5.43485e-07
-1.48723e-06
5.64911e-07
-1.61346e-06
5.89634e-07
-1.74262e-06
6.17982e-07
-1.87469e-06
6.50332e-07
-2.00946e-06
6.87109e-07
-2.14646e-06
7.28787e-07
-2.2849e-06
7.75875e-07
-2.42348e-06
8.28906e-07
-2.56025e-06
8.88404e-07
-2.69241e-06
9.54837e-07
-2.816e-06
1.02855e-06
-2.92569e-06
1.10966e-06
-3.01445e-06
1.19794e-06
-3.07341e-06
1.29258e-06
-3.09191e-06
1.39206e-06
-3.0581e-06
1.49388e-06
-2.96036e-06
1.59443e-06
-2.78995e-06
1.68893e-06
-2.54534e-06
1.77177e-06
-2.23794e-06
1.8373e-06
-1.89708e-06
1.88129e-06
-1.56809e-06
1.90297e-06
-1.28703e-06
1.90671e-06
-1.03699e-06
1.90043e-06
-7.86491e-07
1.88867e-06
-5.15022e-07
1.87158e-06
-8.45093e-08
1.20096e-06
5.79357e-09
6.51232e-08
-1.08075e-07
5.8429e-07
-2.14642e-07
5.77015e-07
-3.20087e-07
5.72684e-07
-4.24764e-07
5.71103e-07
-5.28992e-07
5.72141e-07
-6.33057e-07
5.75712e-07
-7.37215e-07
5.81774e-07
-8.41687e-07
5.90327e-07
-9.46656e-07
6.01402e-07
-1.05226e-06
6.15064e-07
-1.1586e-06
6.31412e-07
-1.26568e-06
6.50568e-07
-1.37345e-06
6.72685e-07
-1.48176e-06
6.97938e-07
-1.5903e-06
7.26522e-07
-1.69861e-06
7.58644e-07
-1.80602e-06
7.94517e-07
-1.91158e-06
8.34347e-07
-2.01401e-06
8.78311e-07
-2.11165e-06
9.2654e-07
-2.20232e-06
9.79079e-07
-2.28334e-06
1.03585e-06
-2.35141e-06
1.09662e-06
-2.40264e-06
1.16089e-06
-2.43262e-06
1.22792e-06
-2.43663e-06
1.29659e-06
-2.40999e-06
1.36541e-06
-2.34864e-06
1.43254e-06
-2.24999e-06
1.49578e-06
-2.11386e-06
1.55279e-06
-1.94342e-06
1.60133e-06
-1.74569e-06
1.63958e-06
-1.5309e-06
1.6665e-06
-1.31012e-06
1.68219e-06
-1.09116e-06
1.68775e-06
-8.75589e-07
1.68486e-06
-6.61853e-07
1.67493e-06
-4.49151e-07
1.65888e-06
-6.10016e-08
1.0534e-06
3.80743e-09
5.29286e-08
-1.01611e-07
6.85901e-07
-2.01696e-07
6.771e-07
-3.00521e-07
6.71508e-07
-3.98318e-07
6.68901e-07
-4.95289e-07
6.69112e-07
-5.91598e-07
6.72021e-07
-6.87373e-07
6.77549e-07
-7.82698e-07
6.85652e-07
-8.77611e-07
6.96314e-07
-9.72093e-07
7.09546e-07
-1.06606e-06
7.25379e-07
-1.15935e-06
7.43858e-07
-1.25171e-06
7.65044e-07
-1.34277e-06
7.89001e-07
-1.43204e-06
8.15792e-07
-1.51887e-06
8.45469e-07
-1.60242e-06
8.78066e-07
-1.68165e-06
9.13582e-07
-1.7553e-06
9.51964e-07
-1.82186e-06
9.93094e-07
-1.87954e-06
1.03676e-06
-1.92634e-06
1.08265e-06
-1.96003e-06
1.13031e-06
-1.97827e-06
1.17913e-06
-1.97871e-06
1.22835e-06
-1.95917e-06
1.27705e-06
-1.9179e-06
1.32415e-06
-1.85384e-06
1.36847e-06
-1.76689e-06
1.40882e-06
-1.65814e-06
1.44405e-06
-1.52998e-06
1.47317e-06
-1.38588e-06
1.49548e-06
-1.23001e-06
1.51063e-06
-1.06649e-06
1.51866e-06
-8.98664e-07
1.51993e-06
-7.28774e-07
1.51497e-06
-5.58224e-07
1.50438e-06
-3.88068e-07
1.48873e-06
-5.01617e-08
9.29968e-07
2.9483e-09
4.58764e-08
-9.45801e-08
7.80481e-07
-1.87635e-07
7.70155e-07
-2.79313e-07
7.63187e-07
-3.69738e-07
7.59326e-07
-4.59003e-07
7.58376e-07
-5.47166e-07
7.60184e-07
-6.34249e-07
7.64632e-07
-7.20229e-07
7.71632e-07
-8.05033e-07
7.81118e-07
-8.88532e-07
7.93045e-07
-9.70532e-07
8.07379e-07
-1.05076e-06
8.24091e-07
-1.12888e-06
8.43158e-07
-1.20443e-06
8.64549e-07
-1.27686e-06
8.88221e-07
-1.3455e-06
9.14113e-07
-1.40957e-06
9.42132e-07
-1.46813e-06
9.72149e-07
-1.52015e-06
1.00399e-06
-1.56446e-06
1.0374e-06
-1.5998e-06
1.0721e-06
-1.62483e-06
1.10769e-06
-1.63823e-06
1.14371e-06
-1.63871e-06
1.17961e-06
-1.62515e-06
1.2148e-06
-1.59667e-06
1.24857e-06
-1.55276e-06
1.28024e-06
-1.49336e-06
1.30907e-06
-1.41895e-06
1.33441e-06
-1.33055e-06
1.35565e-06
-1.2297e-06
1.37232e-06
-1.11834e-06
1.38411e-06
-9.98586e-07
1.39088e-06
-8.72562e-07
1.39264e-06
-7.42189e-07
1.38956e-06
-6.0911e-07
1.38189e-06
-4.74689e-07
1.36996e-06
-3.40084e-07
1.35412e-06
-4.33505e-08
8.32322e-07
2.41612e-09
4.10815e-08
-8.7248e-08
8.67729e-07
-1.7299e-07
8.55898e-07
-2.57274e-07
8.4747e-07
-3.40127e-07
8.42179e-07
-4.21552e-07
8.39802e-07
-5.01524e-07
8.40156e-07
-5.79983e-07
8.43091e-07
-6.56829e-07
8.48477e-07
-7.31917e-07
8.56207e-07
-8.05054e-07
8.66182e-07
-8.7599e-07
8.78314e-07
-9.44414e-07
8.92516e-07
-1.00995e-06
9.08696e-07
-1.07216e-06
9.26755e-07
-1.13051e-06
9.46578e-07
-1.18443e-06
9.68029e-07
-1.23324e-06
9.90945e-07
-1.27623e-06
1.01513e-06
-1.3126e-06
1.04036e-06
-1.34156e-06
1.06636e-06
-1.36226e-06
1.0928e-06
-1.37392e-06
1.11934e-06
-1.37578e-06
1.14557e-06
-1.36723e-06
1.17106e-06
-1.34778e-06
1.19535e-06
-1.31718e-06
1.21797e-06
-1.2754e-06
1.23846e-06
-1.22271e-06
1.25638e-06
-1.15965e-06
1.27135e-06
-1.08704e-06
1.28304e-06
-1.00593e-06
1.29121e-06
-9.17531e-07
1.29572e-06
-8.23151e-07
1.2965e-06
-7.24094e-07
1.29358e-06
-6.21608e-07
1.28707e-06
-5.16836e-07
1.27712e-06
-4.10792e-07
1.26392e-06
-3.0435e-07
1.24768e-06
-3.85117e-08
7.56342e-07
2.04464e-09
3.75996e-08
-7.98487e-08
9.47578e-07
-1.58232e-07
9.3428e-07
-2.35111e-07
9.2435e-07
-3.10438e-07
9.17506e-07
-3.84148e-07
9.13511e-07
-4.56151e-07
9.12159e-07
-5.2633e-07
9.1327e-07
-5.94538e-07
9.16686e-07
-6.60592e-07
9.2226e-07
-7.24268e-07
9.29858e-07
-7.85303e-07
9.39349e-07
-8.43388e-07
9.50601e-07
-8.9817e-07
9.63479e-07
-9.49253e-07
9.77838e-07
-9.96196e-07
9.93521e-07
-1.03852e-06
1.01035e-06
-1.07572e-06
1.02814e-06
-1.10726e-06
1.04667e-06
-1.1326e-06
1.0657e-06
-1.15121e-06
1.08497e-06
-1.16259e-06
1.10419e-06
-1.1663e-06
1.12305e-06
-1.16196e-06
1.14124e-06
-1.14932e-06
1.15842e-06
-1.12823e-06
1.17426e-06
-1.09871e-06
1.18845e-06
-1.06092e-06
1.20068e-06
-1.01523e-06
1.21068e-06
-9.62119e-07
1.21824e-06
-9.02244e-07
1.22316e-06
-8.36369e-07
1.22534e-06
-7.65343e-07
1.22469e-06
-6.90064e-07
1.22122e-06
-6.11442e-07
1.21496e-06
-5.30376e-07
1.206e-06
-4.4773e-07
1.19447e-06
-3.64331e-07
1.18052e-06
-2.80964e-07
1.16432e-06
-3.48145e-08
6.93868e-07
1.77205e-09
3.49357e-08
-7.25764e-08
1.02015e-06
-1.43745e-07
1.00545e-06
-2.13403e-07
9.94007e-07
-2.81444e-07
9.85547e-07
-3.47752e-07
9.79819e-07
-4.12196e-07
9.76603e-07
-4.74625e-07
9.757e-07
-5.34866e-07
9.76927e-07
-5.92721e-07
9.80115e-07
-6.47964e-07
9.85102e-07
-7.00344e-07
9.91728e-07
-7.49578e-07
9.99836e-07
-7.95362e-07
1.00926e-06
-8.37363e-07
1.01984e-06
-8.75234e-07
1.03139e-06
-9.08609e-07
1.04373e-06
-9.37119e-07
1.05665e-06
-9.604e-07
1.06995e-06
-9.78102e-07
1.0834e-06
-9.89902e-07
1.09677e-06
-9.95521e-07
1.10981e-06
-9.9474e-07
1.12227e-06
-9.87407e-07
1.1339e-06
-9.7346e-07
1.14447e-06
-9.52929e-07
1.15373e-06
-9.2595e-07
1.16147e-06
-8.92761e-07
1.16749e-06
-8.53704e-07
1.17163e-06
-8.09215e-07
1.17375e-06
-7.59813e-07
1.17376e-06
-7.0608e-07
1.1716e-06
-6.48644e-07
1.16726e-06
-5.88162e-07
1.16074e-06
-5.25298e-07
1.1521e-06
-4.60712e-07
1.14142e-06
-3.95046e-07
1.12881e-06
-3.28922e-07
1.11439e-06
-2.62931e-07
1.09833e-06
-3.18548e-08
6.41809e-07
1.56419e-09
3.27823e-08
-6.55817e-08
1.08574e-06
-1.29828e-07
1.0697e-06
-1.9259e-07
1.05677e-06
-2.53722e-07
1.04668e-06
-3.13075e-07
1.03917e-06
-3.70492e-07
1.03402e-06
-4.25805e-07
1.03101e-06
-4.78834e-07
1.02996e-06
-5.29382e-07
1.03066e-06
-5.77238e-07
1.03296e-06
-6.22175e-07
1.03667e-06
-6.63952e-07
1.04161e-06
-7.02316e-07
1.04763e-06
-7.37006e-07
1.05453e-06
-7.67757e-07
1.06214e-06
-7.94307e-07
1.07028e-06
-8.16403e-07
1.07875e-06
-8.33807e-07
1.08736e-06
-8.46308e-07
1.0959e-06
-8.53728e-07
1.10419e-06
-8.55932e-07
1.11201e-06
-8.52839e-07
1.11917e-06
-8.44424e-07
1.12549e-06
-8.30729e-07
1.13077e-06
-8.11866e-07
1.13486e-06
-7.88013e-07
1.13761e-06
-7.59421e-07
1.1389e-06
-7.26403e-07
1.13861e-06
-6.89328e-07
1.13668e-06
-6.48615e-07
1.13305e-06
-6.04716e-07
1.12771e-06
-5.5811e-07
1.12065e-06
-5.09288e-07
1.11192e-06
-4.58741e-07
1.10155e-06
-4.06949e-07
1.08963e-06
-3.54372e-07
1.07623e-06
-3.01435e-07
1.06146e-06
-2.48516e-07
1.04541e-06
-2.93948e-08
5.99224e-07
1.40068e-09
3.09525e-08
-5.89725e-08
1.14471e-06
-1.16694e-07
1.12742e-06
-1.72984e-07
1.11306e-06
-2.27674e-07
1.10137e-06
-2.80596e-07
1.09209e-06
-3.31581e-07
1.085e-06
-3.80458e-07
1.07989e-06
-4.2705e-07
1.07655e-06
-4.71172e-07
1.07479e-06
-5.12636e-07
1.07442e-06
-5.51246e-07
1.07527e-06
-5.86803e-07
1.07717e-06
-6.19107e-07
1.07993e-06
-6.47961e-07
1.08338e-06
-6.73172e-07
1.08735e-06
-6.9456e-07
1.09167e-06
-7.11961e-07
1.09615e-06
-7.25231e-07
1.10063e-06
-7.34255e-07
1.10493e-06
-7.38951e-07
1.10888e-06
-7.39276e-07
1.11234e-06
-7.35228e-07
1.11513e-06
-7.26854e-07
1.11711e-06
-7.14247e-07
1.11817e-06
-6.97549e-07
1.11817e-06
-6.76952e-07
1.11702e-06
-6.5269e-07
1.11463e-06
-6.25041e-07
1.11096e-06
-5.94314e-07
1.10595e-06
-5.60848e-07
1.09958e-06
-5.25005e-07
1.09186e-06
-4.87157e-07
1.0828e-06
-4.47684e-07
1.07244e-06
-4.06962e-07
1.06083e-06
-3.65365e-07
1.04803e-06
-3.23254e-07
1.03412e-06
-2.80977e-07
1.01918e-06
-2.3887e-07
1.00331e-06
-2.72785e-08
5.62203e-07
1.27029e-09
2.9331e-08
-5.28186e-08
1.19753e-06
-1.04477e-07
1.17907e-06
-1.5478e-07
1.16336e-06
-2.03544e-07
1.15013e-06
-2.50597e-07
1.13915e-06
-2.95767e-07
1.13018e-06
-3.38887e-07
1.12301e-06
-3.79793e-07
1.11745e-06
-4.18317e-07
1.11331e-06
-4.54296e-07
1.1104e-06
-4.87567e-07
1.10855e-06
-5.17971e-07
1.10757e-06
-5.45354e-07
1.10731e-06
-5.69572e-07
1.1076e-06
-5.90492e-07
1.10827e-06
-6.07995e-07
1.10917e-06
-6.21983e-07
1.11014e-06
-6.32379e-07
1.11102e-06
-6.39132e-07
1.11168e-06
-6.42222e-07
1.11197e-06
-6.4166e-07
1.11177e-06
-6.3749e-07
1.11096e-06
-6.29793e-07
1.10942e-06
-6.18685e-07
1.10706e-06
-6.04315e-07
1.1038e-06
-5.86867e-07
1.09957e-06
-5.66553e-07
1.09432e-06
-5.43611e-07
1.08802e-06
-5.18302e-07
1.08064e-06
-4.90901e-07
1.07218e-06
-4.61697e-07
1.06266e-06
-4.30984e-07
1.05209e-06
-3.99058e-07
1.04052e-06
-3.6621e-07
1.02798e-06
-3.32726e-07
1.01454e-06
-2.98879e-07
1.00027e-06
-2.64926e-07
9.85226e-07
-2.31101e-07
9.69487e-07
-2.54124e-08
5.30405e-07
1.16417e-09
2.78342e-08
-4.71573e-08
1.24468e-06
-9.32486e-08
1.22517e-06
-1.38074e-07
1.20819e-06
-1.81448e-07
1.19351e-06
-2.23198e-07
1.1809e-06
-2.6316e-07
1.17014e-06
-3.01176e-07
1.16103e-06
-3.37097e-07
1.15337e-06
-3.70776e-07
1.14699e-06
-4.02074e-07
1.1417e-06
-4.30859e-07
1.13733e-06
-4.57007e-07
1.13372e-06
-4.80404e-07
1.13071e-06
-5.00948e-07
1.12814e-06
-5.1855e-07
1.12588e-06
-5.33138e-07
1.12376e-06
-5.44661e-07
1.12166e-06
-5.53086e-07
1.11945e-06
-5.58406e-07
1.117e-06
-5.60635e-07
1.1142e-06
-5.59817e-07
1.11095e-06
-5.5602e-07
1.10716e-06
-5.49338e-07
1.10274e-06
-5.39893e-07
1.09761e-06
-5.27828e-07
1.09173e-06
-5.13311e-07
1.08505e-06
-4.96529e-07
1.07754e-06
-4.77684e-07
1.06917e-06
-4.56992e-07
1.05995e-06
-4.3468e-07
1.04987e-06
-4.10979e-07
1.03896e-06
-3.86122e-07
1.02723e-06
-3.60343e-07
1.01474e-06
-3.3387e-07
1.00151e-06
-3.06925e-07
9.87599e-07
-2.79722e-07
9.73066e-07
-2.52466e-07
9.57971e-07
-2.25356e-07
9.42379e-07
-2.37258e-08
5.01613e-07
1.07702e-09
2.64086e-08
-4.19997e-08
1.28668e-06
-8.30283e-08
1.26619e-06
-1.22889e-07
1.24805e-06
-1.61401e-07
1.23202e-06
-1.98399e-07
1.21789e-06
-2.33729e-07
1.20547e-06
-2.67247e-07
1.19455e-06
-2.9882e-07
1.18495e-06
-3.28322e-07
1.17649e-06
-3.55637e-07
1.16901e-06
-3.80661e-07
1.16235e-06
-4.03298e-07
1.15636e-06
-4.23465e-07
1.15088e-06
-4.41095e-07
1.14577e-06
-4.56131e-07
1.14091e-06
-4.68536e-07
1.13616e-06
-4.78288e-07
1.13141e-06
-4.85386e-07
1.12655e-06
-4.89847e-07
1.12146e-06
-4.91708e-07
1.11607e-06
-4.91028e-07
1.11027e-06
-4.87884e-07
1.10402e-06
-4.82374e-07
1.09723e-06
-4.74614e-07
1.08985e-06
-4.64736e-07
1.08186e-06
-4.52889e-07
1.07321e-06
-4.39233e-07
1.06388e-06
-4.23939e-07
1.05388e-06
-4.07187e-07
1.0432e-06
-3.8916e-07
1.03184e-06
-3.70046e-07
1.01984e-06
-3.5003e-07
1.00722e-06
-3.29298e-07
9.94003e-07
-3.08025e-07
9.80235e-07
-2.86379e-07
9.65954e-07
-2.64515e-07
9.51202e-07
-2.42564e-07
9.3602e-07
-2.20624e-07
9.20443e-07
-2.21718e-08
4.76418e-07
1.00417e-09
2.50158e-08
-3.73376e-08
1.32402e-06
-7.37967e-08
1.30265e-06
-1.09189e-07
1.28344e-06
-1.43345e-07
1.26618e-06
-1.7611e-07
1.25066e-06
-2.07341e-07
1.2367e-06
-2.36912e-07
1.22412e-06
-2.64703e-07
1.21274e-06
-2.90611e-07
1.2024e-06
-3.1454e-07
1.19294e-06
-3.36408e-07
1.18422e-06
-3.56144e-07
1.17609e-06
-3.7369e-07
1.16842e-06
-3.89002e-07
1.16109e-06
-4.02049e-07
1.15396e-06
-4.12817e-07
1.14693e-06
-4.21306e-07
1.1399e-06
-4.27531e-07
1.13277e-06
-4.31526e-07
1.12546e-06
-4.33339e-07
1.11788e-06
-4.33034e-07
1.10997e-06
-4.3069e-07
1.10167e-06
-4.264e-07
1.09294e-06
-4.2027e-07
1.08372e-06
-4.1242e-07
1.07401e-06
-4.02976e-07
1.06376e-06
-3.92074e-07
1.05298e-06
-3.79859e-07
1.04166e-06
-3.66476e-07
1.02981e-06
-3.52077e-07
1.01744e-06
-3.36814e-07
1.00458e-06
-3.20838e-07
9.91242e-07
-3.043e-07
9.77466e-07
-2.87351e-07
9.63286e-07
-2.70139e-07
9.48742e-07
-2.52813e-07
9.33876e-07
-2.35525e-07
9.18732e-07
-2.18433e-07
9.03355e-07
-2.07102e-08
4.52861e-07
9.43477e-10
2.36343e-08
-3.31482e-08
1.35717e-06
-6.55067e-08
1.33501e-06
-9.69002e-08
1.31483e-06
-1.27172e-07
1.29645e-06
-1.56179e-07
1.27967e-06
-1.83796e-07
1.26432e-06
-2.09909e-07
1.25023e-06
-2.34418e-07
1.23725e-06
-2.57234e-07
1.22521e-06
-2.7828e-07
1.21399e-06
-2.97495e-07
1.20344e-06
-3.14825e-07
1.19342e-06
-3.30232e-07
1.18383e-06
-3.43691e-07
1.17454e-06
-3.55189e-07
1.16546e-06
-3.64727e-07
1.15647e-06
-3.72318e-07
1.14749e-06
-3.7799e-07
1.13844e-06
-3.81783e-07
1.12925e-06
-3.83749e-07
1.11984e-06
-3.83954e-07
1.11017e-06
-3.82473e-07
1.10019e-06
-3.7939e-07
1.08985e-06
-3.74802e-07
1.07913e-06
-3.68808e-07
1.06801e-06
-3.61519e-07
1.05647e-06
-3.53047e-07
1.04451e-06
-3.43508e-07
1.03212e-06
-3.33022e-07
1.01933e-06
-3.21708e-07
1.00613e-06
-3.09687e-07
9.92558e-07
-2.97078e-07
9.78633e-07
-2.83999e-07
9.64387e-07
-2.70565e-07
9.49853e-07
-2.56893e-07
9.35069e-07
-2.43094e-07
9.20077e-07
-2.29284e-07
9.04922e-07
-2.15575e-07
8.89651e-07
-1.93214e-08
4.29859e-07
8.91742e-10
2.22462e-08
-2.93996e-08
1.38657e-06
-5.8093e-08
1.36371e-06
-8.59202e-08
1.34266e-06
-1.12738e-07
1.32327e-06
-1.38421e-07
1.30535e-06
-1.62854e-07
1.28875e-06
-1.85942e-07
1.27332e-06
-2.07597e-07
1.2589e-06
-2.27747e-07
1.24536e-06
-2.46332e-07
1.23258e-06
-2.63304e-07
1.22041e-06
-2.78627e-07
1.20875e-06
-2.92277e-07
1.19748e-06
-3.04242e-07
1.18651e-06
-3.14522e-07
1.17574e-06
-3.23129e-07
1.16508e-06
-3.30084e-07
1.15445e-06
-3.35422e-07
1.14378e-06
-3.39185e-07
1.13301e-06
-3.41428e-07
1.12209e-06
-3.42212e-07
1.11096e-06
-3.41606e-07
1.09958e-06
-3.39688e-07
1.08793e-06
-3.36538e-07
1.07598e-06
-3.32243e-07
1.06372e-06
-3.26893e-07
1.05112e-06
-3.2058e-07
1.03819e-06
-3.13395e-07
1.02494e-06
-3.05432e-07
1.01136e-06
-2.96783e-07
9.97482e-07
-2.87537e-07
9.83312e-07
-2.77782e-07
9.68878e-07
-2.67602e-07
9.54206e-07
-2.57075e-07
9.39326e-07
-2.46275e-07
9.24269e-07
-2.35266e-07
9.09068e-07
-2.24098e-07
8.93754e-07
-2.12792e-07
8.78352e-07
-1.79892e-08
4.09093e-07
8.46016e-10
2.0847e-08
-2.60544e-08
1.41262e-06
-5.14801e-08
1.38913e-06
-7.61332e-08
1.36732e-06
-9.98863e-08
1.34702e-06
-1.22627e-07
1.32809e-06
-1.44257e-07
1.31038e-06
-1.64692e-07
1.29375e-06
-1.83861e-07
1.27807e-06
-2.01704e-07
1.26321e-06
-2.18175e-07
1.24905e-06
-2.33239e-07
1.23547e-06
-2.46872e-07
1.22238e-06
-2.59061e-07
1.20967e-06
-2.69806e-07
1.19725e-06
-2.79114e-07
1.18505e-06
-2.87005e-07
1.17297e-06
-2.93506e-07
1.16095e-06
-2.98654e-07
1.14893e-06
-3.02495e-07
1.13685e-06
-3.0508e-07
1.12467e-06
-3.06468e-07
1.11235e-06
-3.06721e-07
1.09984e-06
-3.05908e-07
1.08712e-06
-3.04098e-07
1.07417e-06
-3.01364e-07
1.06098e-06
-2.97778e-07
1.04754e-06
-2.93414e-07
1.03383e-06
-2.88343e-07
1.01987e-06
-2.82634e-07
1.00566e-06
-2.76355e-07
9.91202e-07
-2.69568e-07
9.76526e-07
-2.62336e-07
9.61646e-07
-2.54715e-07
9.46585e-07
-2.46759e-07
9.31371e-07
-2.38524e-07
9.16034e-07
-2.30062e-07
9.00606e-07
-2.21432e-07
8.85124e-07
-2.1269e-07
8.69618e-07
-1.67018e-08
3.88881e-07
8.04838e-10
1.94464e-08
-2.30725e-08
1.4357e-06
-4.55876e-08
1.41165e-06
-6.74175e-08
1.38915e-06
-8.84498e-08
1.36805e-06
-1.08586e-07
1.34823e-06
-1.27742e-07
1.32954e-06
-1.45846e-07
1.31185e-06
-1.62839e-07
1.29506e-06
-1.78673e-07
1.27904e-06
-1.93314e-07
1.26369e-06
-2.06737e-07
1.2489e-06
-2.18927e-07
1.23457e-06
-2.29883e-07
1.22063e-06
-2.39609e-07
1.20698e-06
-2.48122e-07
1.19356e-06
-2.55445e-07
1.18029e-06
-2.6161e-07
1.16711e-06
-2.66657e-07
1.15398e-06
-2.7063e-07
1.14083e-06
-2.73581e-07
1.12762e-06
-2.75564e-07
1.11433e-06
-2.76637e-07
1.10091e-06
-2.76861e-07
1.08735e-06
-2.76296e-07
1.07361e-06
-2.75005e-07
1.05969e-06
-2.73047e-07
1.04558e-06
-2.70479e-07
1.03126e-06
-2.67356e-07
1.01674e-06
-2.63726e-07
1.00203e-06
-2.59634e-07
9.87111e-07
-2.5512e-07
9.72012e-07
-2.50218e-07
9.56743e-07
-2.44954e-07
9.41322e-07
-2.39354e-07
9.25771e-07
-2.33436e-07
9.10116e-07
-2.2722e-07
8.9439e-07
-2.20721e-07
8.78625e-07
-2.13944e-07
8.62852e-07
-1.54661e-08
3.68129e-07
7.65675e-10
1.80583e-08
-2.0414e-08
1.45611e-06
-4.03353e-08
1.43157e-06
-5.96519e-08
1.40846e-06
-7.82653e-08
1.38666e-06
-9.60906e-08
1.36605e-06
-1.13055e-07
1.3465e-06
-1.291e-07
1.3279e-06
-1.44176e-07
1.31014e-06
-1.58246e-07
1.29311e-06
-1.71285e-07
1.27673e-06
-1.83276e-07
1.26089e-06
-1.94215e-07
1.24551e-06
-2.04104e-07
1.23052e-06
-2.12956e-07
1.21583e-06
-2.20793e-07
1.20139e-06
-2.27641e-07
1.18714e-06
-2.33535e-07
1.17301e-06
-2.38518e-07
1.15896e-06
-2.42635e-07
1.14494e-06
-2.45935e-07
1.13092e-06
-2.48473e-07
1.11687e-06
-2.50304e-07
1.10274e-06
-2.51484e-07
1.08853e-06
-2.52069e-07
1.0742e-06
-2.52115e-07
1.05974e-06
-2.51672e-07
1.04514e-06
-2.50788e-07
1.03038e-06
-2.49507e-07
1.01546e-06
-2.47863e-07
1.00038e-06
-2.45883e-07
9.85131e-07
-2.43587e-07
9.69716e-07
-2.40981e-07
9.54138e-07
-2.38065e-07
9.38405e-07
-2.34825e-07
9.22531e-07
-2.31242e-07
9.06533e-07
-2.27288e-07
8.90436e-07
-2.22938e-07
8.74275e-07
-2.18161e-07
8.58089e-07
-1.42966e-08
3.47302e-07
7.26416e-10
1.67101e-08
-1.80404e-08
1.47415e-06
-3.56466e-08
1.44917e-06
-5.27207e-08
1.42554e-06
-6.91776e-08
1.40312e-06
-8.49441e-08
1.38182e-06
-9.99589e-08
1.36152e-06
-1.14172e-07
1.34211e-06
-1.27545e-07
1.32351e-06
-1.40049e-07
1.30562e-06
-1.51666e-07
1.28834e-06
-1.62388e-07
1.27161e-06
-1.72215e-07
1.25534e-06
-1.81156e-07
1.23946e-06
-1.89229e-07
1.22391e-06
-1.96458e-07
1.20862e-06
-2.02875e-07
1.19355e-06
-2.08518e-07
1.17865e-06
-2.1343e-07
1.16387e-06
-2.17658e-07
1.14917e-06
-2.21254e-07
1.13452e-06
-2.24271e-07
1.11988e-06
-2.26766e-07
1.10524e-06
-2.28794e-07
1.09055e-06
-2.30412e-07
1.07581e-06
-2.31674e-07
1.061e-06
-2.32631e-07
1.04609e-06
-2.33331e-07
1.03108e-06
-2.33813e-07
1.01595e-06
-2.3411e-07
1.00068e-06
-2.34245e-07
9.85266e-07
-2.34226e-07
9.69697e-07
-2.34046e-07
9.53958e-07
-2.33679e-07
9.38038e-07
-2.33074e-07
9.21927e-07
-2.32155e-07
9.05614e-07
-2.30814e-07
8.89094e-07
-2.28908e-07
8.72369e-07
-2.26237e-07
8.55438e-07
-1.32195e-08
3.24935e-07
6.85028e-10
1.54396e-08
-1.5916e-08
1.49007e-06
-3.14501e-08
1.46471e-06
-4.65175e-08
1.4406e-06
-6.10443e-08
1.41765e-06
-7.49679e-08
1.39574e-06
-8.82365e-08
1.37478e-06
-1.00809e-07
1.35468e-06
-1.12654e-07
1.33536e-06
-1.2375e-07
1.31671e-06
-1.34086e-07
1.29868e-06
-1.43657e-07
1.28118e-06
-1.52471e-07
1.26415e-06
-1.6054e-07
1.24753e-06
-1.67886e-07
1.23125e-06
-1.74535e-07
1.21527e-06
-1.80524e-07
1.19954e-06
-1.85891e-07
1.18402e-06
-1.90683e-07
1.16866e-06
-1.94948e-07
1.15344e-06
-1.98741e-07
1.13831e-06
-2.02117e-07
1.12326e-06
-2.05136e-07
1.10826e-06
-2.07858e-07
1.09328e-06
-2.10344e-07
1.0783e-06
-2.12653e-07
1.06331e-06
-2.14846e-07
1.04829e-06
-2.16979e-07
1.03321e-06
-2.19105e-07
1.01807e-06
-2.21271e-07
1.00284e-06
-2.23516e-07
9.87511e-07
-2.25868e-07
9.72048e-07
-2.28339e-07
9.56429e-07
-2.3092e-07
9.40619e-07
-2.33572e-07
9.24579e-07
-2.36216e-07
9.08257e-07
-2.38713e-07
8.91591e-07
-2.40846e-07
8.74503e-07
-2.42254e-07
8.56875e-07
-1.22676e-08
3.02323e-07
6.41137e-10
1.42932e-08
-1.40088e-08
1.50408e-06
-2.76824e-08
1.47838e-06
-4.09469e-08
1.45387e-06
-5.37385e-08
1.43044e-06
-6.60033e-08
1.40801e-06
-7.76975e-08
1.38648e-06
-8.87868e-08
1.36577e-06
-9.92462e-08
1.34582e-06
-1.0906e-07
1.32653e-06
-1.1822e-07
1.30784e-06
-1.26729e-07
1.28969e-06
-1.34594e-07
1.27202e-06
-1.41832e-07
1.25477e-06
-1.48468e-07
1.23789e-06
-1.5453e-07
1.22134e-06
-1.60055e-07
1.20507e-06
-1.65085e-07
1.18905e-06
-1.69667e-07
1.17324e-06
-1.73853e-07
1.15762e-06
-1.77698e-07
1.14216e-06
-1.81263e-07
1.12682e-06
-1.8461e-07
1.1116e-06
-1.87805e-07
1.09647e-06
-1.90916e-07
1.08141e-06
-1.94014e-07
1.06641e-06
-1.97171e-07
1.05144e-06
-2.00462e-07
1.0365e-06
-2.03963e-07
1.02157e-06
-2.07752e-07
1.00663e-06
-2.11907e-07
9.91666e-07
-2.1651e-07
9.76651e-07
-2.21641e-07
9.6156e-07
-2.27382e-07
9.4636e-07
-2.3381e-07
9.31007e-07
-2.40994e-07
9.15441e-07
-2.48987e-07
8.99585e-07
-2.57815e-07
8.8333e-07
-2.67395e-07
8.665e-07
-1.14832e-08
2.8158e-07
5.9795e-10
1.33122e-08
-1.22911e-08
1.51637e-06
-2.42881e-08
1.49038e-06
-3.59266e-08
1.46551e-06
-4.71508e-08
1.44166e-06
-5.79142e-08
1.41877e-06
-6.81792e-08
1.39674e-06
-7.79167e-08
1.37551e-06
-8.71065e-08
1.355e-06
-9.57363e-08
1.33516e-06
-1.03802e-07
1.3159e-06
-1.11307e-07
1.29719e-06
-1.18262e-07
1.27897e-06
-1.24685e-07
1.26119e-06
-1.30601e-07
1.2438e-06
-1.36039e-07
1.22677e-06
-1.41038e-07
1.21007e-06
-1.45638e-07
1.19365e-06
-1.49888e-07
1.17749e-06
-1.5384e-07
1.16157e-06
-1.57552e-07
1.14587e-06
-1.61084e-07
1.13036e-06
-1.64503e-07
1.11502e-06
-1.67879e-07
1.09985e-06
-1.71286e-07
1.08482e-06
-1.74802e-07
1.06992e-06
-1.7851e-07
1.05515e-06
-1.82501e-07
1.04049e-06
-1.86869e-07
1.02594e-06
-1.9172e-07
1.01148e-06
-1.97172e-07
9.97118e-07
-2.03358e-07
9.82837e-07
-2.10432e-07
9.68635e-07
-2.1858e-07
9.54508e-07
-2.28028e-07
9.40454e-07
-2.39055e-07
9.26469e-07
-2.52018e-07
9.12548e-07
-2.67376e-07
8.98688e-07
-2.85637e-07
8.84833e-07
-1.0935e-08
2.64602e-07
5.58604e-10
1.25043e-08
-1.07392e-08
1.52711e-06
-2.12208e-08
1.50086e-06
-3.13874e-08
1.47567e-06
-4.11901e-08
1.45147e-06
-5.05877e-08
1.42817e-06
-5.95474e-08
1.4057e-06
-6.80441e-08
1.38401e-06
-7.60602e-08
1.36302e-06
-8.35859e-08
1.34268e-06
-9.06185e-08
1.32294e-06
-9.71622e-08
1.30374e-06
-1.03228e-07
1.28504e-06
-1.08833e-07
1.26679e-06
-1.14002e-07
1.24897e-06
-1.18763e-07
1.23153e-06
-1.23152e-07
1.21446e-06
-1.2721e-07
1.19771e-06
-1.30983e-07
1.18127e-06
-1.34522e-07
1.16511e-06
-1.37884e-07
1.14923e-06
-1.41128e-07
1.1336e-06
-1.4432e-07
1.11821e-06
-1.47531e-07
1.10306e-06
-1.50834e-07
1.08812e-06
-1.5431e-07
1.0734e-06
-1.58042e-07
1.05888e-06
-1.6212e-07
1.04457e-06
-1.66643e-07
1.03046e-06
-1.71715e-07
1.01656e-06
-1.77455e-07
1.00286e-06
-1.83997e-07
9.89378e-07
-1.91496e-07
9.76134e-07
-2.0014e-07
9.63152e-07
-2.10157e-07
9.50471e-07
-2.21839e-07
9.38151e-07
-2.3556e-07
9.2627e-07
-2.51815e-07
9.14942e-07
-2.71141e-07
9.04258e-07
-1.07018e-08
2.50446e-07
5.20387e-10
1.18434e-08
-9.33417e-09
1.53644e-06
-1.84424e-08
1.50997e-06
-2.72734e-08
1.4845e-06
-3.57828e-08
1.45998e-06
-4.39339e-08
1.43632e-06
-5.16967e-08
1.41347e-06
-5.90484e-08
1.39136e-06
-6.59733e-08
1.36995e-06
-7.24619e-08
1.34917e-06
-7.85115e-08
1.32899e-06
-8.41255e-08
1.30935e-06
-8.93133e-08
1.29022e-06
-9.40902e-08
1.27157e-06
-9.84772e-08
1.25336e-06
-1.02501e-07
1.23556e-06
-1.06193e-07
1.21815e-06
-1.0959e-07
1.20111e-06
-1.12734e-07
1.18441e-06
-1.15674e-07
1.16805e-06
-1.18459e-07
1.15202e-06
-1.21148e-07
1.13629e-06
-1.23801e-07
1.12087e-06
-1.26484e-07
1.10574e-06
-1.29266e-07
1.0909e-06
-1.32221e-07
1.07635e-06
-1.35425e-07
1.06209e-06
-1.38956e-07
1.0481e-06
-1.42895e-07
1.0344e-06
-1.47322e-07
1.02098e-06
-1.52318e-07
1.00785e-06
-1.57963e-07
9.95023e-07
-1.64334e-07
9.82504e-07
-1.71504e-07
9.70322e-07
-1.79543e-07
9.58511e-07
-1.88516e-07
9.47123e-07
-1.98477e-07
9.36231e-07
-2.0947e-07
9.25935e-07
-2.21384e-07
9.16277e-07
-1.08003e-08
2.3846e-07
4.783e-10
1.13187e-08
-8.06078e-09
1.5445e-06
-1.59235e-08
1.51783e-06
-2.35409e-08
1.49212e-06
-3.08726e-08
1.46731e-06
-3.78841e-08
1.44333e-06
-4.45476e-08
1.42013e-06
-5.08413e-08
1.39765e-06
-5.67495e-08
1.37585e-06
-6.22622e-08
1.35468e-06
-6.7375e-08
1.3341e-06
-7.20889e-08
1.31407e-06
-7.64103e-08
1.29455e-06
-8.03506e-08
1.27551e-06
-8.3926e-08
1.25693e-06
-8.71577e-08
1.23879e-06
-9.00717e-08
1.22106e-06
-9.26987e-08
1.20373e-06
-9.50741e-08
1.18679e-06
-9.72382e-08
1.17022e-06
-9.9236e-08
1.15401e-06
-1.01117e-07
1.13817e-06
-1.02935e-07
1.12269e-06
-1.0475e-07
1.10755e-06
-1.06623e-07
1.09278e-06
-1.0862e-07
1.07835e-06
-1.10809e-07
1.06428e-06
-1.13256e-07
1.05055e-06
-1.16027e-07
1.03717e-06
-1.19178e-07
1.02414e-06
-1.22758e-07
1.01143e-06
-1.26795e-07
9.9906e-07
-1.31292e-07
9.87002e-07
-1.36217e-07
9.75247e-07
-1.4149e-07
9.63783e-07
-1.46968e-07
9.52601e-07
-1.52428e-07
9.41692e-07
-1.57547e-07
9.31053e-07
-1.61769e-07
9.20585e-07
-1.11496e-08
2.31784e-07
4.34161e-10
1.09607e-08
-6.90752e-09
1.55141e-06
-1.36413e-08
1.52456e-06
-2.01573e-08
1.49864e-06
-2.64173e-08
1.47357e-06
-3.23886e-08
1.4493e-06
-3.80442e-08
1.42578e-06
-4.33623e-08
1.40297e-06
-4.83263e-08
1.38082e-06
-5.29242e-08
1.35928e-06
-5.71491e-08
1.33832e-06
-6.09983e-08
1.31791e-06
-6.44734e-08
1.29802e-06
-6.75804e-08
1.27862e-06
-7.03291e-08
1.25968e-06
-7.27333e-08
1.24119e-06
-7.4811e-08
1.22314e-06
-7.65839e-08
1.2055e-06
-7.80781e-08
1.18828e-06
-7.93238e-08
1.17146e-06
-8.03559e-08
1.15505e-06
-8.1214e-08
1.13903e-06
-8.19428e-08
1.12341e-06
-8.25923e-08
1.1082e-06
-8.32178e-08
1.0934e-06
-8.38802e-08
1.07901e-06
-8.46445e-08
1.06504e-06
-8.55791e-08
1.05149e-06
-8.67533e-08
1.03835e-06
-8.8233e-08
1.02562e-06
-9.00756e-08
1.01328e-06
-9.23212e-08
1.00131e-06
-9.49819e-08
9.89662e-07
-9.80284e-08
9.78293e-07
-1.01373e-07
9.67128e-07
-1.04852e-07
9.5608e-07
-1.08207e-07
9.45047e-07
-1.11072e-07
9.33918e-07
-1.12909e-07
9.22479e-07
-1.16387e-08
2.33907e-07
3.94025e-10
1.07981e-08
-5.86577e-09
1.55727e-06
-1.15792e-08
1.53028e-06
-1.70985e-08
1.50416e-06
-2.2387e-08
1.47886e-06
-2.7413e-08
1.45433e-06
-3.21495e-08
1.43052e-06
-3.6574e-08
1.4074e-06
-4.06682e-08
1.38491e-06
-4.44177e-08
1.36303e-06
-4.78118e-08
1.34172e-06
-5.08435e-08
1.32095e-06
-5.35086e-08
1.30069e-06
-5.58063e-08
1.28092e-06
-5.77386e-08
1.26161e-06
-5.93103e-08
1.24277e-06
-6.05291e-08
1.22436e-06
-6.14054e-08
1.20638e-06
-6.19528e-08
1.18883e-06
-6.2188e-08
1.1717e-06
-6.21317e-08
1.15499e-06
-6.18091e-08
1.13871e-06
-6.12505e-08
1.12286e-06
-6.04928e-08