/*--------------------------------*- C++ -*----------------------------------*\
  =========                 |
  \\      /  F ield         | OpenFOAM: The Open Source CFD Toolbox
   \\    /   O peration     | Website:  https://openfoam.org
    \\  /    A nd           | Version:  7
     \\/     M anipulation  |
\*---------------------------------------------------------------------------*/
FoamFile
{
    version     2.0;
    format      ascii;
    class       surfaceScalarField;
    location    "10000";
    object      phib;
}
// * * * * * * * * * * * * * * * * * * * * * * * * * * * * * * * * * * * * * //

dimensions      [0 3 -1 0 0 0 0];

internalField   nonuniform List<scalar> 
6280
(
-2.19047e-21
-1.71013e-16
-4.35585e-21
-1.68001e-16
-6.50925e-21
-1.65041e-16
-8.66311e-21
-1.62134e-16
-1.08295e-20
-1.59278e-16
-1.30204e-20
-1.56472e-16
-1.52482e-20
-1.53715e-16
-1.75256e-20
-1.51007e-16
-1.98662e-20
-1.48347e-16
-2.2285e-20
-1.45734e-16
-2.47983e-20
-1.43166e-16
-2.74247e-20
-1.40644e-16
-3.01855e-20
-1.38166e-16
-3.31053e-20
-1.35732e-16
-3.62133e-20
-1.33341e-16
-3.95444e-20
-1.30992e-16
-4.31411e-20
-1.28684e-16
-4.70556e-20
-1.26417e-16
-5.13535e-20
-1.24189e-16
-5.6118e-20
-1.22001e-16
-6.14574e-20
-1.19851e-16
-6.75144e-20
-1.17739e-16
-7.44813e-20
-1.15664e-16
-8.2623e-20
-1.13625e-16
-9.23126e-20
-1.11622e-16
-1.04088e-19
-1.09653e-16
-1.18742e-19
-1.07718e-16
-1.37471e-19
-1.05816e-16
-1.6212e-19
-1.03946e-16
-1.95592e-19
-1.02106e-16
-2.42529e-19
-1.00293e-16
-3.10496e-19
-9.85045e-17
-1.32852e-10
-9.67346e-17
-2.41873e-05
-9.49347e-17
-2.94607e-05
-8.45907e-17
-3.03459e-05
-7.55683e-17
-3.08438e-05
-6.73855e-17
-3.11954e-05
-7.963e-17
-3.05459e-05
-9.15186e-07
-2.34374e-05
-7.30199e-06
-2.16157e-21
-1.71011e-16
-4.29778e-21
-1.67999e-16
-6.42098e-21
-1.65039e-16
-8.54284e-21
-1.62132e-16
-1.06746e-20
-1.59276e-16
-1.28275e-20
-1.5647e-16
-1.50126e-20
-1.53713e-16
-1.72416e-20
-1.51005e-16
-1.95265e-20
-1.48345e-16
-2.18804e-20
-1.45731e-16
-2.43173e-20
-1.43164e-16
-2.68527e-20
-1.40642e-16
-2.9504e-20
-1.38164e-16
-3.22905e-20
-1.35729e-16
-3.52343e-20
-1.33338e-16
-3.83609e-20
-1.30989e-16
-4.16992e-20
-1.2868e-16
-4.52829e-20
-1.26413e-16
-4.91504e-20
-1.24185e-16
-5.33458e-20
-1.21997e-16
-5.79183e-20
-1.19846e-16
-6.29208e-20
-1.17734e-16
-6.84062e-20
-1.15658e-16
-7.4418e-20
-1.13619e-16
-8.09709e-20
-1.11615e-16
-8.80132e-20
-1.09646e-16
-9.53525e-20
-1.07711e-16
-1.02515e-19
-1.05809e-16
-1.08482e-19
-1.0394e-16
-1.112e-19
-1.02103e-16
-1.06677e-19
-1.00298e-16
-8.73396e-20
-9.85238e-17
-3.90434e-20
-9.67829e-17
2.73857e-20
-9.50781e-17
-1.14057e-21
-9.34111e-17
-3.44622e-20
-9.17686e-17
-9.33161e-20
-9.01503e-17
-1.17497e-08
-8.85998e-17
-7.58463e-06
-1.40777e-08
-3.1907e-05
2.09431e-07
-2.10544e-21
-1.71009e-16
-4.18505e-21
-1.67997e-16
-6.24976e-21
-1.65037e-16
-8.30984e-21
-1.6213e-16
-1.03751e-20
-1.59273e-16
-1.24549e-20
-1.56468e-16
-1.45587e-20
-1.53711e-16
-1.66959e-20
-1.51003e-16
-1.8876e-20
-1.48343e-16
-2.11086e-20
-1.45729e-16
-2.3404e-20
-1.43162e-16
-2.57727e-20
-1.40639e-16
-2.82254e-20
-1.38161e-16
-3.07737e-20
-1.35727e-16
-3.34291e-20
-1.33335e-16
-3.62031e-20
-1.30986e-16
-3.91069e-20
-1.28678e-16
-4.215e-20
-1.2641e-16
-4.53391e-20
-1.24182e-16
-4.86758e-20
-1.21993e-16
-5.21526e-20
-1.19843e-16
-5.57473e-20
-1.1773e-16
-5.94148e-20
-1.15655e-16
-6.30737e-20
-1.13615e-16
-6.65887e-20
-1.11612e-16
-6.97455e-20
-1.09643e-16
-7.22193e-20
-1.07709e-16
-7.35398e-20
-1.05808e-16
-7.30652e-20
-1.03941e-16
-6.9996e-20
-1.02106e-16
-6.34993e-20
-1.00304e-16
-5.30959e-20
-9.85342e-17
-3.96167e-20
-9.67964e-17
-2.73326e-20
-9.50903e-17
-2.30834e-20
-9.34153e-17
-2.19903e-20
-9.17697e-17
-1.97217e-20
-9.01526e-17
-3.04392e-12
-8.86036e-17
-6.13428e-07
-9.84153e-09
-3.30811e-05
3.36266e-07
-2.02522e-21
-1.71007e-16
-4.02405e-21
-1.67995e-16
-6.00555e-21
-1.65035e-16
-7.97811e-21
-1.62128e-16
-9.94955e-21
-1.59271e-16
-1.19273e-20
-1.56466e-16
-1.39182e-20
-1.53709e-16
-1.59291e-20
-1.51001e-16
-1.79664e-20
-1.48341e-16
-2.00359e-20
-1.45727e-16
-2.21434e-20
-1.43159e-16
-2.42939e-20
-1.40637e-16
-2.64918e-20
-1.38159e-16
-2.87402e-20
-1.35725e-16
-3.10409e-20
-1.33333e-16
-3.33934e-20
-1.30983e-16
-3.5794e-20
-1.28675e-16
-3.82345e-20
-1.26407e-16
-4.07005e-20
-1.2418e-16
-4.31689e-20
-1.21991e-16
-4.56052e-20
-1.19841e-16
-4.79593e-20
-1.17728e-16
-5.01609e-20
-1.15653e-16
-5.21148e-20
-1.13613e-16
-5.36958e-20
-1.1161e-16
-5.47459e-20
-1.09642e-16
-5.50755e-20
-1.07708e-16
-5.44734e-20
-1.05809e-16
-5.27323e-20
-1.03942e-16
-4.96967e-20
-1.02109e-16
-4.53397e-20
-1.00308e-16
-3.98639e-20
-9.85397e-17
-3.37922e-20
-9.68024e-17
-2.79321e-20
-9.50962e-17
-2.29255e-20
-9.34203e-17
-1.84717e-20
-9.17741e-17
-1.40159e-20
-9.01571e-17
-1.59892e-12
-8.86174e-17
-3.01979e-07
-1.07802e-08
-3.37553e-05
2.32706e-07
-1.92513e-21
-1.71005e-16
-3.82337e-21
-1.67993e-16
-5.70164e-21
-1.65033e-16
-7.56624e-21
-1.62126e-16
-9.42282e-21
-1.5927e-16
-1.12765e-20
-1.56464e-16
-1.31319e-20
-1.53707e-16
-1.49928e-20
-1.50999e-16
-1.68626e-20
-1.48339e-16
-1.87437e-20
-1.45725e-16
-2.06378e-20
-1.43158e-16
-2.25453e-20
-1.40635e-16
-2.44651e-20
-1.38157e-16
-2.63943e-20
-1.35723e-16
-2.83277e-20
-1.33331e-16
-3.0257e-20
-1.30982e-16
-3.21702e-20
-1.28673e-16
-3.40506e-20
-1.26406e-16
-3.58752e-20
-1.24178e-16
-3.76143e-20
-1.21989e-16
-3.92295e-20
-1.19839e-16
-4.06727e-20
-1.17727e-16
-4.18852e-20
-1.15651e-16
-4.27977e-20
-1.13612e-16
-4.33318e-20
-1.1161e-16
-4.34032e-20
-1.09642e-16
-4.29286e-20
-1.07709e-16
-4.18358e-20
-1.0581e-16
-4.00786e-20
-1.03944e-16
-3.76537e-20
-1.02112e-16
-3.46177e-20
-1.00311e-16
-3.10956e-20
-9.85432e-17
-2.72696e-20
-9.68063e-17
-2.33369e-20
-9.51001e-17
-1.94366e-20
-9.34242e-17
-1.55967e-20
-9.1778e-17
-1.1796e-20
-9.01609e-17
-1.54365e-12
-8.86302e-17
-2.39097e-07
-1.22745e-08
-3.43138e-05
2.07454e-07
-1.80997e-21
-1.71003e-16
-3.59277e-21
-1.67991e-16
-5.35312e-21
-1.65031e-16
-7.09517e-21
-1.62124e-16
-8.82248e-21
-1.59268e-16
-1.0538e-20
-1.56462e-16
-1.2244e-20
-1.53705e-16
-1.3942e-20
-1.50997e-16
-1.56327e-20
-1.48337e-16
-1.73157e-20
-1.45723e-16
-1.89895e-20
-1.43156e-16
-2.06513e-20
-1.40634e-16
-2.22964e-20
-1.38155e-16
-2.39185e-20
-1.35721e-16
-2.55087e-20
-1.33329e-16
-2.70553e-20
-1.3098e-16
-2.85435e-20
-1.28672e-16
-2.99549e-20
-1.26404e-16
-3.12669e-20
-1.24176e-16
-3.24524e-20
-1.21988e-16
-3.34799e-20
-1.19838e-16
-3.43135e-20
-1.17726e-16
-3.49137e-20
-1.15651e-16
-3.52385e-20
-1.13612e-16
-3.52463e-20
-1.1161e-16
-3.48982e-20
-1.09642e-16
-3.41632e-20
-1.07709e-16
-3.30221e-20
-1.05811e-16
-3.14732e-20
-1.03946e-16
-2.95362e-20
-1.02114e-16
-2.72532e-20
-1.00314e-16
-2.46864e-20
-9.85458e-17
-2.19099e-20
-9.6809e-17
-1.89971e-20
-9.5103e-17
-1.60077e-20
-9.34272e-17
-1.29815e-20
-9.1781e-17
-9.95003e-21
-9.01639e-17
-1.54242e-12
-8.86415e-17
-2.12886e-07
-1.38677e-08
-3.48166e-05
1.94699e-07
-1.68474e-21
-1.71002e-16
-3.3423e-21
-1.67989e-16
-4.97535e-21
-1.6503e-16
-6.58607e-21
-1.62122e-16
-8.17612e-21
-1.59266e-16
-9.74656e-21
-1.5646e-16
-1.12977e-20
-1.53704e-16
-1.28293e-20
-1.50996e-16
-1.43399e-20
-1.48336e-16
-1.58272e-20
-1.45722e-16
-1.72879e-20
-1.43154e-16
-1.87171e-20
-1.40632e-16
-2.01085e-20
-1.38154e-16
-2.14542e-20
-1.3572e-16
-2.27444e-20
-1.33328e-16
-2.39671e-20
-1.30979e-16
-2.51083e-20
-1.28671e-16
-2.61516e-20
-1.26403e-16
-2.70782e-20
-1.24176e-16
-2.78675e-20
-1.21987e-16
-2.84969e-20
-1.19837e-16
-2.89428e-20
-1.17725e-16
-2.91814e-20
-1.1565e-16
-2.919e-20
-1.13612e-16
-2.89485e-20
-1.1161e-16
-2.84412e-20
-1.09643e-16
-2.76591e-20
-1.0771e-16
-2.6601e-20
-1.05812e-16
-2.52754e-20
-1.03947e-16
-2.37008e-20
-1.02115e-16
-2.19045e-20
-1.00316e-16
-1.99208e-20
-9.85478e-17
-1.77876e-20
-9.68112e-17
-1.55428e-20
-9.51053e-17
-1.32205e-20
-9.34295e-17
-1.08499e-20
-9.17834e-17
-8.46185e-21
-9.01663e-17
-1.55052e-12
-8.86498e-17
-1.97714e-07
-1.52419e-08
-3.52856e-05
1.87365e-07
-1.55413e-21
-1.71e-16
-3.08144e-21
-1.67988e-16
-4.58277e-21
-1.65028e-16
-6.05861e-21
-1.62121e-16
-7.50902e-21
-1.59265e-16
-8.93355e-21
-1.56459e-16
-1.03311e-20
-1.53702e-16
-1.17e-20
-1.50994e-16
-1.30375e-20
-1.48334e-16
-1.43403e-20
-1.45721e-16
-1.56038e-20
-1.43153e-16
-1.68227e-20
-1.40631e-16
-1.79901e-20
-1.38153e-16
-1.90981e-20
-1.35719e-16
-2.01376e-20
-1.33327e-16
-2.1098e-20
-1.30978e-16
-2.19675e-20
-1.2867e-16
-2.27332e-20
-1.26402e-16
-2.33811e-20
-1.24175e-16
-2.38969e-20
-1.21987e-16
-2.42657e-20
-1.19837e-16
-2.44733e-20
-1.17725e-16
-2.45065e-20
-1.1565e-16
-2.43542e-20
-1.13612e-16
-2.40078e-20
-1.1161e-16
-2.34627e-20
-1.09643e-16
-2.27185e-20
-1.07711e-16
-2.17799e-20
-1.05813e-16
-2.06566e-20
-1.03948e-16
-1.93632e-20
-1.02116e-16
-1.79184e-20
-1.00317e-16
-1.63438e-20
-9.85493e-17
-1.46626e-20
-9.68129e-17
-1.28981e-20
-9.51071e-17
-1.10726e-20
-9.34314e-17
-9.20629e-21
-9.17852e-17
-7.32331e-21
-9.01682e-17
-1.54369e-12
-8.86617e-17
-1.87868e-07
-1.72338e-08
-3.57326e-05
1.83418e-07
-1.42233e-21
-1.70999e-16
-2.81855e-21
-1.67986e-16
-4.18798e-21
-1.65027e-16
-5.52978e-21
-1.6212e-16
-6.84275e-21
-1.59264e-16
-8.12531e-21
-1.56458e-16
-9.37541e-21
-1.53701e-16
-1.05904e-20
-1.50993e-16
-1.1767e-20
-1.48333e-16
-1.29012e-20
-1.4572e-16
-1.39884e-20
-1.43152e-16
-1.50231e-20
-1.4063e-16
-1.59989e-20
-1.38152e-16
-1.69088e-20
-1.35718e-16
-1.7745e-20
-1.33326e-16
-1.8499e-20
-1.30977e-16
-1.91615e-20
-1.28669e-16
-1.97233e-20
-1.26402e-16
-2.01747e-20
-1.24174e-16
-2.05062e-20
-1.21986e-16
-2.0709e-20
-1.19837e-16
-2.07751e-20
-1.17725e-16
-2.06978e-20
-1.1565e-16
-2.04726e-20
-1.13613e-16
-2.00969e-20
-1.1161e-16
-1.9571e-20
-1.09644e-16
-1.8898e-20
-1.07712e-16
-1.8084e-20
-1.05814e-16
-1.7138e-20
-1.03949e-16
-1.60715e-20
-1.02117e-16
-1.48981e-20
-1.00318e-16
-1.36329e-20
-9.85506e-17
-1.2292e-20
-9.68142e-17
-1.08915e-20
-9.51085e-17
-9.44747e-21
-9.34328e-17
-7.97533e-21
-9.17867e-17
-6.49577e-21
-9.01697e-17
-1.63773e-12
-8.86768e-17
-1.81092e-07
-1.98187e-08
-3.61649e-05
1.81723e-07
-1.29279e-21
-1.70997e-16
-2.5605e-21
-1.67985e-16
-3.8013e-21
-1.65026e-16
-5.0133e-21
-1.62118e-16
-6.19443e-21
-1.59262e-16
-7.34236e-21
-1.56457e-16
-8.4544e-21
-1.537e-16
-9.52746e-21
-1.50992e-16
-1.0558e-20
-1.48332e-16
-1.15421e-20
-1.45719e-16
-1.24751e-20
-1.43151e-16
-1.33521e-20
-1.40629e-16
-1.41676e-20
-1.38151e-16
-1.49158e-20
-1.35717e-16
-1.55904e-20
-1.33326e-16
-1.61849e-20
-1.30976e-16
-1.66927e-20
-1.28669e-16
-1.71074e-20
-1.26401e-16
-1.74227e-20
-1.24174e-16
-1.76329e-20
-1.21986e-16
-1.7733e-20
-1.19837e-16
-1.77191e-20
-1.17725e-16
-1.75885e-20
-1.15651e-16
-1.734e-20
-1.13613e-16
-1.69743e-20
-1.11611e-16
-1.64937e-20
-1.09644e-16
-1.59026e-20
-1.07712e-16
-1.52068e-20
-1.05814e-16
-1.44144e-20
-1.0395e-16
-1.35344e-20
-1.02118e-16
-1.25773e-20
-1.00319e-16
-1.15542e-20
-9.85516e-17
-1.04768e-20
-9.68153e-17
-9.35703e-21
-9.51096e-17
-8.20656e-21
-9.3434e-17
-7.03688e-21
-9.17879e-17
-5.86534e-21
-9.01709e-17
-1.79668e-12
-8.86914e-17
-1.76321e-07
-2.25169e-08
-3.65871e-05
1.81455e-07
-1.16819e-21
-1.70996e-16
-2.3126e-21
-1.67984e-16
-3.43057e-21
-1.65025e-16
-4.5195e-21
-1.62117e-16
-5.57674e-21
-1.59261e-16
-6.59949e-21
-1.56456e-16
-7.58478e-21
-1.53699e-16
-8.52937e-21
-1.50991e-16
-9.42978e-21
-1.48331e-16
-1.02822e-20
-1.45718e-16
-1.10827e-20
-1.4315e-16
-1.18268e-20
-1.40628e-16
-1.25102e-20
-1.3815e-16
-1.31281e-20
-1.35716e-16
-1.36759e-20
-1.33325e-16
-1.41488e-20
-1.30976e-16
-1.45424e-20
-1.28668e-16
-1.48524e-20
-1.26401e-16
-1.50751e-20
-1.24174e-16
-1.52073e-20
-1.21986e-16
-1.52465e-20
-1.19837e-16
-1.51914e-20
-1.17725e-16
-1.50415e-20
-1.15651e-16
-1.47976e-20
-1.13613e-16
-1.44616e-20
-1.11611e-16
-1.40367e-20
-1.09645e-16
-1.35274e-20
-1.07713e-16
-1.29393e-20
-1.05815e-16
-1.22789e-20
-1.03951e-16
-1.15536e-20
-1.02119e-16
-1.07717e-20
-1.0032e-16
-9.9415e-21
-9.85524e-17
-9.07184e-21
-9.68162e-17
-8.17146e-21
-9.51105e-17
-7.2489e-21
-9.34349e-17
-6.31235e-21
-9.17888e-17
-5.37602e-21
-9.01718e-17
-1.96487e-12
-8.87127e-17
-1.72898e-07
-2.6157e-08
-3.70022e-05
1.8206e-07
-1.05047e-21
-1.70995e-16
-2.07864e-21
-1.67983e-16
-3.08134e-21
-1.65024e-16
-4.05552e-21
-1.62116e-16
-4.9982e-21
-1.5926e-16
-5.90639e-21
-1.56455e-16
-6.77702e-21
-1.53698e-16
-7.60694e-21
-1.5099e-16
-8.39289e-21
-1.4833e-16
-9.13148e-21
-1.45717e-16
-9.81923e-21
-1.4315e-16
-1.04526e-20
-1.40628e-16
-1.1028e-20
-1.3815e-16
-1.1542e-20
-1.35716e-16
-1.19911e-20
-1.33325e-16
-1.23721e-20
-1.30976e-16
-1.2682e-20
-1.28668e-16
-1.29184e-20
-1.26401e-16
-1.30791e-20
-1.24174e-16
-1.31628e-20
-1.21986e-16
-1.31686e-20
-1.19837e-16
-1.30965e-20
-1.17725e-16
-1.29473e-20
-1.15651e-16
-1.27227e-20
-1.13613e-16
-1.24253e-20
-1.11611e-16
-1.20584e-20
-1.09645e-16
-1.16262e-20
-1.07713e-16
-1.11337e-20
-1.05815e-16
-1.05864e-20
-1.03951e-16
-9.99028e-21
-1.0212e-16
-9.35181e-21
-1.00321e-16
-8.67763e-21
-9.85531e-17
-7.97449e-21
-9.68169e-17
-7.24913e-21
-9.51112e-17
-6.50817e-21
-9.34356e-17
-5.75805e-21
-9.17896e-17
-5.0123e-21
-9.01725e-17
-2.24334e-12
-8.87369e-17
-1.70339e-07
-3.03904e-08
-3.74122e-05
1.83156e-07
-9.40847e-22
-1.70994e-16
-1.86102e-21
-1.67982e-16
-2.75706e-21
-1.65023e-16
-3.62569e-21
-1.62116e-16
-4.46383e-21
-1.5926e-16
-5.26843e-21
-1.56454e-16
-6.03653e-21
-1.53697e-16
-6.76517e-21
-1.5099e-16
-7.4514e-21
-1.4833e-16
-8.09228e-21
-1.45716e-16
-8.68493e-21
-1.43149e-16
-9.22651e-21
-1.40627e-16
-9.71428e-21
-1.38149e-16
-1.01457e-20
-1.35715e-16
-1.05183e-20
-1.33324e-16
-1.08301e-20
-1.30975e-16
-1.10793e-20
-1.28668e-16
-1.12644e-20
-1.26401e-16
-1.13847e-20
-1.24174e-16
-1.14398e-20
-1.21986e-16
-1.14298e-20
-1.19837e-16
-1.13555e-20
-1.17725e-16
-1.12184e-20
-1.15651e-16
-1.10205e-20
-1.13613e-16
-1.07645e-20
-1.11612e-16
-1.04537e-20
-1.09645e-16
-1.00919e-20
-1.07714e-16
-9.68324e-21
-1.05816e-16
-9.2324e-21
-1.03952e-16
-8.74432e-21
-1.0212e-16
-8.22412e-21
-1.00321e-16
-7.67703e-21
-9.85537e-17
-7.10834e-21
-9.68174e-17
-6.52323e-21
-9.51118e-17
-5.92679e-21
-9.34362e-17
-5.32387e-21
-9.17902e-17
-4.72722e-21
-9.01732e-17
-2.58108e-12
-8.87716e-17
-1.68353e-07
-3.59315e-08
-3.78181e-05
1.84397e-07
-8.40002e-22
-1.70993e-16
-1.66102e-21
-1.67981e-16
-2.45948e-21
-1.65022e-16
-3.2321e-21
-1.62115e-16
-3.97578e-21
-1.59259e-16
-4.68761e-21
-1.56453e-16
-5.36479e-21
-1.53697e-16
-6.00464e-21
-1.50989e-16
-6.60455e-21
-1.48329e-16
-7.16206e-21
-1.45716e-16
-7.6748e-21
-1.43149e-16
-8.14058e-21
-1.40627e-16
-8.55734e-21
-1.38149e-16
-8.92328e-21
-1.35715e-16
-9.23682e-21
-1.33324e-16
-9.49669e-21
-1.30975e-16
-9.70194e-21
-1.28667e-16
-9.85201e-21
-1.26401e-16
-9.94676e-21
-1.24174e-16
-9.98648e-21
-1.21986e-16
-9.9719e-21
-1.19837e-16
-9.90426e-21
-1.17725e-16
-9.78524e-21
-1.15651e-16
-9.617e-21
-1.13614e-16
-9.40209e-21
-1.11612e-16
-9.14351e-21
-1.09646e-16
-8.84457e-21
-1.07714e-16
-8.50888e-21
-1.05816e-16
-8.14031e-21
-1.03952e-16
-7.74287e-21
-1.02121e-16
-7.32068e-21
-1.00321e-16
-6.87791e-21
-9.85541e-17
-6.41872e-21
-9.68179e-17
-5.94716e-21
-9.51123e-17
-5.46719e-21
-9.34367e-17
-4.98263e-21
-9.17907e-17
-4.50663e-21
-9.01736e-17
-3.05797e-12
-8.88092e-17
-1.6667e-07
-4.2102e-08
-3.82203e-05
1.85516e-07
-7.48133e-22
-1.70993e-16
-1.47897e-21
-1.6798e-16
-2.18899e-21
-1.65021e-16
-2.875e-21
-1.62114e-16
-3.53404e-21
-1.59258e-16
-4.16337e-21
-1.56452e-16
-4.76042e-21
-1.53696e-16
-5.32282e-21
-1.50989e-16
-5.84832e-21
-1.48328e-16
-6.33489e-21
-1.45715e-16
-6.78063e-21
-1.43148e-16
-7.18386e-21
-1.40626e-16
-7.5431e-21
-1.38149e-16
-7.85713e-21
-1.35715e-16
-8.12497e-21
-1.33324e-16
-8.34593e-21
-1.30975e-16
-8.51965e-21
-1.28667e-16
-8.64608e-21
-1.264e-16
-8.72554e-21
-1.24173e-16
-8.7587e-21
-1.21986e-16
-8.74658e-21
-1.19837e-16
-8.69058e-21
-1.17725e-16
-8.59243e-21
-1.15651e-16
-8.4542e-21
-1.13614e-16
-8.27825e-21
-1.11612e-16
-8.06722e-21
-1.09646e-16
-7.82397e-21
-1.07714e-16
-7.55154e-21
-1.05816e-16
-7.25313e-21
-1.03952e-16
-6.93203e-21
-1.02121e-16
-6.59155e-21
-1.00322e-16
-6.23502e-21
-9.85545e-17
-5.86571e-21
-9.68183e-17
-5.48678e-21
-9.51126e-17
-5.10121e-21
-9.34371e-17
-4.71175e-21
-9.1791e-17
-4.33169e-21
-9.0174e-17
-3.60397e-12
-8.88641e-17
-1.65084e-07
-5.02792e-08
-3.86188e-05
1.86259e-07
-6.65087e-22
-1.70992e-16
-1.31453e-21
-1.6798e-16
-1.94497e-21
-1.65021e-16
-2.55338e-21
-1.62113e-16
-3.137e-21
-1.59258e-16
-3.69333e-21
-1.56452e-16
-4.22006e-21
-1.53696e-16
-4.71511e-21
-1.50988e-16
-5.1766e-21
-1.48328e-16
-5.60284e-21
-1.45715e-16
-5.99237e-21
-1.43148e-16
-6.34393e-21
-1.40626e-16
-6.65647e-21
-1.38148e-16
-6.92921e-21
-1.35714e-16
-7.16162e-21
-1.33323e-16
-7.35343e-21
-1.30975e-16
-7.50463e-21
-1.28667e-16
-7.61553e-21
-1.264e-16
-7.68669e-21
-1.24173e-16
-7.71898e-21
-1.21986e-16
-7.71354e-21
-1.19837e-16
-7.67178e-21
-1.17725e-16
-7.59537e-21
-1.15651e-16
-7.48619e-21
-1.13614e-16
-7.34635e-21
-1.11612e-16
-7.17812e-21
-1.09646e-16
-6.98394e-21
-1.07714e-16
-6.76635e-21
-1.05817e-16
-6.52796e-21
-1.03952e-16
-6.27148e-21
-1.02121e-16
-5.99959e-21
-1.00322e-16
-5.71501e-21
-9.85548e-17
-5.42044e-21
-9.68185e-17
-5.11853e-21
-9.51129e-17
-4.81193e-21
-9.34374e-17
-4.5033e-21
-9.17914e-17
-4.20856e-21
-9.01743e-17
-4.39888e-12
-8.89452e-17
-1.63365e-07
-6.10845e-08
-3.90129e-05
1.8643e-07
-5.90462e-22
-1.70991e-16
-1.16686e-21
-1.67979e-16
-1.72606e-21
-1.6502e-16
-2.26528e-21
-1.62113e-16
-2.78199e-21
-1.59257e-16
-3.27392e-21
-1.56451e-16
-3.73907e-21
-1.53695e-16
-4.17564e-21
-1.50988e-16
-4.58205e-21
-1.48328e-16
-4.95695e-21
-1.45714e-16
-5.29921e-21
-1.43147e-16
-5.60791e-21
-1.40625e-16
-5.88236e-21
-1.38148e-16
-6.1221e-21
-1.35714e-16
-6.32692e-21
-1.33323e-16
-6.49681e-21
-1.30974e-16
-6.63202e-21
-1.28667e-16
-6.73306e-21
-1.264e-16
-6.80062e-21
-1.24173e-16
-6.83565e-21
-1.21986e-16
-6.8393e-21
-1.19837e-16
-6.81291e-21
-1.17725e-16
-6.758e-21
-1.15651e-16
-6.67626e-21
-1.13614e-16
-6.56951e-21
-1.11612e-16
-6.43966e-21
-1.09646e-16
-6.28875e-21
-1.07714e-16
-6.11883e-21
-1.05817e-16
-5.93205e-21
-1.03953e-16
-5.73052e-21
-1.02121e-16
-5.51639e-21
-1.00322e-16
-5.29179e-21
-9.8555e-17
-5.05881e-21
-9.68188e-17
-4.81953e-21
-9.51132e-17
-4.57598e-21
-9.34376e-17
-4.33019e-21
-9.17916e-17
-4.10078e-21
-9.01746e-17
-5.47229e-12
-8.90332e-17
-1.61378e-07
-7.29625e-08
-3.94016e-05
1.85808e-07
-5.23689e-22
-1.70991e-16
-1.0348e-21
-1.67979e-16
-1.53048e-21
-1.65019e-16
-2.00818e-21
-1.62112e-16
-2.46566e-21
-1.59257e-16
-2.90089e-21
-1.56451e-16
-3.31214e-21
-1.53695e-16
-3.69787e-21
-1.50987e-16
-4.05681e-21
-1.48327e-16
-4.38786e-21
-1.45714e-16
-4.69018e-21
-1.43147e-16
-4.96312e-21
-1.40625e-16
-5.20627e-21
-1.38148e-16
-5.4194e-21
-1.35714e-16
-5.60252e-21
-1.33323e-16
-5.75583e-21
-1.30974e-16
-5.87972e-21
-1.28667e-16
-5.9748e-21
-1.264e-16
-6.04184e-21
-1.24173e-16
-6.08179e-21
-1.21986e-16
-6.09575e-21
-1.19837e-16
-6.08497e-21
-1.17725e-16
-6.05079e-21
-1.15651e-16
-5.99468e-21
-1.13614e-16
-5.91818e-21
-1.11612e-16
-5.82289e-21
-1.09646e-16
-5.71042e-21
-1.07715e-16
-5.58244e-21
-1.05817e-16
-5.4406e-21
-1.03953e-16
-5.28653e-21
-1.02122e-16
-5.12184e-21
-1.00322e-16
-4.94807e-21
-9.85551e-17
-4.76673e-21
-9.6819e-17
-4.57923e-21
-9.51134e-17
-4.38685e-21
-9.34378e-17
-4.19075e-21
-9.17918e-17
-4.01198e-21
-9.01748e-17
-6.6856e-12
-8.91563e-17
-1.58986e-07
-8.80199e-08
-3.97836e-05
1.84244e-07
-4.64101e-22
-1.7099e-16
-9.17004e-22
-1.67978e-16
-1.35615e-21
-1.65019e-16
-1.77925e-21
-1.62112e-16
-2.18433e-21
-1.59256e-16
-2.56962e-21
-1.56451e-16
-2.93363e-21
-1.53694e-16
-3.27508e-21
-1.50987e-16
-3.59292e-21
-1.48327e-16
-3.88631e-21
-1.45714e-16
-4.15464e-21
-1.43147e-16
-4.39748e-21
-1.40625e-16
-4.61461e-21
-1.38148e-16
-4.806e-21
-1.35714e-16
-4.9718e-21
-1.33323e-16
-5.11235e-21
-1.30974e-16
-5.22816e-21
-1.28667e-16
-5.31987e-21
-1.264e-16
-5.38829e-21
-1.24173e-16
-5.43433e-21
-1.21986e-16
-5.45905e-21
-1.19837e-16
-5.46357e-21
-1.17725e-16
-5.44907e-21
-1.15651e-16
-5.41683e-21
-1.13614e-16
-5.36813e-21
-1.11613e-16
-5.30426e-21
-1.09646e-16
-5.22652e-21
-1.07715e-16
-5.13619e-21
-1.05817e-16
-5.0345e-21
-1.03953e-16
-4.92265e-21
-1.02122e-16
-4.80177e-21
-1.00323e-16
-4.67293e-21
-9.85553e-17
-4.53718e-21
-9.68191e-17
-4.39547e-21
-9.51135e-17
-4.24878e-21
-9.3438e-17
-4.09805e-21
-9.1792e-17
-3.96972e-21
-9.01749e-17
-8.38771e-12
-8.93376e-17
-1.56053e-07
-1.07751e-07
-4.01575e-05
1.81698e-07
-4.10986e-22
-1.7099e-16
-8.12042e-22
-1.67978e-16
-1.20089e-21
-1.65019e-16
-1.57554e-21
-1.62112e-16
-1.93422e-21
-1.59256e-16
-2.27544e-21
-1.5645e-16
-2.59792e-21
-1.53694e-16
-2.90061e-21
-1.50987e-16
-3.18267e-21
-1.48327e-16
-3.44346e-21
-1.45714e-16
-3.68256e-21
-1.43147e-16
-3.89971e-21
-1.40625e-16
-4.09486e-21
-1.38147e-16
-4.26811e-21
-1.35714e-16
-4.41974e-21
-1.33323e-16
-4.55019e-21
-1.30974e-16
-4.66001e-21
-1.28667e-16
-4.7499e-21
-1.264e-16
-4.82068e-21
-1.24173e-16
-4.87324e-21
-1.21986e-16
-4.90856e-21
-1.19837e-16
-4.92767e-21
-1.17725e-16
-4.93166e-21
-1.15651e-16
-4.92161e-21
-1.13614e-16
-4.89861e-21
-1.11613e-16
-4.86373e-21
-1.09646e-16
-4.81799e-21
-1.07715e-16
-4.76235e-21
-1.05817e-16
-4.69769e-21
-1.03953e-16
-4.62481e-21
-1.02122e-16
-4.54441e-21
-1.00323e-16
-4.45707e-21
-9.85554e-17
-4.36332e-21
-9.68192e-17
-4.26356e-21
-9.51136e-17
-4.15815e-21
-9.34381e-17
-4.04742e-21
-9.17921e-17
-3.96503e-21
-9.01751e-17
-1.08082e-11
-8.95811e-17
-1.5261e-07
-1.32878e-07
-4.05217e-05
1.78188e-07
-3.6363e-22
-1.7099e-16
-7.18485e-22
-1.67977e-16
-1.06257e-21
-1.65018e-16
-1.39412e-21
-1.62111e-16
-1.71164e-21
-1.59255e-16
-2.01383e-21
-1.5645e-16
-2.29963e-21
-1.53694e-16
-2.56817e-21
-1.50986e-16
-2.8188e-21
-1.48326e-16
-3.05106e-21
-1.45713e-16
-3.26466e-21
-1.43146e-16
-3.45951e-21
-1.40625e-16
-3.63566e-21
-1.38147e-16
-3.79335e-21
-1.35713e-16
-3.93293e-21
-1.33323e-16
-4.05491e-21
-1.30974e-16
-4.15992e-21
-1.28667e-16
-4.24867e-21
-1.264e-16
-4.322e-21
-1.24173e-16
-4.38079e-21
-1.21986e-16
-4.426e-21
-1.19837e-16
-4.45861e-21
-1.17725e-16
-4.47963e-21
-1.15651e-16
-4.49006e-21
-1.13614e-16
-4.49087e-21
-1.11613e-16
-4.48298e-21
-1.09646e-16
-4.46724e-21
-1.07715e-16
-4.44441e-21
-1.05817e-16
-4.41513e-21
-1.03953e-16
-4.37987e-21
-1.02122e-16
-4.33896e-21
-1.00323e-16
-4.29255e-21
-9.85554e-17
-4.2406e-21
-9.68192e-17
-4.1829e-21
-9.51137e-17
-4.11906e-21
-9.34381e-17
-4.04863e-21
-9.17921e-17
-4.01577e-21
-9.01751e-17
-1.42897e-11
-8.99646e-17
-1.48787e-07
-1.67142e-07
-4.08754e-05
1.73905e-07
-3.21349e-22
-1.70989e-16
-6.34965e-22
-1.67977e-16
-9.39104e-22
-1.65018e-16
-1.23225e-21
-1.62111e-16
-1.51309e-21
-1.59255e-16
-1.78055e-21
-1.5645e-16
-2.03373e-21
-1.53694e-16
-2.27193e-21
-1.50986e-16
-2.49467e-21
-1.48326e-16
-2.7016e-21
-1.45713e-16
-2.89258e-21
-1.43146e-16
-3.06763e-21
-1.40624e-16
-3.22689e-21
-1.38147e-16
-3.37069e-21
-1.35713e-16
-3.49947e-21
-1.33322e-16
-3.61378e-21
-1.30974e-16
-3.7143e-21
-1.28666e-16
-3.80179e-21
-1.264e-16
-3.87711e-21
-1.24173e-16
-3.94116e-21
-1.21985e-16
-3.9949e-21
-1.19836e-16
-4.03934e-21
-1.17725e-16
-4.07546e-21
-1.15651e-16
-4.10428e-21
-1.13614e-16
-4.12676e-21
-1.11613e-16
-4.14381e-21
-1.09646e-16
-4.15627e-21
-1.07715e-16
-4.16486e-21
-1.05817e-16
-4.17016e-21
-1.03953e-16
-4.17256e-21
-1.02122e-16
-4.17222e-21
-1.00323e-16
-4.16901e-21
-9.85554e-17
-4.16247e-21
-9.68192e-17
-4.1517e-21
-9.51137e-17
-4.13534e-21
-9.34382e-17
-4.11144e-21
-9.17922e-17
-4.14098e-21
-9.01752e-17
-1.97679e-11
-9.05257e-17
-1.44893e-07
-2.1292e-07
-4.12181e-05
1.69227e-07
-2.83508e-22
-1.70989e-16
-5.60215e-22
-1.67977e-16
-8.28606e-22
-1.65018e-16
-1.08737e-21
-1.62111e-16
-1.33539e-21
-1.59255e-16
-1.57174e-21
-1.56449e-16
-1.79569e-21
-1.53693e-16
-2.00668e-21
-1.50986e-16
-2.20433e-21
-1.48326e-16
-2.38844e-21
-1.45713e-16
-2.55894e-21
-1.43146e-16
-2.71594e-21
-1.40624e-16
-2.85967e-21
-1.38147e-16
-2.99051e-21
-1.35713e-16
-3.10896e-21
-1.33322e-16
-3.21564e-21
-1.30974e-16
-3.31124e-21
-1.28666e-16
-3.3966e-21
-1.264e-16
-3.47257e-21
-1.24173e-16
-3.54013e-21
-1.21985e-16
-3.60028e-21
-1.19836e-16
-3.65405e-21
-1.17725e-16
-3.70253e-21
-1.15651e-16
-3.74681e-21
-1.13614e-16
-3.78794e-21
-1.11612e-16
-3.827e-21
-1.09646e-16
-3.865e-21
-1.07715e-16
-3.90287e-21
-1.05817e-16
-3.94145e-21
-1.03953e-16
-3.98144e-21
-1.02122e-16
-4.02333e-21
-1.00323e-16
-4.06735e-21
-9.85554e-17
-4.11333e-21
-9.68192e-17
-4.16058e-21
-9.51136e-17
-4.20766e-21
-9.34381e-17
-4.25214e-21
-9.17921e-17
-4.38414e-21
-9.01751e-17
-2.88274e-11
-9.14272e-17
-1.41398e-07
-2.78924e-07
-4.15508e-05
1.64745e-07
-2.49536e-22
-1.70989e-16
-4.93101e-22
-1.67977e-16
-7.29379e-22
-1.65018e-16
-9.57232e-22
-1.62111e-16
-1.1757e-21
-1.59255e-16
-1.38401e-21
-1.56449e-16
-1.58154e-21
-1.53693e-16
-1.76785e-21
-1.50986e-16
-1.94266e-21
-1.48326e-16
-2.10583e-21
-1.45713e-16
-2.25739e-21
-1.43146e-16
-2.39749e-21
-1.40624e-16
-2.52643e-21
-1.38147e-16
-2.64462e-21
-1.35713e-16
-2.75261e-21
-1.33322e-16
-2.85102e-21
-1.30974e-16
-2.94062e-21
-1.28666e-16
-3.02224e-21
-1.264e-16
-3.0968e-21
-1.24173e-16
-3.1653e-21
-1.21985e-16
-3.2288e-21
-1.19836e-16
-3.28841e-21
-1.17725e-16
-3.34532e-21
-1.15651e-16
-3.40074e-21
-1.13614e-16
-3.45593e-21
-1.11612e-16
-3.51217e-21
-1.09646e-16
-3.57079e-21
-1.07715e-16
-3.63316e-21
-1.05817e-16
-3.70064e-21
-1.03953e-16
-3.77466e-21
-1.02122e-16
-3.85664e-21
-1.00323e-16
-3.94805e-21
-9.85553e-17
-4.05031e-21
-9.68191e-17
-4.1648e-21
-9.51135e-17
-4.29277e-21
-9.3438e-17
-4.43516e-21
-9.1792e-17
-4.73982e-21
-9.0175e-17
-4.5196e-11
-9.29464e-17
-1.38993e-07
-3.75145e-07
-4.18757e-05
1.61132e-07
-2.18938e-22
-1.70989e-16
-4.3264e-22
-1.67976e-16
-6.39953e-22
-1.65017e-16
-8.39888e-22
-1.6211e-16
-1.03161e-21
-1.59255e-16
-1.21446e-21
-1.56449e-16
-1.38791e-21
-1.53693e-16
-1.55161e-21
-1.50985e-16
-1.70533e-21
-1.48326e-16
-1.849e-21
-1.45713e-16
-1.98269e-21
-1.43146e-16
-2.10658e-21
-1.40624e-16
-2.221e-21
-1.38147e-16
-2.32637e-21
-1.35713e-16
-2.42324e-21
-1.33322e-16
-2.51228e-21
-1.30973e-16
-2.59422e-21
-1.28666e-16
-2.66993e-21
-1.26399e-16
-2.74032e-21
-1.24173e-16
-2.80644e-21
-1.21985e-16
-2.86936e-21
-1.19836e-16
-2.93026e-21
-1.17725e-16
-2.9904e-21
-1.15651e-16
-3.05108e-21
-1.13614e-16
-3.11371e-21
-1.11612e-16
-3.17977e-21
-1.09646e-16
-3.25085e-21
-1.07715e-16
-3.32866e-21
-1.05817e-16
-3.41508e-21
-1.03953e-16
-3.51219e-21
-1.02122e-16
-3.62237e-21
-1.00322e-16
-3.74838e-21
-9.85552e-17
-3.89352e-21
-9.6819e-17
-4.06181e-21
-9.51133e-17
-4.25824e-21
-9.34378e-17
-4.48915e-21
-9.17917e-17
-4.99735e-21
-9.01747e-17
-7.1583e-11
-9.51875e-17
-1.38849e-07
-4.94092e-07
-4.21967e-05
1.58776e-07
-1.91296e-22
-1.70988e-16
-3.78001e-22
-1.67976e-16
-5.59097e-22
-1.65017e-16
-7.3371e-22
-1.6211e-16
-9.01109e-22
-1.59254e-16
-1.06071e-21
-1.56449e-16
-1.21206e-21
-1.53693e-16
-1.35485e-21
-1.50985e-16
-1.4889e-21
-1.48326e-16
-1.61417e-21
-1.45713e-16
-1.73073e-21
-1.43146e-16
-1.83878e-21
-1.40624e-16
-1.93862e-21
-1.38147e-16
-2.03069e-21
-1.35713e-16
-2.1155e-21
-1.33322e-16
-2.19368e-21
-1.30973e-16
-2.26597e-21
-1.28666e-16
-2.33318e-21
-1.26399e-16
-2.39622e-21
-1.24173e-16
-2.45609e-21
-1.21985e-16
-2.51388e-21
-1.19836e-16
-2.57075e-21
-1.17725e-16
-2.62794e-21
-1.15651e-16
-2.68678e-21
-1.13614e-16
-2.74869e-21
-1.11612e-16
-2.81516e-21
-1.09646e-16
-2.88781e-21
-1.07714e-16
-2.96837e-21
-1.05817e-16
-3.05872e-21
-1.03953e-16
-3.16098e-21
-1.02121e-16
-3.2775e-21
-1.00322e-16
-3.41109e-21
-9.8555e-17
-3.56505e-21
-9.68188e-17
-3.74348e-21
-9.51132e-17
-3.95157e-21
-9.34376e-17
-4.19599e-21
-9.17915e-17
-4.82014e-21
-9.01744e-17
-9.88804e-11
-9.75149e-17
-1.42488e-07
-5.97986e-07
-4.25194e-05
1.57688e-07
-1.66268e-22
-1.70988e-16
-3.28511e-22
-1.67976e-16
-4.85815e-22
-1.65017e-16
-6.37392e-22
-1.6211e-16
-7.82585e-22
-1.59254e-16
-9.20862e-22
-1.56449e-16
-1.05182e-21
-1.53693e-16
-1.17517e-21
-1.50985e-16
-1.29075e-21
-1.48325e-16
-1.39851e-21
-1.45712e-16
-1.49851e-21
-1.43145e-16
-1.59092e-21
-1.40624e-16
-1.67601e-21
-1.38146e-16
-1.75415e-21
-1.35713e-16
-1.82583e-21
-1.33322e-16
-1.89159e-21
-1.30973e-16
-1.9521e-21
-1.28666e-16
-2.00812e-21
-1.26399e-16
-2.06047e-21
-1.24173e-16
-2.11009e-21
-1.21985e-16
-2.15798e-21
-1.19836e-16
-2.20524e-21
-1.17725e-16
-2.25303e-21
-1.15651e-16
-2.30259e-21
-1.13614e-16
-2.35523e-21
-1.11612e-16
-2.41229e-21
-1.09646e-16
-2.47519e-21
-1.07714e-16
-2.54535e-21
-1.05817e-16
-2.62421e-21
-1.03953e-16
-2.71321e-21
-1.02121e-16
-2.81376e-21
-1.00322e-16
-2.92724e-21
-9.85549e-17
-3.05496e-21
-9.68187e-17
-3.19817e-21
-9.5113e-17
-3.358e-21
-9.34374e-17
-3.53544e-21
-9.17913e-17
-4.10773e-21
-9.01742e-17
-1.05308e-10
-9.87904e-17
-1.50837e-07
-6.45852e-07
-4.28504e-05
1.58076e-07
-1.43585e-22
-1.70988e-16
-2.83641e-22
-1.67976e-16
-4.1933e-22
-1.65017e-16
-5.49927e-22
-1.6211e-16
-6.74821e-22
-1.59254e-16
-7.93517e-22
-1.56449e-16
-9.05626e-22
-1.53693e-16
-1.01087e-21
-1.50985e-16
-1.10906e-21
-1.48325e-16
-1.20014e-21
-1.45712e-16
-1.28411e-21
-1.43145e-16
-1.36108e-21
-1.40624e-16
-1.43127e-21
-1.38146e-16
-1.49496e-21
-1.35713e-16
-1.55252e-21
-1.33322e-16
-1.60443e-21
-1.30973e-16
-1.65122e-21
-1.28666e-16
-1.69354e-21
-1.26399e-16
-1.73208e-21
-1.24173e-16
-1.76767e-21
-1.21985e-16
-1.80117e-21
-1.19836e-16
-1.83357e-21
-1.17725e-16
-1.86589e-21
-1.15651e-16
-1.89925e-21
-1.13614e-16
-1.93483e-21
-1.11612e-16
-1.97381e-21
-1.09646e-16
-2.01741e-21
-1.07714e-16
-2.06676e-21
-1.05817e-16
-2.1229e-21
-1.03953e-16
-2.18667e-21
-1.02121e-16
-2.25858e-21
-1.00322e-16
-2.33868e-21
-9.85548e-17
-2.42641e-21
-9.68186e-17
-2.52033e-21
-9.51129e-17
-2.61791e-21
-9.34373e-17
-2.71518e-21
-9.17912e-17
-3.12998e-21
-9.01741e-17
-8.5783e-11
-9.83688e-17
-1.63553e-07
-6.26329e-07
-4.31968e-05
1.60783e-07
-1.23042e-22
-1.70988e-16
-2.4299e-22
-1.67976e-16
-3.59058e-22
-1.65017e-16
-4.70565e-22
-1.6211e-16
-5.76932e-22
-1.59254e-16
-6.77674e-22
-1.56449e-16
-7.72405e-22
-1.53693e-16
-8.60826e-22
-1.50985e-16
-9.42728e-22
-1.48325e-16
-1.01799e-21
-1.45712e-16
-1.08655e-21
-1.43145e-16
-1.14845e-21
-1.40624e-16
-1.2038e-21
-1.38146e-16
-1.25276e-21
-1.35713e-16
-1.29558e-21
-1.33322e-16
-1.33259e-21
-1.30973e-16
-1.36417e-21
-1.28666e-16