/*--------------------------------*- C++ -*----------------------------------*\
  =========                 |
  \\      /  F ield         | OpenFOAM: The Open Source CFD Toolbox
   \\    /   O peration     | Website:  https://openfoam.org
    \\  /    A nd           | Version:  7
     \\/     M anipulation  |
\*---------------------------------------------------------------------------*/
FoamFile
{
    version     2.0;
    format      ascii;
    class       volVectorField;
    location    "10000";
    object      Ua;
}
// * * * * * * * * * * * * * * * * * * * * * * * * * * * * * * * * * * * * * //

dimensions      [0 1 -1 0 0 0 0];

internalField   nonuniform List<vector> 
3200
(
(-2.45944e-07 3.55183e-07 0)
(-7.35014e-07 3.5741e-07 0)
(-1.21992e-06 3.61807e-07 0)
(-1.70353e-06 3.68372e-07 0)
(-2.18861e-06 3.77159e-07 0)
(-2.67784e-06 3.88274e-07 0)
(-3.17397e-06 4.01878e-07 0)
(-3.6798e-06 4.18197e-07 0)
(-4.1983e-06 4.37522e-07 0)
(-4.73268e-06 4.6023e-07 0)
(-5.28645e-06 4.86798e-07 0)
(-5.86353e-06 5.17827e-07 0)
(-6.4684e-06 5.54075e-07 0)
(-7.10621e-06 5.96504e-07 0)
(-7.78301e-06 6.4634e-07 0)
(-8.50599e-06 7.05162e-07 0)
(-9.28384e-06 7.75025e-07 0)
(-1.01272e-05 8.58638e-07 0)
(-1.10493e-05 9.59625e-07 0)
(-1.20668e-05 1.08291e-06 0)
(-1.32012e-05 1.23532e-06 0)
(-1.44808e-05 1.42647e-06 0)
(-1.59431e-05 1.67019e-06 0)
(-1.76395e-05 1.98683e-06 0)
(-1.96416e-05 2.40696e-06 0)
(-2.20516e-05 2.97748e-06 0)
(-2.5019e-05 3.77182e-06 0)
(-2.87672e-05 4.90726e-06 0)
(-3.36377e-05 6.57431e-06 0)
(-4.01635e-05 9.08728e-06 0)
(-4.91917e-05 1.29714e-05 0)
(-6.20904e-05 1.91139e-05 0)
(-8.10992e-05 2.9025e-05 0)
(-5.74068e-05 3.46302e-05 0)
(-1.34372e-05 4.17068e-05 0)
(-3.45195e-06 1.1828e-05 0)
(-1.89699e-06 7.06768e-06 0)
(-1.14783e-06 4.74749e-06 0)
(-6.47966e-07 3.15378e-06 0)
(-2.26286e-07 1.75223e-06 0)
(-2.42699e-07 1.06086e-06 0)
(-7.25248e-07 1.06742e-06 0)
(-1.20349e-06 1.08035e-06 0)
(-1.68012e-06 1.09965e-06 0)
(-2.15772e-06 1.12546e-06 0)
(-2.63879e-06 1.15807e-06 0)
(-3.12585e-06 1.19794e-06 0)
(-3.62146e-06 1.2457e-06 0)
(-4.12828e-06 1.30215e-06 0)
(-4.64912e-06 1.36835e-06 0)
(-5.18702e-06 1.4456e-06 0)
(-5.74531e-06 1.53554e-06 0)
(-6.32767e-06 1.64024e-06 0)
(-6.93821e-06 1.76227e-06 0)
(-7.58161e-06 1.90488e-06 0)
(-8.26318e-06 2.07217e-06 0)
(-8.98905e-06 2.26941e-06 0)
(-9.76625e-06 2.50334e-06 0)
(-1.06029e-05 2.7828e-06 0)
(-1.15082e-05 3.11938e-06 0)
(-1.24926e-05 3.52853e-06 0)
(-1.35677e-05 4.03108e-06 0)
(-1.47453e-05 4.6554e-06 0)
(-1.60361e-05 5.44071e-06 0)
(-1.74469e-05 6.44172e-06 0)
(-1.89733e-05 7.73569e-06 0)
(-2.05881e-05 9.43276e-06 0)
(-2.22164e-05 1.16912e-05 0)
(-2.36906e-05 1.47401e-05 0)
(-2.46657e-05 1.89124e-05 0)
(-2.4463e-05 2.4693e-05 0)
(-2.1784e-05 3.27877e-05 0)
(-1.41901e-05 4.42199e-05 0)
(-1.30891e-06 4.97035e-05 0)
(2.94677e-06 1.71841e-05 0)
(-3.99744e-06 1.37358e-05 0)
(-1.17439e-05 1.38647e-05 0)
(-2.04931e-05 1.56347e-05 0)
(-1.3959e-05 7.64233e-06 0)
(-1.3035e-06 9.79461e-07 0)
(-2.36397e-07 1.75276e-06 0)
(-7.06289e-07 1.76326e-06 0)
(-1.17161e-06 1.78399e-06 0)
(-1.63474e-06 1.81488e-06 0)
(-2.09792e-06 1.85614e-06 0)
(-2.56332e-06 1.90818e-06 0)
(-3.03306e-06 1.97166e-06 0)
(-3.50924e-06 2.04746e-06 0)
(-3.99397e-06 2.13676e-06 0)
(-4.48943e-06 2.24106e-06 0)
(-4.99783e-06 2.36218e-06 0)
(-5.5215e-06 2.50243e-06 0)
(-6.06284e-06 2.6646e-06 0)
(-6.62436e-06 2.85214e-06 0)
(-7.20862e-06 3.06929e-06 0)
(-7.81822e-06 3.32126e-06 0)
(-8.45572e-06 3.61447e-06 0)
(-9.12343e-06 3.9569e-06 0)
(-9.82317e-06 4.35843e-06 0)
(-1.05559e-05 4.83131e-06 0)
(-1.13209e-05 5.39081e-06 0)
(-1.21149e-05 6.05582e-06 0)
(-1.29303e-05 6.84964e-06 0)
(-1.37529e-05 7.80064e-06 0)
(-1.45583e-05 8.94266e-06 0)
(-1.53075e-05 1.03147e-05 0)
(-1.59397e-05 1.19586e-05 0)
(-1.63657e-05 1.39139e-05 0)
(-1.64607e-05 1.6205e-05 0)
(-1.60628e-05 1.8817e-05 0)
(-1.49887e-05 2.16477e-05 0)
(-1.30912e-05 2.4421e-05 0)
(-1.04097e-05 2.65298e-05 0)
(-7.51699e-06 2.67589e-05 0)
(-5.66065e-06 2.43877e-05 0)
(-5.06082e-06 2.34702e-05 0)
(-4.68227e-06 2.41318e-05 0)
(-3.52433e-06 2.64093e-05 0)
(-1.68149e-06 1.4291e-05 0)
(-1.67344e-07 5.43063e-07 0)
(-2.2739e-07 2.42254e-06 0)
(-6.79206e-07 2.43644e-06 0)
(-1.12611e-06 2.46382e-06 0)
(-1.57007e-06 2.50458e-06 0)
(-2.0129e-06 2.55891e-06 0)
(-2.4563e-06 2.62725e-06 0)
(-2.9019e-06 2.71034e-06 0)
(-3.35123e-06 2.80918e-06 0)
(-3.80575e-06 2.92507e-06 0)
(-4.26685e-06 3.05966e-06 0)
(-4.73585e-06 3.21497e-06 0)
(-5.21393e-06 3.39342e-06 0)
(-5.70216e-06 3.59797e-06 0)
(-6.20138e-06 3.83209e-06 0)
(-6.71216e-06 4.09995e-06 0)
(-7.23462e-06 4.40648e-06 0)
(-7.76829e-06 4.75747e-06 0)
(-8.31183e-06 5.15971e-06 0)
(-8.86272e-06 5.62111e-06 0)
(-9.41676e-06 6.15074e-06 0)
(-9.96746e-06 6.75887e-06 0)
(-1.05053e-05 7.45682e-06 0)
(-1.10168e-05 8.25665e-06 0)
(-1.14834e-05 9.17034e-06 0)
(-1.18803e-05 1.02086e-05 0)
(-1.21757e-05 1.13784e-05 0)
(-1.23306e-05 1.26802e-05 0)
(-1.23e-05 1.41021e-05 0)
(-1.20369e-05 1.56141e-05 0)
(-1.15006e-05 1.71596e-05 0)
(-1.06706e-05 1.86481e-05 0)
(-9.56656e-06 1.9954e-05 0)
(-8.27003e-06 2.09312e-05 0)
(-6.93033e-06 2.147e-05 0)
(-5.71023e-06 2.16413e-05 0)
(-4.64803e-06 2.17948e-05 0)
(-3.64696e-06 2.20593e-05 0)
(-2.60303e-06 2.23813e-05 0)
(-1.19906e-06 1.43547e-05 0)
(-3.87723e-08 1.25049e-07 0)
(-2.16151e-07 3.06309e-06 0)
(-6.45434e-07 3.07967e-06 0)
(-1.06946e-06 3.11232e-06 0)
(-1.4897e-06 3.16085e-06 0)
(-1.90751e-06 3.22535e-06 0)
(-2.3241e-06 3.30625e-06 0)
(-2.74054e-06 3.4042e-06 0)
(-3.1578e-06 3.52017e-06 0)
(-3.57669e-06 3.65539e-06 0)
(-3.99784e-06 3.81139e-06 0)
(-4.42172e-06 3.99003e-06 0)
(-4.84855e-06 4.1935e-06 0)
(-5.27827e-06 4.42436e-06 0)
(-5.71043e-06 4.68556e-06 0)
(-6.14412e-06 4.98048e-06 0)
(-6.57782e-06 5.31289e-06 0)
(-7.00926e-06 5.68702e-06 0)
(-7.4352e-06 6.10746e-06 0)
(-7.85119e-06 6.57912e-06 0)
(-8.25132e-06 7.10706e-06 0)
(-8.62794e-06 7.69622e-06 0)
(-8.97133e-06 8.3511e-06 0)
(-9.2695e-06 9.07511e-06 0)
(-9.50809e-06 9.86984e-06 0)
(-9.67052e-06 1.0734e-05 0)
(-9.73851e-06 1.1662e-05 0)
(-9.69324e-06 1.26428e-05 0)
(-9.51726e-06 1.3658e-05 0)
(-9.19726e-06 1.46811e-05 0)
(-8.72769e-06 1.56771e-05 0)
(-8.11455e-06 1.6605e-05 0)
(-7.37821e-06 1.74227e-05 0)
(-6.55318e-06 1.80969e-05 0)
(-5.68204e-06 1.86154e-05 0)
(-4.80257e-06 1.89984e-05 0)
(-3.9335e-06 1.92897e-05 0)
(-3.07488e-06 1.95168e-05 0)
(-2.22201e-06 1.96821e-05 0)
(-1.02031e-06 1.27932e-05 0)
(-1.6146e-08 5.54617e-08 0)
(-2.03222e-07 3.66873e-06 0)
(-6.06614e-07 3.68725e-06 0)
(-1.00443e-06 3.72367e-06 0)
(-1.39768e-06 3.77769e-06 0)
(-1.78722e-06 3.8493e-06 0)
(-2.17377e-06 3.93878e-06 0)
(-2.55794e-06 4.04666e-06 0)
(-2.94014e-06 4.1737e-06 0)
(-3.32062e-06 4.32092e-06 0)
(-3.69941e-06 4.48956e-06 0)
(-4.0763e-06 4.68109e-06 0)
(-4.45082e-06 4.8972e-06 0)
(-4.82212e-06 5.13983e-06 0)
(-5.18896e-06 5.41107e-06 0)
(-5.54963e-06 5.71323e-06 0)
(-5.90182e-06 6.04871e-06 0)
(-6.24257e-06 6.41999e-06 0)
(-6.56814e-06 6.82949e-06 0)
(-6.87391e-06 7.27947e-06 0)
(-7.15433e-06 7.77178e-06 0)
(-7.4028e-06 8.30764e-06 0)
(-7.61177e-06 8.8873e-06 0)
(-7.77275e-06 9.50965e-06 0)
(-7.87661e-06 1.01718e-05 0)
(-7.91395e-06 1.08686e-05 0)
(-7.87575e-06 1.15921e-05 0)
(-7.75414e-06 1.23315e-05 0)
(-7.54348e-06 1.30727e-05 0)
(-7.24145e-06 1.37993e-05 0)
(-6.85006e-06 1.44928e-05 0)
(-6.37624e-06 1.5135e-05 0)
(-5.83172e-06 1.57098e-05 0)
(-5.23178e-06 1.62062e-05 0)
(-4.593e-06 1.662e-05 0)
(-3.9303e-06 1.69541e-05 0)
(-3.25488e-06 1.72158e-05 0)
(-2.574e-06 1.74122e-05 0)
(-1.89258e-06 1.75477e-05 0)
(-8.76459e-07 1.12554e-05 0)
(-8.57042e-09 3.90256e-08 0)
(-1.8916e-07 4.23539e-06 0)
(-5.6443e-07 4.25511e-06 0)
(-9.33896e-07 4.29382e-06 0)
(-1.2981e-06 4.35111e-06 0)
(-1.65748e-06 4.42684e-06 0)
(-2.01234e-06 4.52111e-06 0)
(-2.36283e-06 4.63424e-06 0)
(-2.70896e-06 4.76674e-06 0)
(-3.05052e-06 4.91931e-06 0)
(-3.38713e-06 5.0928e-06 0)
(-3.71813e-06 5.28819e-06 0)
(-4.04259e-06 5.50662e-06 0)
(-4.35929e-06 5.74926e-06 0)
(-4.66661e-06 6.01738e-06 0)
(-4.96257e-06 6.31221e-06 0)
(-5.24471e-06 6.63494e-06 0)
(-5.51013e-06 6.98659e-06 0)
(-5.7554e-06 7.36792e-06 0)
(-5.97658e-06 7.77931e-06 0)
(-6.16924e-06 8.22062e-06 0)
(-6.32853e-06 8.69099e-06 0)
(-6.44926e-06 9.18863e-06 0)
(-6.52612e-06 9.71073e-06 0)
(-6.55388e-06 1.02532e-05 0)
(-6.52772e-06 1.08105e-05 0)
(-6.44365e-06 1.13758e-05 0)
(-6.29888e-06 1.19409e-05 0)
(-6.09225e-06 1.24965e-05 0)
(-5.82462e-06 1.30327e-05 0)
(-5.499e-06 1.35394e-05 0)
(-5.12051e-06 1.40077e-05 0)
(-4.69609e-06 1.44297e-05 0)
(-4.23385e-06 1.48003e-05 0)
(-3.7423e-06 1.51165e-05 0)
(-3.2295e-06 1.5378e-05 0)
(-2.7026e-06 1.55858e-05 0)
(-2.1676e-06 1.5742e-05 0)
(-1.62954e-06 1.58487e-05 0)
(-7.66868e-07 1.00008e-05 0)
(-4.53815e-09 3.09884e-08 0)
(-1.74496e-07 4.76057e-06 0)
(-5.20477e-07 4.78079e-06 0)
(-8.60529e-07 4.82045e-06 0)
(-1.1948e-06 4.879e-06 0)
(-1.52336e-06 4.95618e-06 0)
(-1.84615e-06 5.05188e-06 0)
(-2.16302e-06 5.16619e-06 0)
(-2.47362e-06 5.29934e-06 0)
(-2.77749e-06 5.45169e-06 0)
(-3.07394e-06 5.62369e-06 0)
(-3.36209e-06 5.81584e-06 0)
(-3.64081e-06 6.0287e-06 0)
(-3.90873e-06 6.26281e-06 0)
(-4.16422e-06 6.51868e-06 0)
(-4.40535e-06 6.79669e-06 0)
(-4.62989e-06 7.09708e-06 0)
(-4.83535e-06 7.41986e-06 0)
(-5.01894e-06 7.7647e-06 0)
(-5.17766e-06 8.13089e-06 0)
(-5.30832e-06 8.51723e-06 0)
(-5.40763e-06 8.92193e-06 0)
(-5.47235e-06 9.34255e-06 0)
(-5.4994e-06 9.77591e-06 0)
(-5.48602e-06 1.02181e-05 0)
(-5.43003e-06 1.06645e-05 0)
(-5.32993e-06 1.11097e-05 0)
(-5.18517e-06 1.15481e-05 0)
(-4.99622e-06 1.19734e-05 0)
(-4.76471e-06 1.23795e-05 0)
(-4.49337e-06 1.27608e-05 0)
(-4.18593e-06 1.31119e-05 0)
(-3.84692e-06 1.34287e-05 0)
(-3.48136e-06 1.3708e-05 0)
(-3.09449e-06 1.39478e-05 0)
(-2.69141e-06 1.41472e-05 0)
(-2.27689e-06 1.43061e-05 0)
(-1.85526e-06 1.4425e-05 0)
(-1.43028e-06 1.45049e-05 0)
(-6.85724e-07 9.0155e-06 0)
(-1.82429e-09 2.57683e-08 0)
(-1.59697e-07 5.2432e-06 0)
(-4.76161e-07 5.26334e-06 0)
(-7.86685e-07 5.30278e-06 0)
(-1.0911e-06 5.3609e-06 0)
(-1.38917e-06 5.43727e-06 0)
(-1.6806e-06 5.53162e-06 0)
(-1.96496e-06 5.64382e-06 0)
(-2.24174e-06 5.77381e-06 0)
(-2.51026e-06 5.92164e-06 0)
(-2.76972e-06 6.08739e-06 0)
(-3.01914e-06 6.27115e-06 0)
(-3.25738e-06 6.473e-06 0)
(-3.48312e-06 6.69295e-06 0)
(-3.69485e-06 6.93094e-06 0)
(-3.8909e-06 7.18675e-06 0)
(-4.06943e-06 7.45998e-06 0)
(-4.22848e-06 7.74999e-06 0)
(-4.36595e-06 8.05587e-06 0)
(-4.47971e-06 8.37635e-06 0)
(-4.56761e-06 8.7098e-06 0)
(-4.6276e-06 9.05418e-06 0)
(-4.65779e-06 9.407e-06 0)
(-4.65653e-06 9.76536e-06 0)
(-4.62257e-06 1.01259e-05 0)
(-4.5551e-06 1.04851e-05 0)
(-4.45387e-06 1.08389e-05 0)
(-4.31926e-06 1.11833e-05 0)
(-4.1523e-06 1.15142e-05 0)
(-3.95469e-06 1.18276e-05 0)
(-3.72873e-06 1.21201e-05 0)
(-3.47723e-06 1.23884e-05 0)
(-3.20342e-06 1.26299e-05 0)
(-2.91081e-06 1.28426e-05 0)
(-2.60301e-06 1.30253e-05 0)
(-2.28364e-06 1.3177e-05 0)
(-1.95621e-06 1.32977e-05 0)
(-1.62412e-06 1.33875e-05 0)
(-1.29059e-06 1.34467e-05 0)
(-6.31558e-07 8.22979e-06 0)
(2.42394e-10 2.20477e-08 0)
(-1.45153e-07 5.68346e-06 0)
(-4.32643e-07 5.70304e-06 0)
(-7.14295e-07 5.74134e-06 0)
(-9.89693e-07 5.79767e-06 0)
(-1.25839e-06 5.87148e-06 0)
(-1.5199e-06 5.96235e-06 0)
(-1.77364e-06 6.06994e-06 0)
(-2.01898e-06 6.19397e-06 0)
(-2.25517e-06 6.33421e-06 0)
(-2.48137e-06 6.49045e-06 0)
(-2.69662e-06 6.66244e-06 0)
(-2.89984e-06 6.8499e-06 0)
(-3.08988e-06 7.05247e-06 0)
(-3.26545e-06 7.26968e-06 0)
(-3.42519e-06 7.50093e-06 0)
(-3.56768e-06 7.74543e-06 0)
(-3.69146e-06 8.00221e-06 0)
(-3.79504e-06 8.27006e-06 0)
(-3.877e-06 8.54754e-06 0)
(-3.93601e-06 8.83293e-06 0)
(-3.97085e-06 9.12425e-06 0)
(-3.98052e-06 9.41928e-06 0)
(-3.96429e-06 9.71553e-06 0)
(-3.92173e-06 1.00104e-05 0)
(-3.85278e-06 1.03009e-05 0)
(-3.75776e-06 1.05844e-05 0)
(-3.63742e-06 1.08579e-05 0)
(-3.49293e-06 1.11186e-05 0)
(-3.32584e-06 1.1364e-05 0)
(-3.13806e-06 1.15916e-05 0)
(-2.93179e-06 1.17996e-05 0)
(-2.70945e-06 1.19861e-05 0)
(-2.47361e-06 1.21501e-05 0)
(-2.22692e-06 1.22906e-05 0)
(-1.97202e-06 1.24072e-05 0)
(-1.71152e-06 1.24998e-05 0)
(-1.44794e-06 1.25686e-05 0)
(-1.1837e-06 1.26141e-05 0)
(-5.89571e-07 7.57983e-06 0)
(1.85504e-09 1.92724e-08 0)
(-1.31163e-07 6.0825e-06 0)
(-3.9082e-07 6.10118e-06 0)
(-6.44837e-07 6.13766e-06 0)
(-8.92625e-07 6.1912e-06 0)
(-1.13359e-06 6.26118e-06 0)
(-1.36713e-06 6.34703e-06 0)
(-1.59259e-06 6.44828e-06 0)
(-1.80928e-06 6.56447e-06 0)
(-2.01643e-06 6.69516e-06 0)
(-2.21324e-06 6.83989e-06 0)
(-2.39883e-06 6.99819e-06 0)
(-2.57225e-06 7.16953e-06 0)
(-2.73254e-06 7.3533e-06 0)
(-2.87864e-06 7.54877e-06 0)
(-3.00953e-06 7.75512e-06 0)
(-3.12413e-06 7.97139e-06 0)
(-3.22142e-06 8.19645e-06 0)
(-3.30042e-06 8.42903e-06 0)
(-3.36023e-06 8.66766e-06 0)
(-3.40007e-06 8.91074e-06 0)
(-3.41932e-06 9.1565e-06 0)
(-3.41754e-06 9.40302e-06 0)
(-3.39453e-06 9.64828e-06 0)
(-3.35031e-06 9.89019e-06 0)
(-3.28519e-06 1.01266e-05 0)
(-3.19976e-06 1.03554e-05 0)
(-3.09487e-06 1.05746e-05 0)
(-2.97165e-06 1.07822e-05 0)
(-2.83146e-06 1.09765e-05 0)
(-2.67589e-06 1.11558e-05 0)
(-2.50666e-06 1.13189e-05 0)
(-2.32565e-06 1.14648e-05 0)
(-2.1348e-06 1.15925e-05 0)
(-1.93606e-06 1.17017e-05 0)
(-1.73138e-06 1.17921e-05 0)
(-1.52264e-06 1.18636e-05 0)
(-1.31161e-06 1.19165e-05 0)
(-1.0999e-06 1.19512e-05 0)
(-5.55821e-07 7.04273e-06 0)
(3.11533e-09 1.7127e-08 0)
(-1.17945e-07 6.44226e-06 0)
(-3.51332e-07 6.45978e-06 0)
(-5.79356e-07 6.49396e-06 0)
(-8.01317e-07 6.54405e-06 0)
(-1.01654e-06 6.60936e-06 0)
(-1.22435e-06 6.68923e-06 0)
(-1.42408e-06 6.78308e-06 0)
(-1.61502e-06 6.89033e-06 0)
(-1.79644e-06 7.01038e-06 0)
(-1.96762e-06 7.14263e-06 0)
(-2.12776e-06 7.28644e-06 0)
(-2.2761e-06 7.44113e-06 0)
(-2.41182e-06 7.60593e-06 0)
(-2.53414e-06 7.78001e-06 0)
(-2.64227e-06 7.96243e-06 0)
(-2.73547e-06 8.15215e-06 0)
(-2.81304e-06 8.34805e-06 0)
(-2.87438e-06 8.54887e-06 0)
(-2.91897e-06 8.75327e-06 0)
(-2.94641e-06 8.9598e-06 0)
(-2.95645e-06 9.16692e-06 0)
(-2.94901e-06 9.37306e-06 0)
(-2.92416e-06 9.57659e-06 0)
(-2.8822e-06 9.77586e-06 0)
(-2.82359e-06 9.96927e-06 0)
(-2.749e-06 1.01552e-05 0)
(-2.65928e-06 1.03323e-05 0)
(-2.55546e-06 1.04991e-05 0)
(-2.43871e-06 1.06544e-05 0)
(-2.31032e-06 1.07971e-05 0)
(-2.17171e-06 1.09264e-05 0)
(-2.02433e-06 1.10416e-05 0)
(-1.86968e-06 1.11422e-05 0)
(-1.70929e-06 1.12278e-05 0)
(-1.54465e-06 1.12985e-05 0)
(-1.37724e-06 1.13542e-05 0)
(-1.20846e-06 1.13951e-05 0)
(-1.03969e-06 1.14215e-05 0)
(-5.32297e-07 6.59098e-06 0)
(4.10505e-09 1.54293e-08 0)
(-1.05637e-07 6.76515e-06 0)
(-3.14591e-07 6.78137e-06 0)
(-5.18513e-07 6.81298e-06 0)
(-7.16648e-07 6.85923e-06 0)
(-9.08282e-07 6.91939e-06 0)
(-1.09273e-06 6.99277e-06 0)
(-1.26931e-06 7.07871e-06 0)
(-1.43736e-06 7.17653e-06 0)
(-1.59622e-06 7.28556e-06 0)
(-1.74523e-06 7.40511e-06 0)
(-1.88373e-06 7.53444e-06 0)
(-2.01108e-06 7.67278e-06 0)
(-2.12665e-06 7.81931e-06 0)
(-2.22985e-06 7.97314e-06 0)
(-2.32013e-06 8.13331e-06 0)
(-2.39698e-06 8.2988e-06 0)
(-2.45996e-06 8.46853e-06 0)
(-2.50872e-06 8.64134e-06 0)
(-2.54302e-06 8.81602e-06 0)
(-2.56271e-06 8.99132e-06 0)
(-2.56776e-06 9.16594e-06 0)
(-2.5583e-06 9.33859e-06 0)
(-2.53457e-06 9.50796e-06 0)
(-2.49695e-06 9.67278e-06 0)
(-2.446e-06 9.8318e-06 0)
(-2.38236e-06 9.98388e-06 0)
(-2.30684e-06 1.01279e-05 0)
(-2.22033e-06 1.0263e-05 0)
(-2.12383e-06 1.03881e-05 0)
(-2.01841e-06 1.05027e-05 0)
(-1.9052e-06 1.06062e-05 0)
(-1.78536e-06 1.0698e-05 0)
(-1.66008e-06 1.0778e-05 0)
(-1.53054e-06 1.08458e-05 0)
(-1.39787e-06 1.09017e-05 0)
(-1.26321e-06 1.09455e-05 0)
(-1.12761e-06 1.09776e-05 0)
(-9.92054e-07 1.09982e-05 0)
(-5.13028e-07 6.20044e-06 0)
(4.84361e-09 1.40631e-08 0)
(-9.43145e-08 7.05391e-06 0)
(-2.80812e-07 7.06876e-06 0)
(-4.62645e-07 7.09768e-06 0)
(-6.39043e-07 7.13993e-06 0)
(-8.09292e-07 7.19478e-06 0)
(-9.72716e-07 7.26151e-06 0)
(-1.12867e-06 7.33943e-06 0)
(-1.27655e-06 7.42782e-06 0)
(-1.41574e-06 7.52597e-06 0)
(-1.5457e-06 7.63313e-06 0)
(-1.66587e-06 7.74854e-06 0)
(-1.77573e-06 7.87139e-06 0)
(-1.87482e-06 8.00085e-06 0)
(-1.9627e-06 8.13603e-06 0)
(-2.039e-06 8.27601e-06 0)
(-2.10338e-06 8.41981e-06 0)
(-2.1556e-06 8.56645e-06 0)
(-2.1955e-06 8.71488e-06 0)
(-2.22298e-06 8.86404e-06 0)
(-2.23808e-06 9.01285e-06 0)
(-2.2409e-06 9.16025e-06 0)
(-2.23167e-06 9.30517e-06 0)
(-2.21072e-06 9.44656e-06 0)
(-2.17846e-06 9.58343e-06 0)
(-2.13544e-06 9.71484e-06 0)
(-2.08228e-06 9.8399e-06 0)
(-2.01968e-06 9.95784e-06 0)
(-1.94843e-06 1.00679e-05 0)
(-1.86935e-06 1.01696e-05 0)
(-1.78334e-06 1.02623e-05 0)
(-1.69132e-06 1.03457e-05 0)
(-1.5942e-06 1.04196e-05 0)
(-1.49293e-06 1.04836e-05 0)
(-1.38843e-06 1.05378e-05 0)
(-1.28159e-06 1.05823e-05 0)
(-1.17329e-06 1.0617e-05 0)
(-1.06438e-06 1.06423e-05 0)
(-9.55644e-07 1.06585e-05 0)
(-4.98163e-07 5.8566e-06 0)
(5.36561e-09 1.29466e-08 0)
(-8.39995e-08 7.31143e-06 0)
(-2.50056e-07 7.3249e-06 0)
(-4.11834e-07 7.35114e-06 0)
(-5.68579e-07 7.3894e-06 0)
(-7.196e-07 7.43899e-06 0)
(-8.64256e-07 7.49919e-06 0)
(-1.00195e-06 7.5693e-06 0)
(-1.13213e-06 7.64859e-06 0)
(-1.25428e-06 7.73634e-06 0)
(-1.36792e-06 7.83179e-06 0)
(-1.4726e-06 7.93419e-06 0)
(-1.56792e-06 8.04273e-06 0)
(-1.65353e-06 8.15659e-06 0)
(-1.72912e-06 8.27494e-06 0)
(-1.79445e-06 8.39691e-06 0)
(-1.84933e-06 8.5216e-06 0)
(-1.89365e-06 8.64811e-06 0)
(-1.92735e-06 8.77553e-06 0)
(-1.95047e-06 8.90293e-06 0)
(-1.96311e-06 9.02942e-06 0)
(-1.96547e-06 9.15408e-06 0)
(-1.95782e-06 9.27605e-06 0)
(-1.94052e-06 9.3945e-06 0)
(-1.91398e-06 9.50864e-06 0)
(-1.8787e-06 9.61775e-06 0)
(-1.83525e-06 9.72116e-06 0)
(-1.78424e-06 9.81828e-06 0)
(-1.72634e-06 9.9086e-06 0)
(-1.66225e-06 9.99171e-06 0)
(-1.59269e-06 1.00672e-05 0)
(-1.51841e-06 1.0135e-05 0)
(-1.44015e-06 1.01947e-05 0)
(-1.35866e-06 1.02464e-05 0)
(-1.27464e-06 1.02899e-05 0)
(-1.18881e-06 1.03254e-05 0)
(-1.10179e-06 1.0353e-05 0)
(-1.01416e-06 1.03729e-05 0)
(-9.26377e-07 1.03851e-05 0)
(-4.85592e-07 5.55023e-06 0)
(5.6879e-09 1.20223e-08 0)
(-7.46752e-08 7.54058e-06 0)
(-2.22269e-07 7.55273e-06 0)
(-3.65972e-07 7.57636e-06 0)
(-5.05069e-07 7.61078e-06 0)
(-6.38909e-07 7.65533e-06 0)
(-7.66901e-07 7.70931e-06 0)
(-8.88506e-07 7.77202e-06 0)
(-1.00323e-06 7.84277e-06 0)
(-1.11063e-06 7.92083e-06 0)
(-1.2103e-06 8.00548e-06 0)
(-1.3019e-06 8.09597e-06 0)
(-1.38511e-06 8.19154e-06 0)
(-1.45967e-06 8.29142e-06 0)
(-1.52538e-06 8.39482e-06 0)
(-1.5821e-06 8.50094e-06 0)
(-1.62973e-06 8.60898e-06 0)
(-1.66825e-06 8.71813e-06 0)
(-1.69767e-06 8.82759e-06 0)
(-1.71812e-06 8.93657e-06 0)
(-1.72973e-06 9.04429e-06 0)
(-1.73275e-06 9.15001e-06 0)
(-1.72745e-06 9.25302e-06 0)
(-1.71418e-06 9.35265e-06 0)
(-1.69334e-06 9.44826e-06 0)
(-1.66538e-06 9.5393e-06 0)
(-1.63079e-06 9.62526e-06 0)
(-1.5901e-06 9.70568e-06 0)
(-1.54387e-06 9.78021e-06 0)
(-1.49267e-06 9.84854e-06 0)
(-1.43711e-06 9.91043e-06 0)
(-1.37778e-06 9.96573e-06 0)
(-1.3153e-06 1.00143e-05 0)
(-1.25028e-06 1.00562e-05 0)
(-1.1833e-06 1.00915e-05 0)
(-1.11498e-06 1.01201e-05 0)
(-1.0459e-06 1.01422e-05 0)
(-9.76675e-07 1.0158e-05 0)
(-9.07916e-07 1.01675e-05 0)
(-4.78286e-07 5.27357e-06 0)
(5.84816e-09 1.12509e-08 0)
(-6.62964e-08 7.74416e-06 0)
(-1.9731e-07 7.75506e-06 0)
(-3.24814e-07 7.77624e-06 0)
(-4.48143e-07 7.80706e-06 0)
(-5.66701e-07 7.84689e-06 0)
(-6.79951e-07 7.89508e-06 0)
(-7.87411e-07 7.95095e-06 0)
(-8.88655e-07 8.01384e-06 0)
(-9.83303e-07 8.08306e-06 0)
(-1.07103e-06 8.15792e-06 0)
(-1.15155e-06 8.23771e-06 0)
(-1.22464e-06 8.32172e-06 0)
(-1.29011e-06 8.40923e-06 0)
(-1.34785e-06 8.49952e-06 0)
(-1.39776e-06 8.59186e-06 0)
(-1.43983e-06 8.68554e-06 0)
(-1.47409e-06 8.77985e-06 0)
(-1.50062e-06 8.87407e-06 0)
(-1.51955e-06 8.96754e-06 0)
(-1.53106e-06 9.05959e-06 0)
(-1.53541e-06 9.1496e-06 0)
(-1.53285e-06 9.23697e-06 0)
(-1.52373e-06 9.32117e-06 0)
(-1.50838e-06 9.40167e-06 0)
(-1.48722e-06 9.47805e-06 0)
(-1.46065e-06 9.54989e-06 0)
(-1.42913e-06 9.61686e-06 0)
(-1.39311e-06 9.67868e-06 0)
(-1.35306e-06 9.73514e-06 0)
(-1.30946e-06 9.78609e-06 0)
(-1.26279e-06 9.83142e-06 0)
(-1.21353e-06 9.87111e-06 0)
(-1.16215e-06 9.90517e-06 0)
(-1.10913e-06 9.9337e-06 0)
(-1.05492e-06 9.95681e-06 0)
(-9.99974e-07 9.97472e-06 0)
(-9.44757e-07 9.98765e-06 0)
(-8.89718e-07 9.99588e-06 0)
(-4.69792e-07 5.00935e-06 0)
(5.8497e-09 1.06014e-08 0)
(-5.87992e-08 7.92482e-06 0)
(-1.74985e-07 7.93456e-06 0)
(-2.88026e-07 7.95347e-06 0)
(-3.97317e-07 7.98099e-06 0)
(-5.02318e-07 8.0165e-06 0)
(-6.0255e-07 8.05939e-06 0)
(-6.97592e-07 8.10905e-06 0)
(-7.87076e-07 8.16484e-06 0)
(-8.70687e-07 8.22612e-06 0)
(-9.48157e-07 8.29224e-06 0)
(-1.01927e-06 8.36255e-06 0)
(-1.08386e-06 8.43639e-06 0)
(-1.14181e-06 8.51311e-06 0)
(-1.19304e-06 8.59204e-06 0)
(-1.23753e-06 8.67254e-06 0)
(-1.2753e-06 8.75396e-06 0)
(-1.30643e-06 8.83568e-06 0)
(-1.33101e-06 8.91709e-06 0)
(-1.34921e-06 8.99759e-06 0)
(-1.36123e-06 9.07663e-06 0)
(-1.36728e-06 9.15367e-06 0)
(-1.36764e-06 9.22822e-06 0)
(-1.36259e-06 9.29981e-06 0)
(-1.35245e-06 9.36804e-06 0)
(-1.33756e-06 9.43252e-06 0)
(-1.31827e-06 9.49296e-06 0)
(-1.29495e-06 9.54906e-06 0)
(-1.26795e-06 9.60063e-06 0)
(-1.23766e-06 9.64749e-06 0)
(-1.20443e-06 9.68954e-06 0)
(-1.16864e-06 9.72673e-06 0)
(-1.13064e-06 9.75904e-06 0)
(-1.09077e-06 9.78653e-06 0)
(-1.04935e-06 9.80929e-06 0)
(-1.0067e-06 9.82747e-06 0)
(-9.63084e-07 9.84125e-06 0)
(-9.18729e-07 9.85085e-06 0)
(-8.73781e-07 9.85649e-06 0)
(-4.61563e-07 4.76097e-06 0)
(5.71572e-09 1.00384e-08 0)
(-5.21087e-08 8.08499e-06 0)
(-1.55069e-07 8.09368e-06 0)
(-2.55227e-07 8.11054e-06 0)
(-3.52039e-07 8.13505e-06 0)
(-4.45027e-07 8.16666e-06 0)
(-5.33768e-07 8.2048e-06 0)
(-6.17899e-07 8.2489e-06 0)
(-6.97106e-07 8.29838e-06 0)
(-7.71131e-07 8.35263e-06 0)
(-8.3976e-07 8.41106e-06 0)
(-9.02829e-07 8.47308e-06 0)
(-9.60222e-07 8.53809e-06 0)
(-1.01187e-06 8.60548e-06 0)
(-1.05773e-06 8.67468e-06 0)
(-1.09784e-06 8.7451e-06 0)
(-1.13224e-06 8.81617e-06 0)
(-1.16102e-06 8.88733e-06 0)
(-1.18432e-06 8.95806e-06 0)
(-1.2023e-06 9.02784e-06 0)
(-1.21515e-06 9.09618e-06 0)
(-1.2231e-06 9.16262e-06 0)
(-1.22638e-06 9.22674e-06 0)
(-1.22526e-06 9.28814e-06 0)
(-1.22001e-06 9.34648e-06 0)
(-1.21092e-06 9.40142e-06 0)
(-1.19828e-06 9.45271e-06 0)
(-1.18238e-06 9.50011e-06 0)
(-1.16351e-06 9.54343e-06 0)
(-1.14195e-06 9.58254e-06 0)
(-1.11798e-06 9.61735e-06 0)
(-1.09185e-06 9.6478e-06 0)
(-1.06381e-06 9.67391e-06 0)
(-1.0341e-06 9.69572e-06 0)
(-1.00295e-06 9.71333e-06 0)
(-9.70566e-07 9.72686e-06 0)
(-9.37172e-07 9.73649e-06 0)
(-9.02987e-07 9.74242e-06 0)
(-8.68242e-07 9.74481e-06 0)
(-4.58783e-07 4.52842e-06 0)
(5.48927e-09 9.53642e-09 0)
(-4.6145e-08 8.22689e-06 0)
(-1.3732e-07 8.23463e-06 0)
(-2.2601e-07 8.24966e-06 0)
(-3.11735e-07 8.27149e-06 0)
(-3.94072e-07 8.29963e-06 0)
(-4.72657e-07 8.33356e-06 0)
(-5.47176e-07 8.37274e-06 0)
(-6.17369e-07 8.41666e-06 0)
(-6.83024e-07 8.46476e-06 0)
(-7.43974e-07 8.51651e-06 0)
(-8.00101e-07 8.57136e-06 0)
(-8.51328e-07 8.62878e-06 0)
(-8.9762e-07 8.68822e-06 0)
(-9.38984e-07 8.74917e-06 0)
(-9.75462e-07 8.81111e-06 0)
(-1.00713e-06 8.87353e-06 0)
(-1.03411e-06 8.93595e-06 0)
(-1.05653e-06 8.9979e-06 0)
(-1.07457e-06 9.05892e-06 0)
(-1.08842e-06 9.11859e-06 0)
(-1.09829e-06 9.17651e-06 0)
(-1.1044e-06 9.23231e-06 0)
(-1.10699e-06 9.28563e-06 0)
(-1.10631e-06 9.33616e-06 0)
(-1.1026e-06 9.38361e-06 0)
(-1.0961e-06 9.42774e-06 0)
(-1.08705e-06 9.46833e-06 0)
(-1.07567e-06 9.50519e-06 0)
(-1.06216e-06 9.53818e-06 0)
(-1.04672e-06 9.56719e-06 0)
(-1.02951e-06 9.59218e-06 0)
(-1.01068e-06 9.6131e-06 0)
(-9.90344e-07 9.63e-06 0)
(-9.68616e-07 9.64294e-06 0)
(-9.4558e-07 9.65205e-06 0)
(-9.21312e-07 9.65751e-06 0)
(-8.95882e-07 9.65956e-06 0)
(-8.69331e-07 9.6584e-06 0)
(-4.58821e-07 4.29595e-06 0)
(5.18442e-09 9.07232e-09 0)
(-4.0828e-08 8.35249e-06 0)
(-1.21499e-07 8.3594e-06 0)
(-1.99975e-07 8.3728e-06 0)
(-2.75834e-07 8.39227e-06 0)
(-3.48712e-07 8.41735e-06 0)
(-4.18292e-07 8.44758e-06 0)
(-4.8431e-07 8.48247e-06 0)
(-5.46551e-07 8.52155e-06 0)
(-6.04843e-07 8.56433e-06 0)
(-6.59061e-07 8.61033e-06 0)
(-7.09121e-07 8.65904e-06 0)
(-7.54982e-07 8.71001e-06 0)
(-7.96637e-07 8.76274e-06 0)
(-8.34121e-07 8.81678e-06 0)
(-8.67498e-07 8.87167e-06 0)
(-8.96866e-07 8.92697e-06 0)
(-9.22352e-07 8.98224e-06 0)
(-9.44107e-07 9.03708e-06 0)
(-9.62306e-07 9.09109e-06 0)
(-9.7714e-07 9.1439e-06 0)
(-9.88817e-07 9.19514e-06 0)
(-9.97554e-07 9.24449e-06 0)
(-1.00358e-06 9.29162e-06 0)
(-1.00711e-06 9.33625e-06 0)
(-1.00837e-06 9.3781e-06 0)
(-1.00757e-06 9.41693e-06 0)
(-1.00492e-06 9.4525e-06 0)
(-1.00059e-06 9.48463e-06 0)
(-9.94739e-07 9.51312e-06 0)
(-9.87492e-07 9.53784e-06 0)
(-9.78939e-07 9.55865e-06 0)
(-9.69136e-07 9.57548e-06 0)
(-9.58093e-07 9.58827e-06 0)
(-9.45781e-07 9.59704e-06 0)
(-9.32134e-07 9.60183e-06 0)
(-9.17058e-07 9.60279e-06 0)
(-9.00451e-07 9.60015e-06 0)
(-8.82197e-07 9.59412e-06 0)
(-4.64914e-07 4.05999e-06 0)
(4.82713e-09 8.6193e-09 0)
(-3.60807e-08 8.46356e-06 0)
(-1.07374e-07 8.46973e-06 0)
(-1.76735e-07 8.48171e-06 0)
(-2.43797e-07 8.49911e-06 0)
(-3.08244e-07 8.52153e-06 0)
(-3.69806e-07 8.54853e-06 0)
(-4.28262e-07 8.5797e-06 0)
(-4.83434e-07 8.61461e-06 0)
(-5.35188e-07 8.65282e-06 0)
(-5.83431e-07 8.69389e-06 0)
(-6.28108e-07 8.73741e-06 0)
(-6.69205e-07 8.78294e-06 0)
(-7.06741e-07 8.83006e-06 0)
(-7.40769e-07 8.87838e-06 0)
(-7.71373e-07 8.92748e-06 0)
(-7.98667e-07 8.97699e-06 0)
(-8.22788e-07 9.02653e-06 0)
(-8.43897e-07 9.07574e-06 0)
(-8.62177e-07 9.12428e-06 0)
(-8.77825e-07 9.17182e-06 0)
(-8.91051e-07 9.21804e-06 0)
(-9.02075e-07 9.26263e-06 0)
(-9.1112e-07 9.30532e-06 0)
(-9.18412e-07 9.34583e-06 0)
(-9.24172e-07 9.38388e-06 0)
(-9.2861e-07 9.41924e-06 0)
(-9.31924e-07 9.45166e-06 0)
(-9.34287e-07 9.48089e-06 0)
(-9.35846e-07 9.50672e-06 0)
(-9.3671e-07 9.52891e-06 0)
(-9.36941e-07 9.54725e-06 0)
(-9.36543e-07 9.56152e-06 0)
(-9.35449e-07 9.57153e-06 0)
(-9.33506e-07 9.57708e-06 0)
(-9.30459e-07 9.57804e-06 0)
(-9.25939e-07 9.5743e-06 0)
(-9.19444e-07 9.56588e-06 0)
(-9.10291e-07 9.55279e-06 0)
(-4.78914e-07 3.81488e-06 0)
(4.44028e-09 8.15343e-09 0)
(-3.18319e-08 8.56164e-06 0)
(-9.47322e-08 8.56717e-06 0)
(-1.55935e-07 8.57791e-06 0)
(-2.15124e-07 8.59351e-06 0)
(-2.72024e-07 8.6136e-06 0)
(-3.26409e-07 8.63781e-06 0)
(-3.78091e-07 8.66577e-06 0)
(-4.26925e-07 8.6971e-06 0)
(-4.72808e-07 8.7314e-06 0)
(-5.15671e-07 8.7683e-06 0)
(-5.55486e-07 8.80742e-06 0)
(-5.92257e-07 8.8484e-06 0)
(-6.26022e-07 8.89087e-06 0)
(-6.56851e-07 8.93448e-06 0)
(-6.84842e-07 8.97889e-06 0)
(-7.10119e-07 9.02377e-06 0)
(-7.32831e-07 9.06879e-06 0)
(-7.53149e-07 9.11366e-06 0)
(-7.71262e-07 9.15806e-06 0)
(-7.87379e-07 9.20173e-06 0)
(-8.01717e-07 9.24439e-06 0)
(-8.14508e-07 9.28576e-06 0)
(-8.25989e-07 9.32561e-06 0)
(-8.36403e-07 9.36366e-06 0)
(-8.45993e-07 9.39969e-06 0)
(-8.54998e-07 9.43343e-06 0)
(-8.63649e-07 9.46464e-06 0)
(-8.72167e-07 9.49307e-06 0)
(-8.80751e-07 9.51842e-06 0)
(-8.89573e-07 9.54042e-06 0)
(-8.98766e-07 9.55874e-06 0)
(-9.08413e-07 9.573e-06 0)
(-9.18517e-07 9.58282e-06 0)
(-9.28985e-07 9.58771e-06 0)
(-9.39576e-07 9.58715e-06 0)
(-9.49857e-07 9.58052e-06 0)
(-9.59117e-07 9.56713e-06 0)
(-9.66199e-07 9.54602e-06 0)
(-5.09043e-07 3.55963e-06 0)
(4.05112e-09 7.6608e-09 0)
(-2.80176e-08 8.64807e-06 0)
(-8.33825e-08 8.65304e-06 0)
(-1.37259e-07 8.6627e-06 0)
(-1.89371e-07 8.67673e-06 0)
(-2.39484e-07 8.69481e-06 0)
(-2.87402e-07 8.71662e-06 0)
(-3.32969e-07 8.74181e-06 0)
(-3.76066e-07 8.77005e-06 0)
(-4.16612e-07 8.80102e-06 0)
(-4.5456e-07 8.83438e-06 0)
(-4.89897e-07 8.8698e-06 0)
(-5.22645e-07 8.90698e-06 0)
(-5.52852e-07 8.9456e-06 0)
(-5.806e-07 8.98536e-06 0)
(-6.05995e-07 9.02598e-06 0)
(-6.29169e-07 9.06718e-06 0)
(-6.5028e-07 9.1087e-06 0)
(-6.69504e-07 9.15028e-06 0)
(-6.8704e-07 9.19168e-06 0)
(-7.03102e-07 9.23266e-06 0)
(-7.17922e-07 9.27299e-06 0)
(-7.31745e-07 9.31247e-06 0)
(-7.44828e-07 9.35087e-06 0)
(-7.5744e-07 9.38799e-06 0)
(-7.69859e-07 9.42361e-06 0)
(-7.8237e-07 9.45753e-06 0)
(-7.95267e-07 9.48951e-06 0)
(-8.08851e-07 9.51933e-06 0)
(-8.2343e-07 9.54671e-06 0)
(-8.39317e-07 9.57137e-06 0)
(-8.56833e-07 9.59297e-06 0)
(-8.76302e-07 9.6111e-06 0)
(-8.98046e-07 9.62527e-06 0)
(-9.22383e-07 9.63486e-06 0)
(-9.49606e-07 9.63909e-06 0)
(-9.79962e-07 9.63696e-06 0)
(-1.01361e-06 9.62716e-06 0)
(-1.05042e-06 9.60769e-06 0)
(-5.57757e-07 3.31359e-06 0)
(3.65811e-09 7.15778e-09 0)
(-2.45821e-08 8.72403e-06 0)
(-7.31584e-08 8.72852e-06 0)
(-1.20429e-07 8.73723e-06 0)
(-1.66155e-07 8.7499e-06 0)
(-2.1013e-07 8.76623e-06 0)
(-2.52187e-07 8.78594e-06 0)
(-2.92192e-07 8.80873e-06 0)
(-3.30046e-07 8.83432e-06 0)
(-3.65686e-07 8.86243e-06 0)
(-3.99077e-07 8.89276e-06 0)
(-4.30218e-07 8.92505e-06 0)
(-4.59139e-07 8.95903e-06 0)
(-4.85896e-07 8.99444e-06 0)
(-5.10573e-07 9.03103e-06 0)
(-5.33281e-07 9.06858e-06 0)
(-5.54155e-07 9.10687e-06 0)
(-5.73352e-07 9.14567e-06 0)
(-5.91052e-07 9.18479e-06 0)
(-6.07457e-07 9.22404e-06 0)
(-6.22784e-07 9.26325e-06 0)
(-6.37272e-07 9.30224e-06 0)
(-6.51175e-07 9.34085e-06 0)
(-6.64765e-07 9.37893e-06 0)
(-6.7833e-07 9.41632e-06 0)
(-6.92175e-07 9.45288e-06 0)
(-7.06624e-07 9.48846e-06 0)
(-7.22022e-07 9.5229e-06 0)
(-7.3874e-07 9.55606e-06 0)
(-7.57179e-07 9.58776e-06 0)
(-7.77785e-07 9.61783e-06 0)
(-8.0106e-07 9.64608e-06 0)
(-8.27579e-07 9.67226e-06 0)
(-8.58024e-07 9.69611e-06 0)
(-8.93215e-07 9.71729e-06 0)
(-9.34165e-07 9.73535e-06 0)
(-9.82147e-07 9.74972e-06 0)
(-1.03879e-06 9.75961e-06 0)
(-1.10603e-06 9.76356e-06 0)
(-5.93144e-07 3.09953e-06 0)
(3.13866e-09 6.68102e-09 0)
(-2.14785e-08 8.79055e-06 0)
(-6.392e-08 8.79461e-06 0)
(-1.05216e-07 8.80249e-06 0)
(-1.45155e-07 8.81395e-06 0)
(-1.83556e-07 8.82875e-06 0)
(-2.2027e-07 8.84662e-06 0)
(-2.55183e-07 8.86732e-06 0)
(-2.88209e-07 8.8906e-06 0)
(-3.19292e-07 8.91622e-06 0)
(-3.48409e-07 8.94393e-06 0)
(-3.75561e-07 8.97352e-06 0)
(-4.0078e-07 9.00476e-06 0)
(-4.24122e-07 9.03744e-06 0)
(-4.45669e-07 9.07137e-06 0)
(-4.65529e-07 9.10637e-06 0)
(-4.83829e-07 9.14226e-06 0)
(-5.00724e-07 9.1789e-06 0)
(-5.16386e-07 9.21614e-06 0)
(-5.31011e-07 9.25384e-06 0)