/*--------------------------------*- C++ -*----------------------------------*\
  =========                 |
  \\      /  F ield         | OpenFOAM: The Open Source CFD Toolbox
   \\    /   O peration     | Website:  https://openfoam.org
    \\  /    A nd           | Version:  7
     \\/     M anipulation  |
\*---------------------------------------------------------------------------*/
FoamFile
{
    version     2.0;
    format      ascii;
    class       volVectorField;
    location    "10000";
    object      Ub;
}
// * * * * * * * * * * * * * * * * * * * * * * * * * * * * * * * * * * * * * //

dimensions      [0 1 -1 0 0 0 0];

internalField   nonuniform List<vector> 
3200
(
(-4.38095e-21 -9.87892e-16 0)
(-1.30927e-20 -9.87892e-16 0)
(-2.17302e-20 -9.87892e-16 0)
(-3.03447e-20 -9.87892e-16 0)
(-3.89852e-20 -9.87892e-16 0)
(-4.76998e-20 -9.87892e-16 0)
(-5.65372e-20 -9.87892e-16 0)
(-6.55475e-20 -9.87891e-16 0)
(-7.47835e-20 -9.87891e-16 0)
(-8.43023e-20 -9.8789e-16 0)
(-9.41665e-20 -9.8789e-16 0)
(-1.04446e-19 -9.87889e-16 0)
(-1.1522e-19 -9.87889e-16 0)
(-1.26581e-19 -9.87888e-16 0)
(-1.38637e-19 -9.87887e-16 0)
(-1.51515e-19 -9.87886e-16 0)
(-1.65371e-19 -9.87885e-16 0)
(-1.80393e-19 -9.87883e-16 0)
(-1.96818e-19 -9.87882e-16 0)
(-2.14943e-19 -9.87879e-16 0)
(-2.35151e-19 -9.87877e-16 0)
(-2.57944e-19 -9.87873e-16 0)
(-2.83991e-19 -9.87869e-16 0)
(-3.14208e-19 -9.87863e-16 0)
(-3.49871e-19 -9.87856e-16 0)
(-3.92801e-19 -9.87846e-16 0)
(-4.45659e-19 -9.87831e-16 0)
(-5.12425e-19 -9.87811e-16 0)
(-5.99182e-19 -9.87782e-16 0)
(-7.15425e-19 -9.87737e-16 0)
(-8.76242e-19 -9.87668e-16 0)
(-1.10605e-18 -9.87558e-16 0)
(-2.65703e-10 -9.87418e-16 0)
(-4.83748e-05 -9.65993e-08 0)
(-0.000107296 -3.7347e-05 0)
(-0.000119613 -9.99234e-06 0)
(-0.00012238 -5.61917e-06 0)
(-0.000124078 -3.57467e-06 0)
(-0.000123483 -7.45664e-06 0)
(-7.56958e-05 -0.000136614 0)
(-4.32314e-21 -9.8788e-16 0)
(-1.29187e-20 -9.87879e-16 0)
(-2.14375e-20 -9.87879e-16 0)
(-2.99276e-20 -9.87879e-16 0)
(-3.84349e-20 -9.87878e-16 0)
(-4.70042e-20 -9.87878e-16 0)
(-5.56801e-20 -9.87877e-16 0)
(-6.45083e-20 -9.87876e-16 0)
(-7.35361e-20 -9.87875e-16 0)
(-8.28138e-20 -9.87874e-16 0)
(-9.23954e-20 -9.87873e-16 0)
(-1.0234e-19 -9.87871e-16 0)
(-1.12713e-19 -9.87869e-16 0)
(-1.23589e-19 -9.87867e-16 0)
(-1.3505e-19 -9.87865e-16 0)
(-1.4719e-19 -9.87862e-16 0)
(-1.6012e-19 -9.87858e-16 0)
(-1.73964e-19 -9.87854e-16 0)
(-1.88867e-19 -9.87849e-16 0)
(-2.04992e-19 -9.87843e-16 0)
(-2.22528e-19 -9.87836e-16 0)
(-2.41678e-19 -9.87827e-16 0)
(-2.62654e-19 -9.87816e-16 0)
(-2.85648e-19 -9.87802e-16 0)
(-3.10778e-19 -9.87784e-16 0)
(-3.37968e-19 -9.87761e-16 0)
(-3.66732e-19 -9.8773e-16 0)
(-3.95735e-19 -9.8769e-16 0)
(-4.21995e-19 -9.87636e-16 0)
(-4.39365e-19 -9.87562e-16 0)
(-4.35755e-19 -9.87459e-16 0)
(-3.88034e-19 -9.87314e-16 0)
(-2.52766e-19 -9.87111e-16 0)
(-2.33154e-20 -9.86614e-16 0)
(5.24902e-20 -9.40822e-16 0)
(-7.12055e-20 -9.00313e-16 0)
(-2.55557e-19 -8.62779e-16 0)
(-2.34993e-08 -9.37869e-16 0)
(-1.51928e-05 -5.27347e-06 0)
(-1.47504e-05 -0.000319706 0)
(-4.21089e-21 -9.87867e-16 0)
(-1.2581e-20 -9.87867e-16 0)
(-2.08696e-20 -9.87867e-16 0)
(-2.91192e-20 -9.87866e-16 0)
(-3.73698e-20 -9.87865e-16 0)
(-4.566e-20 -9.87865e-16 0)
(-5.40273e-20 -9.87863e-16 0)
(-6.25094e-20 -9.87862e-16 0)
(-7.11438e-20 -9.8786e-16 0)
(-7.99693e-20 -9.87859e-16 0)
(-8.90254e-20 -9.87856e-16 0)
(-9.83534e-20 -9.87854e-16 0)
(-1.07996e-19 -9.87851e-16 0)
(-1.17998e-19 -9.87848e-16 0)
(-1.28406e-19 -9.87844e-16 0)
(-1.39264e-19 -9.87839e-16 0)
(-1.5062e-19 -9.87834e-16 0)
(-1.62514e-19 -9.87828e-16 0)
(-1.74978e-19 -9.87821e-16 0)
(-1.8803e-19 -9.87812e-16 0)
(-2.01657e-19 -9.87802e-16 0)
(-2.158e-19 -9.87791e-16 0)
(-2.30324e-19 -9.87776e-16 0)
(-2.44977e-19 -9.8776e-16 0)
(-2.59325e-19 -9.87739e-16 0)
(-2.72669e-19 -9.87715e-16 0)
(-2.8393e-19 -9.87685e-16 0)
(-2.91518e-19 -9.87651e-16 0)
(-2.9321e-19 -9.8761e-16 0)
(-2.86122e-19 -9.87563e-16 0)
(-2.66991e-19 -9.87513e-16 0)
(-2.3319e-19 -9.87464e-16 0)
(-1.85425e-19 -9.87426e-16 0)
(-1.33899e-19 -9.87422e-16 0)
(-1.00832e-19 -9.87464e-16 0)
(-9.01474e-20 -9.8748e-16 0)
(-8.34239e-20 -9.87469e-16 0)
(-6.08784e-12 -9.87896e-16 0)
(-1.22686e-06 -1.35739e-07 0)
(-5.54323e-07 -0.000375414 0)
(-4.05045e-21 -9.87855e-16 0)
(-1.20986e-20 -9.87855e-16 0)
(-2.00592e-20 -9.87855e-16 0)
(-2.79673e-20 -9.87854e-16 0)
(-3.58553e-20 -9.87853e-16 0)
(-4.37536e-20 -9.87852e-16 0)
(-5.1691e-20 -9.8785e-16 0)
(-5.96948e-20 -9.87848e-16 0)
(-6.7791e-20 -9.87846e-16 0)
(-7.60046e-20 -9.87844e-16 0)
(-8.43586e-20 -9.87841e-16 0)
(-9.28746e-20 -9.87838e-16 0)
(-1.01571e-19 -9.87834e-16 0)
(-1.10464e-19 -9.8783e-16 0)
(-1.19562e-19 -9.87825e-16 0)
(-1.28869e-19 -9.8782e-16 0)
(-1.38375e-19 -9.87814e-16 0)
(-1.48057e-19 -9.87807e-16 0)
(-1.5787e-19 -9.87798e-16 0)
(-1.67739e-19 -9.87789e-16 0)
(-1.77548e-19 -9.87778e-16 0)
(-1.87129e-19 -9.87766e-16 0)
(-1.9624e-19 -9.87751e-16 0)
(-2.04551e-19 -9.87735e-16 0)
(-2.11621e-19 -9.87717e-16 0)
(-2.16884e-19 -9.87696e-16 0)
(-2.19643e-19 -9.87673e-16 0)
(-2.19098e-19 -9.87647e-16 0)
(-2.14411e-19 -9.8762e-16 0)
(-2.04858e-19 -9.87593e-16 0)
(-1.90073e-19 -9.87566e-16 0)
(-1.70407e-19 -9.87543e-16 0)
(-1.47312e-19 -9.87526e-16 0)
(-1.23449e-19 -9.87516e-16 0)
(-1.01715e-19 -9.87513e-16 0)
(-8.27944e-20 -9.8751e-16 0)
(-6.49751e-20 -9.87506e-16 0)
(-3.19783e-12 -9.87994e-16 0)
(-6.03962e-07 -1.17026e-07 0)
(-1.38546e-07 -0.000386091 0)
(-3.85025e-21 -9.87844e-16 0)
(-1.1497e-20 -9.87844e-16 0)
(-1.905e-20 -9.87843e-16 0)
(-2.65358e-20 -9.87842e-16 0)
(-3.39781e-20 -9.87841e-16 0)
(-4.13987e-20 -9.8784e-16 0)
(-4.88168e-20 -9.87838e-16 0)
(-5.62493e-20 -9.87836e-16 0)
(-6.37108e-20 -9.87833e-16 0)
(-7.12127e-20 -9.87831e-16 0)
(-7.87632e-20 -9.87827e-16 0)
(-8.63663e-20 -9.87824e-16 0)
(-9.40207e-20 -9.8782e-16 0)
(-1.01719e-19 -9.87815e-16 0)
(-1.09444e-19 -9.8781e-16 0)
(-1.17169e-19 -9.87804e-16 0)
(-1.24854e-19 -9.87797e-16 0)
(-1.32442e-19 -9.8779e-16 0)
(-1.39852e-19 -9.87781e-16 0)
(-1.46979e-19 -9.87772e-16 0)
(-1.53688e-19 -9.87761e-16 0)
(-1.59804e-19 -9.8775e-16 0)
(-1.65116e-19 -9.87737e-16 0)
(-1.69366e-19 -9.87723e-16 0)
(-1.72259e-19 -9.87707e-16 0)
(-1.7347e-19 -9.87691e-16 0)
(-1.72664e-19 -9.87673e-16 0)
(-1.69529e-19 -9.87655e-16 0)
(-1.63829e-19 -9.87637e-16 0)
(-1.55464e-19 -9.87619e-16 0)
(-1.44543e-19 -9.87603e-16 0)
(-1.31427e-19 -9.87588e-16 0)
(-1.1673e-19 -9.87576e-16 0)
(-1.01213e-19 -9.87567e-16 0)
(-8.55471e-20 -9.8756e-16 0)
(-7.00667e-20 -9.87555e-16 0)
(-5.47853e-20 -9.87551e-16 0)
(-3.08729e-12 -9.88143e-16 0)
(-4.78196e-07 -1.30833e-07 0)
(-6.32846e-08 -0.000393212 0)
(-3.61995e-21 -9.87833e-16 0)
(-1.08055e-20 -9.87833e-16 0)
(-1.78918e-20 -9.87832e-16 0)
(-2.48966e-20 -9.87831e-16 0)
(-3.18353e-20 -9.8783e-16 0)
(-3.8721e-20 -9.87828e-16 0)
(-4.55641e-20 -9.87826e-16 0)
(-5.23721e-20 -9.87824e-16 0)
(-5.91495e-20 -9.87822e-16 0)
(-6.58968e-20 -9.87819e-16 0)
(-7.26104e-20 -9.87815e-16 0)
(-7.92815e-20 -9.87811e-16 0)
(-8.58954e-20 -9.87807e-16 0)
(-9.24299e-20 -9.87802e-16 0)
(-9.88544e-20 -9.87797e-16 0)
(-1.05128e-19 -9.87791e-16 0)
(-1.11198e-19 -9.87784e-16 0)
(-1.16997e-19 -9.87777e-16 0)
(-1.22444e-19 -9.87769e-16 0)
(-1.27439e-19 -9.8776e-16 0)
(-1.31865e-19 -9.87751e-16 0)
(-1.35587e-19 -9.8774e-16 0)
(-1.38454e-19 -9.87729e-16 0)
(-1.40304e-19 -9.87717e-16 0)
(-1.4097e-19 -9.87705e-16 0)
(-1.40289e-19 -9.87692e-16 0)
(-1.38123e-19 -9.87679e-16 0)
(-1.3437e-19 -9.87666e-16 0)
(-1.28991e-19 -9.87653e-16 0)
(-1.22019e-19 -9.8764e-16 0)
(-1.13579e-19 -9.87629e-16 0)
(-1.03879e-19 -9.87619e-16 0)
(-9.31926e-20 -9.8761e-16 0)
(-8.18141e-20 -9.87602e-16 0)
(-7.00097e-20 -9.87597e-16 0)
(-5.79784e-20 -9.87592e-16 0)
(-4.58631e-20 -9.87588e-16 0)
(-3.08484e-12 -9.88277e-16 0)
(-4.25775e-07 -1.48354e-07 0)
(-3.63729e-08 -0.000399343 0)
(-3.36947e-21 -9.87823e-16 0)
(-1.00541e-20 -9.87823e-16 0)
(-1.66353e-20 -9.87822e-16 0)
(-2.31228e-20 -9.87821e-16 0)
(-2.95244e-20 -9.8782e-16 0)
(-3.58453e-20 -9.87818e-16 0)
(-4.20886e-20 -9.87816e-16 0)
(-4.82541e-20 -9.87814e-16 0)
(-5.43383e-20 -9.87811e-16 0)
(-6.03342e-20 -9.87808e-16 0)
(-6.62302e-20 -9.87804e-16 0)
(-7.20099e-20 -9.878e-16 0)
(-7.76511e-20 -9.87796e-16 0)
(-8.31254e-20 -9.87791e-16 0)
(-8.83972e-20 -9.87786e-16 0)
(-9.3423e-20 -9.8778e-16 0)
(-9.81508e-20 -9.87774e-16 0)
(-1.0252e-19 -9.87767e-16 0)
(-1.0646e-19 -9.8776e-16 0)
(-1.09891e-19 -9.87752e-16 0)
(-1.12729e-19 -9.87744e-16 0)
(-1.14879e-19 -9.87735e-16 0)
(-1.16248e-19 -9.87726e-16 0)
(-1.16743e-19 -9.87716e-16 0)
(-1.16277e-19 -9.87706e-16 0)
(-1.14779e-19 -9.87696e-16 0)
(-1.12201e-19 -9.87686e-16 0)
(-1.0852e-19 -9.87676e-16 0)
(-1.03753e-19 -9.87666e-16 0)
(-9.79525e-20 -9.87657e-16 0)
(-9.12105e-20 -9.87649e-16 0)
(-8.36504e-20 -9.87641e-16 0)
(-7.54167e-20 -9.87635e-16 0)
(-6.66607e-20 -9.87629e-16 0)
(-5.75265e-20 -9.87625e-16 0)
(-4.81408e-20 -9.87621e-16 0)
(-3.86236e-20 -9.87618e-16 0)
(-3.10104e-12 -9.88387e-16 0)
(-3.95431e-07 -1.65194e-07 0)
(-2.06977e-08 -0.000404956 0)
(-3.10826e-21 -9.87814e-16 0)
(-9.27115e-21 -9.87813e-16 0)
(-1.53284e-20 -9.87813e-16 0)
(-2.12828e-20 -9.87812e-16 0)
(-2.71353e-20 -9.8781e-16 0)
(-3.28851e-20 -9.87809e-16 0)
(-3.85293e-20 -9.87806e-16 0)
(-4.40622e-20 -9.87804e-16 0)
(-4.94749e-20 -9.87801e-16 0)
(-5.47555e-20 -9.87798e-16 0)
(-5.98882e-20 -9.87795e-16 0)
(-6.4853e-20 -9.87791e-16 0)
(-6.96254e-20 -9.87787e-16 0)
(-7.41764e-20 -9.87782e-16 0)
(-7.84715e-20 -9.87777e-16 0)
(-8.24713e-20 -9.87772e-16 0)
(-8.61311e-20 -9.87766e-16 0)
(-8.94014e-20 -9.8776e-16 0)
(-9.22286e-20 -9.87754e-16 0)
(-9.4556e-20 -9.87747e-16 0)
(-9.63251e-20 -9.8774e-16 0)
(-9.74779e-20 -9.87732e-16 0)
(-9.79596e-20 -9.87724e-16 0)
(-9.77214e-20 -9.87716e-16 0)
(-9.6724e-20 -9.87709e-16 0)
(-9.4941e-20 -9.87701e-16 0)
(-9.23623e-20 -9.87693e-16 0)
(-8.89967e-20 -9.87685e-16 0)
(-8.48729e-20 -9.87678e-16 0)
(-8.00395e-20 -9.87671e-16 0)
(-7.45631e-20 -9.87665e-16 0)
(-6.85243e-20 -9.87659e-16 0)
(-6.20128e-20 -9.87654e-16 0)
(-5.51215e-20 -9.8765e-16 0)
(-4.79414e-20 -9.87647e-16 0)
(-4.05577e-20 -9.87644e-16 0)
(-3.30592e-20 -9.87642e-16 0)
(-3.08738e-12 -9.88499e-16 0)
(-3.75739e-07 -1.84296e-07 0)
(-8.89927e-09 -0.000410248 0)
(-2.84466e-21 -9.87805e-16 0)
(-8.48175e-21 -9.87805e-16 0)
(-1.40131e-20 -9.87804e-16 0)
(-1.94355e-20 -9.87803e-16 0)
(-2.4745e-20 -9.87802e-16 0)
(-2.99361e-20 -9.878e-16 0)
(-3.50014e-20 -9.87798e-16 0)
(-3.99316e-20 -9.87796e-16 0)
(-4.47147e-20 -9.87793e-16 0)
(-4.93364e-20 -9.8779e-16 0)
(-5.37793e-20 -9.87787e-16 0)
(-5.8023e-20 -9.87783e-16 0)
(-6.2044e-20 -9.87779e-16 0)
(-6.58155e-20 -9.87775e-16 0)
(-6.93078e-20 -9.8777e-16 0)
(-7.2488e-20 -9.87766e-16 0)
(-7.5321e-20 -9.8776e-16 0)
(-7.77697e-20 -9.87755e-16 0)
(-7.97961e-20 -9.87749e-16 0)
(-8.13619e-20 -9.87743e-16 0)
(-8.24306e-20 -9.87737e-16 0)
(-8.29682e-20 -9.87731e-16 0)
(-8.29458e-20 -9.87725e-16 0)
(-8.23409e-20 -9.87718e-16 0)
(-8.1139e-20 -9.87712e-16 0)
(-7.93358e-20 -9.87705e-16 0)
(-7.69381e-20 -9.87699e-16 0)
(-7.39641e-20 -9.87693e-16 0)
(-7.04441e-20 -9.87688e-16 0)
(-6.6419e-20 -9.87683e-16 0)
(-6.19391e-20 -9.87678e-16 0)
(-5.70619e-20 -9.87674e-16 0)
(-5.18497e-20 -9.8767e-16 0)
(-4.63669e-20 -9.87666e-16 0)
(-4.06779e-20 -9.87664e-16 0)
(-3.48456e-20 -9.87662e-16 0)
(-2.89422e-20 -9.8766e-16 0)
(-3.27545e-12 -9.8865e-16 0)
(-3.62188e-07 -2.10269e-07 0)
(1.26085e-09 -0.000415327 0)
(-2.58558e-21 -9.87797e-16 0)
(-7.70657e-21 -9.87797e-16 0)
(-1.27236e-20 -9.87796e-16 0)
(-1.76292e-20 -9.87795e-16 0)
(-2.24155e-20 -9.87794e-16 0)
(-2.70736e-20 -9.87792e-16 0)
(-3.15935e-20 -9.8779e-16 0)
(-3.59637e-20 -9.87788e-16 0)
(-4.0171e-20 -9.87786e-16 0)
(-4.42001e-20 -9.87783e-16 0)
(-4.80343e-20 -9.8778e-16 0)
(-5.16543e-20 -9.87776e-16 0)
(-5.50394e-20 -9.87773e-16 0)
(-5.81668e-20 -9.87769e-16 0)
(-6.10123e-20 -9.87765e-16 0)
(-6.35504e-20 -9.87761e-16 0)
(-6.57551e-20 -9.87756e-16 0)
(-6.76003e-20 -9.87751e-16 0)
(-6.90603e-20 -9.87746e-16 0)
(-7.01113e-20 -9.87741e-16 0)
(-7.07319e-20 -9.87736e-16 0)
(-7.09042e-20 -9.87731e-16 0)
(-7.06151e-20 -9.87725e-16 0)
(-6.9857e-20 -9.8772e-16 0)
(-6.86287e-20 -9.87715e-16 0)
(-6.69362e-20 -9.8771e-16 0)
(-6.47926e-20 -9.87705e-16 0)
(-6.22188e-20 -9.877e-16 0)
(-5.92425e-20 -9.87696e-16 0)
(-5.58976e-20 -9.87692e-16 0)
(-5.22233e-20 -9.87688e-16 0)
(-4.82629e-20 -9.87685e-16 0)
(-4.4062e-20 -9.87682e-16 0)
(-3.96677e-20 -9.8768e-16 0)
(-3.51272e-20 -9.87678e-16 0)
(-3.04869e-20 -9.87676e-16 0)
(-2.58044e-20 -9.87675e-16 0)
(-3.59336e-12 -9.88815e-16 0)
(-3.52646e-07 -2.4025e-07 0)
(1.0268e-08 -0.000420263 0)
(-2.33639e-21 -9.8779e-16 0)
(-6.96159e-21 -9.8779e-16 0)
(-1.14863e-20 -9.87789e-16 0)
(-1.59001e-20 -9.87788e-16 0)
(-2.01925e-20 -9.87787e-16 0)
(-2.43525e-20 -9.87785e-16 0)
(-2.83685e-20 -9.87784e-16 0)
(-3.22283e-20 -9.87782e-16 0)
(-3.59183e-20 -9.87779e-16 0)
(-3.9424e-20 -9.87777e-16 0)
(-4.27298e-20 -9.87774e-16 0)
(-4.5819e-20 -9.87771e-16 0)
(-4.86741e-20 -9.87768e-16 0)
(-5.12767e-20 -9.87764e-16 0)
(-5.3608e-20 -9.8776e-16 0)
(-5.56495e-20 -9.87757e-16 0)
(-5.73825e-20 -9.87753e-16 0)
(-5.87897e-20 -9.87748e-16 0)
(-5.98551e-20 -9.87744e-16 0)
(-6.05648e-20 -9.8774e-16 0)
(-6.09076e-20 -9.87735e-16 0)
(-6.0876e-20 -9.87731e-16 0)
(-6.0466e-20 -9.87727e-16 0)
(-5.96783e-20 -9.87722e-16 0)
(-5.85184e-20 -9.87718e-16 0)
(-5.69966e-20 -9.87714e-16 0)
(-5.51283e-20 -9.8771e-16 0)
(-5.29334e-20 -9.87706e-16 0)
(-5.04363e-20 -9.87703e-16 0)
(-4.7665e-20 -9.877e-16 0)
(-4.46506e-20 -9.87697e-16 0)
(-4.14264e-20 -9.87694e-16 0)
(-3.80267e-20 -9.87692e-16 0)
(-3.44866e-20 -9.8769e-16 0)
(-3.08407e-20 -9.87688e-16 0)
(-2.71225e-20 -9.87687e-16 0)
(-2.33767e-20 -9.87686e-16 0)
(-3.92975e-12 -9.89015e-16 0)
(-3.45799e-07 -2.76219e-07 0)
(1.83241e-08 -0.0004251 0)
(-2.10093e-21 -9.87784e-16 0)
(-6.25821e-21 -9.87783e-16 0)
(-1.03199e-20 -9.87783e-16 0)
(-1.42737e-20 -9.87782e-16 0)
(-1.81074e-20 -9.87781e-16 0)
(-2.18092e-20 -9.87779e-16 0)
(-2.53668e-20 -9.87778e-16 0)
(-2.87679e-20 -9.87776e-16 0)
(-3.19997e-20 -9.87774e-16 0)
(-3.50487e-20 -9.87771e-16 0)
(-3.79014e-20 -9.87769e-16 0)
(-4.05436e-20 -9.87766e-16 0)
(-4.29613e-20 -9.87763e-16 0)
(-4.514e-20 -9.8776e-16 0)
(-4.70661e-20 -9.87757e-16 0)
(-4.87263e-20 -9.87753e-16 0)
(-5.01081e-20 -9.8775e-16 0)
(-5.12008e-20 -9.87746e-16 0)
(-5.1995e-20 -9.87743e-16 0)
(-5.24838e-20 -9.87739e-16 0)
(-5.26627e-20 -9.87735e-16 0)
(-5.25301e-20 -9.87732e-16 0)
(-5.20875e-20 -9.87728e-16 0)
(-5.13401e-20 -9.87724e-16 0)
(-5.02961e-20 -9.87721e-16 0)
(-4.89674e-20 -9.87718e-16 0)
(-4.73693e-20 -9.87714e-16 0)
(-4.55199e-20 -9.87711e-16 0)
(-4.34402e-20 -9.87709e-16 0)
(-4.11533e-20 -9.87706e-16 0)
(-3.86842e-20 -9.87704e-16 0)
(-3.60589e-20 -9.87702e-16 0)
(-3.33043e-20 -9.877e-16 0)
(-3.04473e-20 -9.87699e-16 0)
(-2.75146e-20 -9.87697e-16 0)
(-2.45325e-20 -9.87696e-16 0)
(-2.15407e-20 -9.87696e-16 0)
(-4.48669e-12 -9.89269e-16 0)
(-3.40682e-07 -3.20901e-07 0)
(2.56337e-08 -0.000429867 0)
(-1.88169e-21 -9.87778e-16 0)
(-5.60374e-21 -9.87778e-16 0)
(-9.23616e-21 -9.87777e-16 0)
(-1.27655e-20 -9.87776e-16 0)
(-1.6179e-20 -9.87775e-16 0)
(-1.94645e-20 -9.87774e-16 0)
(-2.26099e-20 -9.87772e-16 0)
(-2.56034e-20 -9.87771e-16 0)
(-2.84331e-20 -9.87769e-16 0)
(-3.10874e-20 -9.87767e-16 0)
(-3.35544e-20 -9.87764e-16 0)
(-3.58229e-20 -9.87762e-16 0)
(-3.78816e-20 -9.87759e-16 0)
(-3.97199e-20 -9.87756e-16 0)
(-4.1328e-20 -9.87754e-16 0)
(-4.26968e-20 -9.87751e-16 0)
(-4.38187e-20 -9.87748e-16 0)
(-4.46874e-20 -9.87745e-16 0)
(-4.52983e-20 -9.87741e-16 0)
(-4.5649e-20 -9.87738e-16 0)
(-4.5739e-20 -9.87735e-16 0)
(-4.55705e-20 -9.87732e-16 0)
(-4.51477e-20 -9.87729e-16 0)
(-4.44777e-20 -9.87726e-16 0)
(-4.35701e-20 -9.87723e-16 0)
(-4.24366e-20 -9.87721e-16 0)
(-4.10913e-20 -9.87718e-16 0)
(-3.95503e-20 -9.87716e-16 0)
(-3.78313e-20 -9.87713e-16 0)
(-3.59535e-20 -9.87711e-16 0)
(-3.39369e-20 -9.8771e-16 0)
(-3.18023e-20 -9.87708e-16 0)
(-2.95707e-20 -9.87707e-16 0)
(-2.72631e-20 -9.87705e-16 0)
(-2.49e-20 -9.87704e-16 0)
(-2.25013e-20 -9.87704e-16 0)
(-2.01022e-20 -9.87703e-16 0)
(-5.16216e-12 -9.89597e-16 0)
(-3.36712e-07 -3.7637e-07 0)
(3.20882e-08 -0.00043458 0)
(-1.68e-21 -9.87773e-16 0)
(-5.00204e-21 -9.87773e-16 0)
(-8.24099e-21 -9.87772e-16 0)
(-1.13831e-20 -9.87771e-16 0)
(-1.44158e-20 -9.8777e-16 0)
(-1.73268e-20 -9.87769e-16 0)
(-2.01048e-20 -9.87768e-16 0)
(-2.27389e-20 -9.87766e-16 0)
(-2.52184e-20 -9.87764e-16 0)
(-2.75332e-20 -9.87763e-16 0)
(-2.96737e-20 -9.8776e-16 0)
(-3.16308e-20 -9.87758e-16 0)
(-3.33958e-20 -9.87756e-16 0)
(-3.49613e-20 -9.87754e-16 0)
(-3.63202e-20 -9.87751e-16 0)
(-3.7467e-20 -9.87749e-16 0)
(-3.83972e-20 -9.87746e-16 0)
(-3.91079e-20 -9.87743e-16 0)
(-3.95976e-20 -9.87741e-16 0)
(-3.98665e-20 -9.87738e-16 0)
(-3.99168e-20 -9.87735e-16 0)
(-3.97523e-20 -9.87733e-16 0)
(-3.9379e-20 -9.8773e-16 0)
(-3.88045e-20 -9.87728e-16 0)
(-3.80382e-20 -9.87725e-16 0)
(-3.70912e-20 -9.87723e-16 0)
(-3.59762e-20 -9.87721e-16 0)
(-3.47069e-20 -9.87719e-16 0)
(-3.32984e-20 -9.87717e-16 0)
(-3.17664e-20 -9.87716e-16 0)
(-3.01271e-20 -9.87714e-16 0)
(-2.83972e-20 -9.87713e-16 0)
(-2.65933e-20 -9.87712e-16 0)
(-2.47317e-20 -9.87711e-16 0)
(-2.28287e-20 -9.8771e-16 0)
(-2.08996e-20 -9.87709e-16 0)
(-1.89785e-20 -9.87709e-16 0)
(-6.11594e-12 -9.9e-16 0)
(-3.33346e-07 -4.42832e-07 0)
(3.76926e-08 -0.000439248 0)
(-1.49627e-21 -9.87768e-16 0)
(-4.4542e-21 -9.87768e-16 0)
(-7.33592e-21 -9.87768e-16 0)
(-1.0128e-20 -9.87767e-16 0)
(-1.28181e-20 -9.87766e-16 0)
(-1.53948e-20 -9.87765e-16 0)
(-1.78476e-20 -9.87764e-16 0)
(-2.01665e-20 -9.87762e-16 0)
(-2.23423e-20 -9.87761e-16 0)
(-2.43664e-20 -9.87759e-16 0)
(-2.6231e-20 -9.87757e-16 0)
(-2.7929e-20 -9.87755e-16 0)
(-2.94539e-20 -9.87753e-16 0)
(-3.08005e-20 -9.87751e-16 0)
(-3.19642e-20 -9.87749e-16 0)
(-3.29418e-20 -9.87747e-16 0)
(-3.37311e-20 -9.87744e-16 0)
(-3.43315e-20 -9.87742e-16 0)
(-3.47432e-20 -9.8774e-16 0)
(-3.49685e-20 -9.87738e-16 0)
(-3.50106e-20 -9.87735e-16 0)
(-3.48743e-20 -9.87733e-16 0)
(-3.4566e-20 -9.87731e-16 0)
(-3.40933e-20 -9.87729e-16 0)
(-3.34649e-20 -9.87727e-16 0)
(-3.26909e-20 -9.87725e-16 0)
(-3.17824e-20 -9.87724e-16 0)
(-3.0751e-20 -9.87722e-16 0)
(-2.96094e-20 -9.87721e-16 0)
(-2.83703e-20 -9.87719e-16 0)
(-2.70472e-20 -9.87718e-16 0)
(-2.56531e-20 -9.87717e-16 0)
(-2.42015e-20 -9.87716e-16 0)
(-2.2705e-20 -9.87715e-16 0)
(-2.1176e-20 -9.87715e-16 0)
(-1.96259e-20 -9.87714e-16 0)
(-1.80869e-20 -9.87714e-16 0)
(-7.20793e-12 -9.90516e-16 0)
(-3.30176e-07 -5.24254e-07 0)
(4.23502e-08 -0.000443873 0)
(-1.33017e-21 -9.87764e-16 0)
(-3.95922e-21 -9.87764e-16 0)
(-6.51898e-21 -9.87764e-16 0)
(-8.99669e-21 -9.87763e-16 0)
(-1.13808e-20 -9.87762e-16 0)
(-1.36607e-20 -9.87761e-16 0)
(-1.58268e-20 -9.8776e-16 0)
(-1.78703e-20 -9.87759e-16 0)
(-1.97834e-20 -9.87757e-16 0)
(-2.15589e-20 -9.87756e-16 0)
(-2.31904e-20 -9.87754e-16 0)
(-2.46726e-20 -9.87753e-16 0)
(-2.60008e-20 -9.87751e-16 0)
(-2.71714e-20 -9.87749e-16 0)
(-2.81817e-20 -9.87747e-16 0)
(-2.90301e-20 -9.87745e-16 0)
(-2.97161e-20 -9.87743e-16 0)
(-3.02403e-20 -9.87741e-16 0)
(-3.06044e-20 -9.87739e-16 0)
(-3.08113e-20 -9.87737e-16 0)
(-3.0865e-20 -9.87736e-16 0)
(-3.07707e-20 -9.87734e-16 0)
(-3.05343e-20 -9.87732e-16 0)
(-3.01631e-20 -9.8773e-16 0)
(-2.96651e-20 -9.87729e-16 0)
(-2.90489e-20 -9.87727e-16 0)
(-2.83241e-20 -9.87726e-16 0)
(-2.75006e-20 -9.87724e-16 0)
(-2.65886e-20 -9.87723e-16 0)
(-2.55989e-20 -9.87722e-16 0)
(-2.45421e-20 -9.87721e-16 0)
(-2.34292e-20 -9.8772e-16 0)
(-2.22709e-20 -9.87719e-16 0)
(-2.10779e-20 -9.87719e-16 0)
(-1.98609e-20 -9.87718e-16 0)
(-1.86305e-20 -9.87718e-16 0)
(-1.74237e-20 -9.87718e-16 0)
(-8.79775e-12 -9.91274e-16 0)
(-3.26738e-07 -6.31977e-07 0)
(4.61309e-08 -0.000448452 0)
(-1.18092e-21 -9.87761e-16 0)
(-3.51464e-21 -9.8776e-16 0)
(-5.78584e-21 -9.8776e-16 0)
(-7.98269e-21 -9.87759e-16 0)
(-1.00945e-20 -9.87759e-16 0)
(-1.21118e-20 -9.87758e-16 0)
(-1.4026e-20 -9.87757e-16 0)
(-1.58294e-20 -9.87756e-16 0)
(-1.75154e-20 -9.87755e-16 0)
(-1.9078e-20 -9.87753e-16 0)
(-2.05123e-20 -9.87752e-16 0)
(-2.18142e-20 -9.8775e-16 0)
(-2.29805e-20 -9.87749e-16 0)
(-2.40089e-20 -9.87747e-16 0)
(-2.4898e-20 -9.87745e-16 0)
(-2.56474e-20 -9.87744e-16 0)
(-2.62577e-20 -9.87742e-16 0)
(-2.67302e-20 -9.8774e-16 0)
(-2.70674e-20 -9.87739e-16 0)
(-2.72725e-20 -9.87737e-16 0)
(-2.73499e-20 -9.87736e-16 0)
(-2.73044e-20 -9.87734e-16 0)
(-2.71418e-20 -9.87732e-16 0)
(-2.68685e-20 -9.87731e-16 0)
(-2.64915e-20 -9.8773e-16 0)
(-2.60183e-20 -9.87728e-16 0)
(-2.54568e-20 -9.87727e-16 0)
(-2.48152e-20 -9.87726e-16 0)
(-2.41018e-20 -9.87725e-16 0)
(-2.33251e-20 -9.87724e-16 0)
(-2.24938e-20 -9.87723e-16 0)
(-2.16164e-20 -9.87723e-16 0)
(-2.07012e-20 -9.87722e-16 0)
(-1.97567e-20 -9.87722e-16 0)
(-1.8791e-20 -9.87721e-16 0)
(-1.78123e-20 -9.87721e-16 0)
(-1.68619e-20 -9.87721e-16 0)
(-1.09446e-11 -9.92216e-16 0)
(-3.22768e-07 -7.60703e-07 0)
(4.88587e-08 -0.000452973 0)
(-1.04738e-21 -9.87757e-16 0)
(-3.11698e-21 -9.87757e-16 0)
(-5.13055e-21 -9.87757e-16 0)
(-7.07733e-21 -9.87756e-16 0)
(-8.94768e-21 -9.87756e-16 0)
(-1.07331e-20 -9.87755e-16 0)
(-1.24261e-20 -9.87754e-16 0)
(-1.402e-20 -9.87753e-16 0)
(-1.55094e-20 -9.87752e-16 0)
(-1.68893e-20 -9.87751e-16 0)
(-1.81561e-20 -9.8775e-16 0)
(-1.93066e-20 -9.87748e-16 0)
(-2.03388e-20 -9.87747e-16 0)
(-2.12514e-20 -9.87745e-16 0)
(-2.20439e-20 -9.87744e-16 0)
(-2.27167e-20 -9.87743e-16 0)
(-2.32711e-20 -9.87741e-16 0)
(-2.3709e-20 -9.8774e-16 0)
(-2.40333e-20 -9.87738e-16 0)
(-2.42473e-20 -9.87737e-16 0)
(-2.43551e-20 -9.87735e-16 0)
(-2.43614e-20 -9.87734e-16 0)
(-2.42715e-20 -9.87733e-16 0)
(-2.40909e-20 -9.87732e-16 0)
(-2.38257e-20 -9.8773e-16 0)
(-2.34821e-20 -9.87729e-16 0)
(-2.30666e-20 -9.87728e-16 0)
(-2.25857e-20 -9.87727e-16 0)
(-2.20461e-20 -9.87727e-16 0)
(-2.14543e-20 -9.87726e-16 0)
(-2.08167e-20 -9.87725e-16 0)
(-2.01398e-20 -9.87725e-16 0)
(-1.94296e-20 -9.87724e-16 0)
(-1.86919e-20 -9.87724e-16 0)
(-1.79322e-20 -9.87723e-16 0)
(-1.71552e-20 -9.87723e-16 0)
(-1.64055e-20 -9.87723e-16 0)
(-1.33712e-11 -9.93393e-16 0)
(-3.17986e-07 -9.13559e-07 0)
(5.05148e-08 -0.000457426 0)
(-9.28202e-22 -9.87754e-16 0)
(-2.76221e-21 -9.87754e-16 0)
(-4.5463e-21 -9.87754e-16 0)
(-6.2708e-21 -9.87754e-16 0)
(-7.92717e-21 -9.87753e-16 0)
(-9.5079e-21 -9.87752e-16 0)
(-1.10065e-20 -9.87752e-16 0)
(-1.24174e-20 -9.87751e-16 0)
(-1.3736e-20 -9.8775e-16 0)
(-1.49585e-20 -9.87749e-16 0)
(-1.60819e-20 -9.87748e-16 0)
(-1.71042e-20 -9.87746e-16 0)
(-1.80242e-20 -9.87745e-16 0)
(-1.88412e-20 -9.87744e-16 0)
(-1.95556e-20 -9.87743e-16 0)
(-2.01683e-20 -9.87741e-16 0)
(-2.0681e-20 -9.8774e-16 0)
(-2.1096e-20 -9.87739e-16 0)
(-2.14163e-20 -9.87738e-16 0)
(-2.16452e-20 -9.87736e-16 0)
(-2.17868e-20 -9.87735e-16 0)
(-2.18452e-20 -9.87734e-16 0)
(-2.18253e-20 -9.87733e-16 0)
(-2.17318e-20 -9.87732e-16 0)
(-2.15699e-20 -9.87731e-16 0)
(-2.13448e-20 -9.8773e-16 0)
(-2.10616e-20 -9.87729e-16 0)
(-2.07254e-20 -9.87729e-16 0)
(-2.03414e-20 -9.87728e-16 0)
(-1.99143e-20 -9.87727e-16 0)
(-1.94488e-20 -9.87727e-16 0)
(-1.89494e-20 -9.87726e-16 0)
(-1.84202e-20 -9.87726e-16 0)
(-1.78653e-20 -9.87725e-16 0)
(-1.72885e-20 -9.87725e-16 0)
(-1.66937e-20 -9.87725e-16 0)
(-1.61355e-20 -9.87725e-16 0)
(-1.67754e-11 -9.9509e-16 0)
(-3.12123e-07 -1.11098e-06 0)
(5.12891e-08 -0.000461792 0)
(-8.21971e-22 -9.87752e-16 0)
(-2.44606e-21 -9.87752e-16 0)
(-4.02587e-21 -9.87752e-16 0)
(-5.55287e-21 -9.87751e-16 0)
(-7.01952e-21 -9.87751e-16 0)
(-8.41933e-21 -9.8775e-16 0)
(-9.74673e-21 -9.87749e-16 0)
(-1.09971e-20 -9.87749e-16 0)
(-1.21666e-20 -9.87748e-16 0)
(-1.32523e-20 -9.87747e-16 0)
(-1.4252e-20 -9.87746e-16 0)
(-1.51645e-20 -9.87745e-16 0)
(-1.59891e-20 -9.87744e-16 0)
(-1.67259e-20 -9.87743e-16 0)
(-1.73757e-20 -9.87742e-16 0)
(-1.79399e-20 -9.8774e-16 0)
(-1.84204e-20 -9.87739e-16 0)
(-1.88198e-20 -9.87738e-16 0)
(-1.91412e-20 -9.87737e-16 0)
(-1.93878e-20 -9.87736e-16 0)
(-1.95636e-20 -9.87735e-16 0)
(-1.96725e-20 -9.87734e-16 0)
(-1.97187e-20 -9.87733e-16 0)
(-1.97065e-20 -9.87732e-16 0)
(-1.96404e-20 -9.87731e-16 0)
(-1.95247e-20 -9.87731e-16 0)
(-1.93634e-20 -9.8773e-16 0)
(-1.91607e-20 -9.87729e-16 0)
(-1.89201e-20 -9.87729e-16 0)
(-1.8645e-20 -9.87728e-16 0)
(-1.83384e-20 -9.87728e-16 0)
(-1.8003e-20 -9.87727e-16 0)
(-1.76408e-20 -9.87727e-16 0)
(-1.72538e-20 -9.87727e-16 0)
(-1.68434e-20 -9.87727e-16 0)
(-1.64111e-20 -9.87726e-16 0)
(-1.60249e-20 -9.87726e-16 0)
(-2.16163e-11 -9.97459e-16 0)
(-3.05242e-07 -1.36554e-06 0)
(5.11567e-08 -0.000466056 0)
(-7.2726e-22 -9.8775e-16 0)
(-2.16423e-21 -9.8775e-16 0)
(-3.5621e-21 -9.87749e-16 0)
(-4.91338e-21 -9.87749e-16 0)
(-6.21153e-21 -9.87749e-16 0)
(-7.45095e-21 -9.87748e-16 0)
(-8.62692e-21 -9.87747e-16 0)
(-9.73559e-21 -9.87747e-16 0)
(-1.07739e-20 -9.87746e-16 0)
(-1.17397e-20 -9.87745e-16 0)
(-1.26314e-20 -9.87744e-16 0)
(-1.34483e-20 -9.87743e-16 0)
(-1.41903e-20 -9.87742e-16 0)
(-1.4858e-20 -9.87741e-16 0)
(-1.54526e-20 -9.8774e-16 0)
(-1.59757e-20 -9.87739e-16 0)
(-1.64297e-20 -9.87739e-16 0)
(-1.68172e-20 -9.87738e-16 0)
(-1.71414e-20 -9.87737e-16 0)
(-1.74056e-20 -9.87736e-16 0)
(-1.76136e-20 -9.87735e-16 0)
(-1.77692e-20 -9.87734e-16 0)
(-1.78765e-20 -9.87733e-16 0)
(-1.79394e-20 -9.87732e-16 0)
(-1.79618e-20 -9.87731e-16 0)
(-1.79477e-20 -9.87731e-16 0)
(-1.79004e-20 -9.8773e-16 0)
(-1.78233e-20 -9.8773e-16 0)
(-1.77191e-20 -9.87729e-16 0)
(-1.759e-20 -9.87729e-16 0)
(-1.74376e-20 -9.87728e-16 0)
(-1.7263e-20 -9.87728e-16 0)
(-1.70663e-20 -9.87728e-16 0)
(-1.6847e-20 -9.87728e-16 0)
(-1.66039e-20 -9.87727e-16 0)
(-1.63354e-20 -9.87727e-16 0)
(-1.61288e-20 -9.87728e-16 0)
(-2.85795e-11 -1.00095e-15 0)
(-2.97603e-07 -1.70258e-06 0)
(5.02369e-08 -0.000470203 0)
(-6.42698e-22 -9.87748e-16 0)
(-1.91263e-21 -9.87748e-16 0)
(-3.14814e-21 -9.87747e-16 0)
(-4.3427e-21 -9.87747e-16 0)
(-5.49068e-21 -9.87747e-16 0)
(-6.58728e-21 -9.87746e-16 0)
(-7.62855e-21 -9.87746e-16 0)
(-8.61132e-21 -9.87745e-16 0)
(-9.5332e-21 -9.87744e-16 0)
(-1.03925e-20 -9.87744e-16 0)
(-1.11884e-20 -9.87743e-16 0)
(-1.19204e-20 -9.87742e-16 0)
(-1.2589e-20 -9.87741e-16 0)
(-1.31952e-20 -9.8774e-16 0)
(-1.37403e-20 -9.87739e-16 0)
(-1.42265e-20 -9.87739e-16 0)
(-1.46561e-20 -9.87738e-16 0)
(-1.50322e-20 -9.87737e-16 0)
(-1.53578e-20 -9.87736e-16 0)
(-1.56365e-20 -9.87735e-16 0)
(-1.58721e-20 -9.87734e-16 0)
(-1.60685e-20 -9.87734e-16 0)
(-1.62296e-20 -9.87733e-16 0)
(-1.63595e-20 -9.87732e-16 0)
(-1.64621e-20 -9.87731e-16 0)
(-1.65411e-20 -9.87731e-16 0)
(-1.66002e-20 -9.8773e-16 0)
(-1.66423e-20 -9.8773e-16 0)
(-1.667e-20 -9.87729e-16 0)
(-1.66854e-20 -9.87729e-16 0)
(-1.66895e-20 -9.87728e-16 0)
(-1.66825e-20 -9.87728e-16 0)
(-1.6663e-20 -9.87728e-16 0)
(-1.66283e-20 -9.87728e-16 0)
(-1.65741e-20 -9.87728e-16 0)
(-1.64936e-20 -9.87728e-16 0)
(-1.65049e-20 -9.87728e-16 0)
(-3.95357e-11 -1.00622e-15 0)
(-2.89826e-07 -2.15681e-06 0)
(4.86682e-08 -0.000474226 0)
(-5.67016e-22 -9.87746e-16 0)
(-1.68745e-21 -9.87746e-16 0)
(-2.77764e-21 -9.87746e-16 0)
(-3.83195e-21 -9.87745e-16 0)
(-4.84551e-21 -9.87745e-16 0)
(-5.81425e-21 -9.87745e-16 0)
(-6.73485e-21 -9.87744e-16 0)
(-7.60473e-21 -9.87744e-16 0)
(-8.42203e-21 -9.87743e-16 0)
(-9.18554e-21 -9.87742e-16 0)
(-9.89475e-21 -9.87742e-16 0)
(-1.05498e-20 -9.87741e-16 0)
(-1.11512e-20 -9.8774e-16 0)
(-1.17004e-20 -9.87739e-16 0)
(-1.21989e-20 -9.87739e-16 0)
(-1.26492e-20 -9.87738e-16 0)
(-1.30538e-20 -9.87737e-16 0)
(-1.34157e-20 -9.87736e-16 0)
(-1.37383e-20 -9.87735e-16 0)
(-1.40254e-20 -9.87735e-16 0)
(-1.42808e-20 -9.87734e-16 0)
(-1.45087e-20 -9.87733e-16 0)
(-1.47132e-20 -9.87732e-16 0)
(-1.48987e-20 -9.87732e-16 0)
(-1.50695e-20 -9.87731e-16 0)
(-1.52299e-20 -9.8773e-16 0)
(-1.5384e-20 -9.8773e-16 0)
(-1.55357e-20 -9.87729e-16 0)
(-1.56886e-20 -9.87729e-16 0)
(-1.58458e-20 -9.87729e-16 0)
(-1.60095e-20 -9.87728e-16 0)
(-1.61814e-20 -9.87728e-16 0)
(-1.63614e-20 -9.87728e-16 0)
(-1.65478e-20 -9.87728e-16 0)
(-1.67365e-20 -9.87728e-16 0)
(-1.69196e-20 -9.87728e-16 0)
(-1.72726e-20 -9.87728e-16 0)
(-5.76548e-11 -1.01437e-15 0)
(-2.82854e-07 -2.79117e-06 0)
(4.66937e-08 -0.000478128 0)
(-4.99072e-22 -9.87744e-16 0)
(-1.48528e-21 -9.87744e-16 0)
(-2.44496e-21 -9.87744e-16 0)
(-3.37322e-21 -9.87744e-16 0)
(-4.26587e-21 -9.87744e-16 0)
(-5.11943e-21 -9.87743e-16 0)
(-5.9311e-21 -9.87743e-16 0)
(-6.69878e-21 -9.87742e-16 0)
(-7.42102e-21 -9.87742e-16 0)
(-8.09698e-21 -9.87741e-16 0)
(-8.72644e-21 -9.87741e-16 0)
(-9.30976e-21 -9.8774e-16 0)
(-9.84784e-21 -9.87739e-16 0)
(-1.03421e-20 -9.87738e-16 0)
(-1.07945e-20 -9.87738e-16 0)
(-1.12073e-20 -9.87737e-16 0)
(-1.15833e-20 -9.87736e-16 0)
(-1.19257e-20 -9.87736e-16 0)
(-1.22381e-20 -9.87735e-16 0)
(-1.25242e-20 -9.87734e-16 0)
(-1.27882e-20 -9.87733e-16 0)
(-1.30344e-20 -9.87733e-16 0)
(-1.32675e-20 -9.87732e-16 0)
(-1.34921e-20 -9.87731e-16 0)
(-1.37133e-20 -9.87731e-16 0)
(-1.39362e-20 -9.8773e-16 0)
(-1.41659e-20 -9.87729e-16 0)
(-1.44079e-20 -9.87729e-16 0)
(-1.46676e-20 -9.87728e-16 0)
(-1.49506e-20 -9.87728e-16 0)
(-1.52626e-20 -9.87728e-16 0)
(-1.56094e-20 -9.87727e-16 0)
(-1.59967e-20 -9.87727e-16 0)
(-1.64302e-20 -9.87727e-16 0)
(-1.69151e-20 -9.87727e-16 0)
(-1.74559e-20 -9.87727e-16 0)
(-1.835e-20 -9.87727e-16 0)
(-9.03919e-11 -1.02787e-15 0)
(-2.78076e-07 -3.71178e-06 0)
(4.42779e-08 -0.000481926 0)
(-4.37876e-22 -9.87743e-16 0)
(-1.30316e-21 -9.87743e-16 0)
(-2.14519e-21 -9.87743e-16 0)
(-2.95968e-21 -9.87743e-16 0)
(-3.743e-21 -9.87742e-16 0)
(-4.49215e-21 -9.87742e-16 0)
(-5.20475e-21 -9.87742e-16 0)
(-5.87905e-21 -9.87741e-16 0)
(-6.51388e-21 -9.87741e-16 0)
(-7.10867e-21 -9.8774e-16 0)
(-7.66339e-21 -9.8774e-16 0)
(-8.17855e-21 -9.87739e-16 0)
(-8.65516e-21 -9.87738e-16 0)
(-9.09473e-21 -9.87738e-16 0)
(-9.49922e-21 -9.87737e-16 0)
(-9.87104e-21 -9.87736e-16 0)
(-1.0213e-20 -9.87736e-16 0)
(-1.05283e-20 -9.87735e-16 0)
(-1.08205e-20 -9.87734e-16 0)
(-1.10935e-20 -9.87734e-16 0)
(-1.13516e-20 -9.87733e-16 0)
(-1.15992e-20 -9.87732e-16 0)
(-1.18413e-20 -9.87731e-16 0)
(-1.20829e-20 -9.87731e-16 0)
(-1.23296e-20 -9.8773e-16 0)