/*--------------------------------*- C++ -*----------------------------------*\
  =========                 |
  \\      /  F ield         | OpenFOAM: The Open Source CFD Toolbox
   \\    /   O peration     | Website:  https://openfoam.org
    \\  /    A nd           | Version:  7
     \\/     M anipulation  |
\*---------------------------------------------------------------------------*/
FoamFile
{
    version     2.0;
    format      ascii;
    class       volScalarField;
    location    "539.999473411039162";
    object      p;
}
// * * * * * * * * * * * * * * * * * * * * * * * * * * * * * * * * * * * * * //

dimensions      [0 2 -2 0 0 0 0];

internalField   nonuniform List<scalar> 
4096
(
0.0006594
0.0004885
0.0004043
0.0003621
0.0003388
0.0003249
0.000316
0.0003099
0.0003056
0.0003023
0.0002998
0.0002977
0.0002961
0.0002947
0.0002936
0.0002926
0.0002917
0.0002909
0.0002902
0.0002895
0.0002889
0.0002884
0.0002878
0.0002873
0.0002868
0.0002863
0.0002858
0.0002853
0.0002848
0.0002842
0.0002837
0.0002831
0.0002825
0.0002819
0.0002812
0.0002805
0.0002796
0.0002787
0.0002777
0.0002766
0.0002753
0.0002739
0.0002722
0.0002704
0.0002683
0.0002659
0.0002632
0.0002602
0.0002568
0.0002531
0.0002488
0.0002442
0.0002391
0.0002334
0.0002273
0.0002208
0.0002137
0.0002062
0.0001982
0.0001899
0.0001812
0.0001723
0.0001631
0.0001539
0.0001446
0.0001355
0.0001264
0.0001176
0.000109
0.0001008
9.294e-05
8.553e-05
7.855e-05
7.204e-05
6.599e-05
6.04e-05
5.528e-05
5.06e-05
4.635e-05
4.251e-05
3.906e-05
3.596e-05
3.32e-05
3.074e-05
2.855e-05
2.661e-05
2.489e-05
2.337e-05
2.201e-05
2.081e-05
1.973e-05
1.877e-05
1.79e-05
1.711e-05
1.638e-05
1.571e-05
1.509e-05
1.451e-05
1.395e-05
1.342e-05
1.291e-05
1.241e-05
1.193e-05
1.145e-05
1.098e-05
1.051e-05
1.004e-05
9.58e-06
9.115e-06
8.648e-06
8.18e-06
7.71e-06
7.237e-06
6.761e-06
6.281e-06
5.798e-06
5.312e-06
4.821e-06
4.327e-06
3.829e-06
3.328e-06
2.824e-06
2.319e-06
1.814e-06
1.315e-06
8.284e-07
3.721e-07
4.345e-08
0.0005149
0.0004512
0.0004014
0.0003694
0.0003484
0.0003342
0.0003241
0.0003168
0.0003114
0.0003071
0.0003038
0.0003012
0.000299
0.0002972
0.0002956
0.0002943
0.0002931
0.0002921
0.0002912
0.0002903
0.0002895
0.0002888
0.0002881
0.0002874
0.0002868
0.0002861
0.0002855
0.0002849
0.0002842
0.0002836
0.0002829
0.0002822
0.0002815
0.0002807
0.0002799
0.000279
0.000278
0.0002769
0.0002757
0.0002744
0.000273
0.0002714
0.0002696
0.0002675
0.0002653
0.0002628
0.00026
0.0002568
0.0002534
0.0002495
0.0002453
0.0002406
0.0002355
0.00023
0.000224
0.0002176
0.0002108
0.0002035
0.0001959
0.0001879
0.0001796
0.0001711
0.0001624
0.0001537
0.0001449
0.0001361
0.0001275
0.0001191
0.0001109
0.000103
9.551e-05
8.836e-05
8.16e-05
7.526e-05
6.934e-05
6.384e-05
5.876e-05
5.41e-05
4.983e-05
4.594e-05
4.241e-05
3.922e-05
3.634e-05
3.376e-05
3.143e-05
2.935e-05
2.748e-05
2.581e-05
2.43e-05
2.295e-05
2.172e-05
2.062e-05
1.961e-05
1.868e-05
1.783e-05
1.705e-05
1.631e-05
1.562e-05
1.497e-05
1.435e-05
1.375e-05
1.317e-05
1.261e-05
1.207e-05
1.154e-05
1.101e-05
1.05e-05
9.986e-06
9.478e-06
8.974e-06
8.471e-06
7.97e-06
7.469e-06
6.968e-06
6.466e-06
5.964e-06
5.46e-06
4.955e-06
4.448e-06
3.94e-06
3.431e-06
2.921e-06
2.412e-06
1.905e-06
1.404e-06
9.132e-07
4.425e-07
7.261e-08
0.0004314
0.0004098
0.0003843
0.0003636
0.0003481
0.0003364
0.0003274
0.0003204
0.0003148
0.0003104
0.0003067
0.0003037
0.0003012
0.0002991
0.0002973
0.0002958
0.0002944
0.0002931
0.000292
0.000291
0.0002901
0.0002892
0.0002883
0.0002875
0.0002868
0.000286
0.0002852
0.0002845
0.0002837
0.0002829
0.0002821
0.0002813
0.0002804
0.0002795
0.0002786
0.0002775
0.0002764
0.0002752
0.0002738
0.0002724
0.0002708
0.000269
0.0002671
0.0002649
0.0002625
0.0002599
0.000257
0.0002538
0.0002502
0.0002464
0.0002421
0.0002375
0.0002324
0.000227
0.0002211
0.0002149
0.0002083
0.0002012
0.0001939
0.0001862
0.0001783
0.0001701
0.0001618
0.0001534
0.000145
0.0001367
0.0001285
0.0001204
0.0001126
0.000105
9.773e-05
9.082e-05
8.426e-05
7.808e-05
7.229e-05
6.688e-05
6.186e-05
5.722e-05
5.295e-05
4.903e-05
4.545e-05
4.219e-05
3.923e-05
3.654e-05
3.41e-05
3.19e-05
2.99e-05
2.81e-05
2.646e-05
2.497e-05
2.362e-05
2.238e-05
2.125e-05
2.02e-05
1.924e-05
1.834e-05
1.75e-05
1.671e-05
1.596e-05
1.526e-05
1.458e-05
1.393e-05
1.33e-05
1.269e-05
1.21e-05
1.152e-05
1.095e-05
1.04e-05
9.847e-06
9.304e-06
8.768e-06
8.235e-06
7.707e-06
7.181e-06
6.657e-06
6.135e-06
5.614e-06
5.093e-06
4.573e-06
4.054e-06
3.535e-06
3.017e-06
2.501e-06
1.986e-06
1.476e-06
9.73e-07
4.795e-07
7.724e-08
0.0003867
0.0003796
0.0003663
0.0003531
0.0003423
0.0003335
0.0003264
0.0003205
0.0003156
0.0003115
0.000308
0.0003051
0.0003025
0.0003003
0.0002984
0.0002967
0.0002952
0.0002939
0.0002926
0.0002915
0.0002905
0.0002895
0.0002885
0.0002876
0.0002867
0.0002858
0.000285
0.0002841
0.0002833
0.0002824
0.0002815
0.0002805
0.0002795
0.0002785
0.0002774
0.0002762
0.000275
0.0002737
0.0002722
0.0002706
0.0002689
0.000267
0.000265
0.0002627
0.0002603
0.0002575
0.0002546
0.0002513
0.0002477
0.0002438
0.0002396
0.0002349
0.00023
0.0002246
0.0002189
0.0002128
0.0002063
0.0001995
0.0001923
0.0001849
0.0001772
0.0001693
0.0001613
0.0001533
0.0001451
0.0001371
0.0001291
0.0001214
0.0001138
0.0001065
9.944e-05
9.272e-05
8.633e-05
8.03e-05
7.461e-05
6.929e-05
6.433e-05
5.973e-05
5.547e-05
5.154e-05
4.793e-05
4.463e-05
4.16e-05
3.885e-05
3.633e-05
3.404e-05
3.195e-05
3.004e-05
2.831e-05
2.672e-05
2.526e-05
2.392e-05
2.268e-05
2.154e-05
2.048e-05
1.949e-05
1.856e-05
1.769e-05
1.686e-05
1.608e-05
1.533e-05
1.461e-05
1.392e-05
1.326e-05
1.261e-05
1.198e-05
1.137e-05
1.078e-05
1.019e-05
9.612e-06
9.044e-06
8.484e-06
7.93e-06
7.381e-06
6.837e-06
6.296e-06
5.759e-06
5.224e-06
4.691e-06
4.16e-06
3.631e-06
3.103e-06
2.577e-06
2.053e-06
1.53e-06
1.012e-06
4.964e-07
7.345e-08
0.0003598
0.0003588
0.0003519
0.0003433
0.0003355
0.0003289
0.0003234
0.0003187
0.0003147
0.0003112
0.0003081
0.0003054
0.000303
0.0003009
0.000299
0.0002973
0.0002957
0.0002943
0.000293
0.0002918
0.0002907
0.0002896
0.0002886
0.0002876
0.0002866
0.0002857
0.0002847
0.0002838
0.0002828
0.0002819
0.0002809
0.0002798
0.0002788
0.0002776
0.0002764
0.0002752
0.0002738
0.0002724
0.0002709
0.0002692
0.0002674
0.0002654
0.0002633
0.000261
0.0002584
0.0002557
0.0002526
0.0002493
0.0002457
0.0002418
0.0002376
0.000233
0.0002281
0.0002228
0.0002171
0.0002111
0.0002048
0.0001981
0.0001911
0.0001839
0.0001764
0.0001687
0.0001609
0.0001531
0.0001452
0.0001373
0.0001296
0.000122
0.0001147
0.0001076
0.0001007
9.414e-05
8.789e-05
8.197e-05
7.639e-05
7.114e-05
6.624e-05
6.167e-05
5.743e-05
5.351e-05
4.989e-05
4.656e-05
4.351e-05
4.071e-05
3.814e-05
3.579e-05
3.363e-05
3.165e-05
2.984e-05
2.817e-05
2.664e-05
2.522e-05
2.39e-05
2.268e-05
2.154e-05
2.048e-05
1.948e-05
1.853e-05
1.764e-05
1.679e-05
1.599e-05
1.521e-05
1.447e-05
1.376e-05
1.307e-05
1.24e-05
1.175e-05
1.111e-05
1.05e-05
9.889e-06
9.294e-06
8.709e-06
8.132e-06
7.563e-06
7e-06
6.443e-06
5.89e-06
5.342e-06
4.797e-06
4.256e-06
3.716e-06
3.178e-06
2.642e-06
2.107e-06
1.573e-06
1.04e-06
5.067e-07
6.911e-08
0.0003424
0.0003439
0.0003406
0.0003349
0.0003292
0.0003242
0.0003199
0.0003161
0.0003128
0.0003099
0.0003073
0.0003049
0.0003027
0.0003008
0.000299
0.0002974
0.0002958
0.0002945
0.0002931
0.0002919
0.0002908
0.0002896
0.0002886
0.0002875
0.0002865
0.0002855
0.0002845
0.0002835
0.0002825
0.0002814
0.0002804
0.0002792
0.0002781
0.0002769
0.0002756
0.0002743
0.0002729
0.0002714
0.0002698
0.0002681
0.0002662
0.0002642
0.000262
0.0002596
0.000257
0.0002542
0.0002512
0.0002478
0.0002442
0.0002403
0.0002361
0.0002316
0.0002267
0.0002214
0.0002158
0.0002099
0.0002037
0.0001971
0.0001903
0.0001831
0.0001758
0.0001683
0.0001606
0.0001529
0.0001452
0.0001375
0.0001299
0.0001225
0.0001153
0.0001083
0.0001016
9.514e-05
8.9e-05
8.318e-05
7.767e-05
7.249e-05
6.764e-05
6.31e-05
5.889e-05
5.498e-05
5.137e-05
4.804e-05
4.497e-05
4.214e-05
3.954e-05
3.715e-05
3.496e-05
3.293e-05
3.107e-05
2.935e-05
2.775e-05
2.628e-05
2.49e-05
2.362e-05
2.242e-05
2.13e-05
2.024e-05
1.924e-05
1.83e-05
1.74e-05
1.655e-05
1.573e-05
1.494e-05
1.419e-05
1.346e-05
1.275e-05
1.207e-05
1.141e-05
1.076e-05
1.013e-05
9.51e-06
8.903e-06
8.307e-06
7.72e-06
7.142e-06
6.57e-06
6.005e-06
5.445e-06
4.89e-06
4.338e-06
3.789e-06
3.242e-06
2.697e-06
2.152e-06
1.608e-06
1.063e-06
5.15e-07
6.597e-08
0.0003305
0.000333
0.0003317
0.0003281
0.0003239
0.0003199
0.0003164
0.0003133
0.0003106
0.0003082
0.000306
0.0003039
0.000302
0.0003003
0.0002986
0.0002971
0.0002957
0.0002943
0.0002931
0.0002919
0.0002907
0.0002896
0.0002885
0.0002874
0.0002864
0.0002853
0.0002843
0.0002832
0.0002821
0.0002811
0.0002799
0.0002788
0.0002776
0.0002763
0.000275
0.0002736
0.0002722
0.0002706
0.000269
0.0002672
0.0002653
0.0002632
0.000261
0.0002586
0.000256
0.0002532
0.0002501
0.0002468
0.0002432
0.0002393
0.0002351
0.0002306
0.0002257
0.0002205
0.000215
0.0002091
0.0002029
0.0001964
0.0001897
0.0001826
0.0001754
0.0001679
0.0001604
0.0001527
0.0001451
0.0001375
0.00013
0.0001227
0.0001156
0.0001087
0.0001021
9.576e-05
8.97e-05
8.395e-05
7.85e-05
7.337e-05
6.856e-05
6.406e-05
5.987e-05
5.599e-05
5.239e-05
4.907e-05
4.6e-05
4.317e-05
4.056e-05
3.816e-05
3.594e-05
3.389e-05
3.199e-05
3.024e-05
2.861e-05
2.709e-05
2.568e-05
2.436e-05
2.312e-05
2.195e-05
2.085e-05
1.981e-05
1.882e-05
1.789e-05
1.699e-05
1.614e-05
1.532e-05
1.453e-05
1.378e-05
1.304e-05
1.233e-05
1.165e-05
1.098e-05
1.032e-05
9.687e-06
9.063e-06
8.451e-06
7.85e-06
7.258e-06
6.675e-06
6.099e-06
5.53e-06
4.965e-06
4.405e-06
3.848e-06
3.294e-06
2.741e-06
2.189e-06
1.637e-06
1.082e-06
5.229e-07
6.469e-08
0.0003219
0.0003246
0.0003245
0.0003223
0.0003193
0.0003161
0.0003133
0.0003107
0.0003084
0.0003063
0.0003045
0.0003027
0.0003011
0.0002995
0.000298
0.0002967
0.0002953
0.0002941
0.0002928
0.0002917
0.0002905
0.0002894
0.0002883
0.0002873
0.0002862
0.0002851
0.0002841
0.000283
0.0002819
0.0002808
0.0002796
0.0002784
0.0002772
0.0002759
0.0002746
0.0002732
0.0002717
0.0002701
0.0002684
0.0002666
0.0002647
0.0002626
0.0002604
0.000258
0.0002554
0.0002526
0.0002495
0.0002462
0.0002426
0.0002387
0.0002346
0.0002301
0.0002252
0.00022
0.0002145
0.0002087
0.0002025
0.0001961
0.0001893
0.0001823
0.0001751
0.0001677
0.0001602
0.0001526
0.000145
0.0001374
0.00013
0.0001227
0.0001157
0.0001089
0.0001023
9.603e-05
9.002e-05
8.43e-05
7.89e-05
7.38e-05
6.902e-05
6.456e-05
6.04e-05
5.654e-05
5.297e-05
4.967e-05
4.662e-05
4.38e-05
4.12e-05
3.88e-05
3.658e-05
3.453e-05
3.262e-05
3.085e-05
2.921e-05
2.767e-05
2.623e-05
2.488e-05
2.362e-05
2.242e-05
2.13e-05
2.023e-05
1.922e-05
1.825e-05
1.733e-05
1.645e-05
1.561e-05
1.48e-05
1.402e-05
1.326e-05
1.253e-05
1.183e-05
1.114e-05
1.047e-05
9.821e-06
9.184e-06
8.56e-06
7.949e-06
7.347e-06
6.755e-06
6.171e-06
5.594e-06
5.023e-06
4.457e-06
3.895e-06
3.335e-06
2.777e-06
2.219e-06
1.66e-06
1.099e-06
5.313e-07
6.558e-08
0.0003154
0.0003181
0.0003187
0.0003174
0.0003153
0.0003129
0.0003105
0.0003083
0.0003063
0.0003046
0.0003029
0.0003014
0.0003
0.0002986
0.0002973
0.000296
0.0002948
0.0002936
0.0002925
0.0002914
0.0002903
0.0002892
0.0002881
0.0002871
0.000286
0.000285
0.0002839
0.0002828
0.0002817
0.0002806
0.0002794
0.0002782
0.000277
0.0002757
0.0002743
0.0002729
0.0002714
0.0002698
0.0002681
0.0002663
0.0002644
0.0002623
0.0002601
0.0002577
0.0002551
0.0002523
0.0002493
0.000246
0.0002425
0.0002386
0.0002344
0.00023
0.0002251
0.00022
0.0002145
0.0002086
0.0002025
0.000196
0.0001893
0.0001823
0.000175
0.0001676
0.0001601
0.0001524
0.0001448
0.0001372
0.0001298
0.0001226
0.0001155
0.0001088
0.0001022
9.594e-05
8.995e-05
8.426e-05
7.887e-05
7.38e-05
6.905e-05
6.461e-05
6.049e-05
5.666e-05
5.312e-05
4.985e-05
4.684e-05
4.405e-05
4.148e-05
3.91e-05
3.69e-05
3.486e-05
3.296e-05
3.12e-05
2.955e-05
2.801e-05
2.657e-05
2.521e-05
2.393e-05
2.272e-05
2.158e-05
2.05e-05
1.947e-05
1.849e-05
1.755e-05
1.665e-05
1.58e-05
1.497e-05
1.418e-05
1.341e-05
1.267e-05
1.195e-05
1.125e-05
1.057e-05
9.91e-06
9.264e-06
8.633e-06
8.014e-06
7.406e-06
6.808e-06
6.219e-06
5.638e-06
5.062e-06
4.492e-06
3.927e-06
3.364e-06
2.802e-06
2.241e-06
1.679e-06
1.113e-06
5.407e-07
6.884e-08
0.0003103
0.0003129
0.0003139
0.0003133
0.0003118
0.00031
0.000308
0.0003062
0.0003045
0.0003029
0.0003015
0.0003001
0.0002989
0.0002977
0.0002965
0.0002953
0.0002942
0.0002931
0.0002921
0.000291
0.00029
0.0002889
0.0002879
0.0002869
0.0002858
0.0002848
0.0002837
0.0002827
0.0002816
0.0002804
0.0002793
0.0002781
0.0002768
0.0002755
0.0002742
0.0002728
0.0002713
0.0002697
0.000268
0.0002663
0.0002644
0.0002623
0.0002601
0.0002578
0.0002552
0.0002525
0.0002495
0.0002462
0.0002427
0.0002389
0.0002348
0.0002303
0.0002255
0.0002203
0.0002148
0.0002089
0.0002027
0.0001962
0.0001894
0.0001824
0.0001751
0.0001676
0.00016
0.0001523
0.0001446
0.0001369
0.0001295
0.0001222
0.0001151
0.0001083
0.0001018
9.55e-05
8.95e-05
8.38e-05
7.841e-05
7.335e-05
6.862e-05
6.421e-05
6.012e-05
5.634e-05
5.285e-05
4.963e-05
4.666e-05
4.392e-05
4.14e-05
3.906e-05
3.69e-05
3.489e-05
3.302e-05
3.128e-05
2.965e-05
2.812e-05
2.668e-05
2.533e-05
2.406e-05
2.285e-05
2.17e-05
2.062e-05
1.958e-05
1.86e-05
1.765e-05
1.675e-05
1.589e-05
1.505e-05
1.425e-05
1.348e-05
1.273e-05
1.201e-05
1.13e-05
1.062e-05
9.952e-06
9.302e-06
8.667e-06
8.044e-06
7.434e-06
6.833e-06
6.242e-06
5.659e-06
5.082e-06
4.511e-06
3.944e-06
3.38e-06
2.818e-06
2.256e-06
1.693e-06
1.126e-06
5.512e-07
7.464e-08
0.0003063
0.0003087
0.0003098
0.0003097
0.0003088
0.0003074
0.0003058
0.0003043
0.0003028
0.0003014
0.0003001
0.0002989
0.0002978
0.0002967
0.0002957
0.0002946
0.0002936
0.0002926
0.0002916
0.0002907
0.0002897
0.0002887
0.0002877
0.0002867
0.0002857
0.0002847
0.0002836
0.0002826
0.0002815
0.0002804
0.0002793
0.0002781
0.0002769
0.0002756
0.0002743
0.0002729
0.0002714
0.0002698
0.0002682
0.0002665
0.0002646
0.0002626
0.0002605
0.0002582
0.0002557
0.000253
0.0002501
0.0002469
0.0002434
0.0002397
0.0002356
0.0002311
0.0002263
0.0002211
0.0002156
0.0002096
0.0002034
0.0001968
0.0001899
0.0001828
0.0001754
0.0001678
0.00016
0.0001521
0.0001443
0.0001365
0.0001289
0.0001216
0.0001145
0.0001076
0.000101
9.467e-05
8.863e-05
8.29e-05
7.751e-05
7.245e-05
6.773e-05
6.335e-05
5.931e-05
5.558e-05
5.215e-05
4.9e-05
4.61e-05
4.343e-05
4.097e-05
3.869e-05
3.658e-05
3.463e-05
3.28e-05
3.11e-05
2.95e-05
2.8e-05
2.659e-05
2.526e-05
2.4e-05
2.281e-05
2.167e-05
2.059e-05
1.957e-05
1.858e-05
1.764e-05
1.674e-05
1.588e-05
1.505e-05
1.425e-05
1.347e-05
1.272e-05
1.2e-05
1.13e-05
1.061e-05
9.947e-06
9.297e-06
8.662e-06
8.04e-06
7.429e-06
6.83e-06
6.24e-06
5.657e-06
5.082e-06
4.512e-06
3.947e-06
3.385e-06
2.825e-06
2.264e-06
1.703e-06
1.136e-06
5.632e-07
8.307e-08
0.000303
0.0003052
0.0003065
0.0003067
0.0003061
0.0003051
0.0003039
0.0003026
0.0003013
0.0003001
0.0002989
0.0002979
0.0002968
0.0002959
0.0002949
0.000294
0.000293
0.0002921
0.0002912
0.0002903
0.0002894
0.0002884
0.0002875
0.0002866
0.0002856
0.0002846
0.0002836
0.0002826
0.0002815
0.0002805
0.0002794
0.0002782
0.000277
0.0002758
0.0002745
0.0002731
0.0002717
0.0002702
0.0002686
0.0002669
0.0002651
0.0002632
0.0002611
0.0002589
0.0002565
0.0002539
0.0002511
0.000248
0.0002446
0.0002409
0.0002368
0.0002324
0.0002276
0.0002224
0.0002168
0.0002108
0.0002044
0.0001977
0.0001907
0.0001834
0.0001759
0.0001681
0.0001601
0.000152
0.0001439
0.000136
0.0001282
0.0001207
0.0001135
0.0001065
9.983e-05
9.341e-05
8.731e-05
8.153e-05
7.611e-05
7.104e-05
6.635e-05
6.201e-05
5.803e-05
5.437e-05
5.102e-05
4.796e-05
4.515e-05
4.257e-05
4.02e-05
3.8e-05
3.597e-05
3.408e-05
3.232e-05
3.067e-05
2.913e-05
2.767e-05
2.63e-05
2.5e-05
2.377e-05
2.26e-05
2.149e-05
2.043e-05
1.942e-05
1.845e-05
1.752e-05
1.663e-05
1.578e-05
1.495e-05
1.416e-05
1.339e-05
1.265e-05
1.193e-05
1.123e-05
1.056e-05
9.895e-06
9.249e-06
8.618e-06
8e-06
7.394e-06
6.798e-06
6.212e-06
5.634e-06
5.063e-06
4.497e-06
3.936e-06
3.378e-06
2.822e-06
2.266e-06
1.708e-06
1.146e-06
5.766e-07
9.416e-08
0.0003003
0.0003023
0.0003036
0.000304
0.0003038
0.0003031
0.0003022
0.0003011
0.0003
0.0002989
0.0002979
0.0002969
0.000296
0.0002951
0.0002942
0.0002933
0.0002925
0.0002916
0.0002908
0.0002899
0.0002891
0.0002882
0.0002873
0.0002864
0.0002855
0.0002846
0.0002836
0.0002827
0.0002817
0.0002806
0.0002795
0.0002784
0.0002773
0.0002761
0.0002749
0.0002736
0.0002722
0.0002707
0.0002692
0.0002676
0.0002659
0.0002641
0.0002621
0.00026
0.0002577
0.0002552
0.0002524
0.0002494
0.0002462
0.0002426
0.0002386
0.0002342
0.0002294
0.0002242
0.0002186
0.0002125
0.000206
0.0001992
0.0001919
0.0001844
0.0001767
0.0001686
0.0001603
0.0001519
0.0001435
0.0001352
0.0001273
0.0001196
0.0001122
0.000105
9.819e-05
9.165e-05
8.545e-05
7.961e-05
7.416e-05
6.91e-05
6.443e-05
6.016e-05
5.625e-05
5.27e-05
4.946e-05
4.651e-05
4.382e-05
4.136e-05
3.909e-05
3.7e-05
3.507e-05
3.327e-05
3.159e-05
3.001e-05
2.853e-05
2.714e-05
2.582e-05
2.456e-05
2.337e-05
2.224e-05
2.116e-05
2.013e-05
1.915e-05
1.82e-05
1.73e-05
1.642e-05
1.559e-05
1.478e-05
1.4e-05
1.325e-05
1.252e-05
1.181e-05
1.112e-05
1.045e-05
9.797e-06
9.16e-06
8.537e-06
7.927e-06
7.328e-06
6.74e-06
6.16e-06
5.589e-06
5.024e-06
4.465e-06
3.911e-06
3.359e-06
2.809e-06
2.26e-06
1.709e-06
1.154e-06
5.915e-07
1.079e-07
0.000298
0.0002999
0.0003012
0.0003018
0.0003017
0.0003013
0.0003006
0.0002997
0.0002988
0.0002979
0.0002969
0.0002961
0.0002952
0.0002944
0.0002936
0.0002928
0.000292
0.0002912
0.0002904
0.0002896
0.0002888
0.000288
0.0002872
0.0002864
0.0002855
0.0002846
0.0002837
0.0002828
0.0002818
0.0002809
0.0002798
0.0002788
0.0002777
0.0002766
0.0002754
0.0002741
0.0002728
0.0002715
0.00027
0.0002685
0.0002669
0.0002652
0.0002633
0.0002613
0.0002592
0.0002568
0.0002542
0.0002514
0.0002482
0.0002448
0.0002409
0.0002366
0.0002319
0.0002267
0.000221
0.0002149
0.0002082
0.0002012
0.0001937
0.0001859
0.0001779
0.0001695
0.0001608
0.0001518
0.000143
0.0001343
0.000126
0.000118
0.0001103
0.000103
9.594e-05
8.926e-05
8.296e-05
7.706e-05
7.159e-05
6.655e-05
6.195e-05
5.776e-05
5.397e-05
5.055e-05
4.746e-05
4.466e-05
4.211e-05
3.979e-05
3.767e-05
3.571e-05
3.389e-05
3.22e-05
3.062e-05
2.914e-05
2.773e-05
2.641e-05
2.515e-05
2.396e-05
2.282e-05
2.174e-05
2.07e-05
1.971e-05
1.876e-05
1.785e-05
1.697e-05
1.612e-05
1.531e-05
1.452e-05
1.376e-05
1.303e-05
1.232e-05
1.162e-05
1.095e-05
1.03e-05
9.657e-06
9.032e-06
8.421e-06
7.822e-06
7.234e-06
6.655e-06
6.086e-06
5.523e-06
4.968e-06
4.418e-06
3.872e-06
3.329e-06
2.789e-06
2.248e-06
1.706e-06
1.16e-06
6.079e-07
1.241e-07
0.0002961
0.0002978
0.0002991
0.0002998
0.0002999
0.0002997
0.0002992
0.0002985
0.0002977
0.0002969
0.0002961
0.0002953
0.0002945
0.0002938
0.000293
0.0002923
0.0002916
0.0002909
0.0002901
0.0002894
0.0002887
0.0002879
0.0002871
0.0002863
0.0002855
0.0002847
0.0002839
0.000283
0.0002821
0.0002812
0.0002802
0.0002792
0.0002782
0.0002771
0.000276
0.0002749
0.0002737
0.0002724
0.0002711
0.0002696
0.0002681
0.0002665
0.0002648
0.000263
0.000261
0.0002588
0.0002564
0.0002537
0.0002508
0.0002475
0.0002438
0.0002397
0.000235
0.0002299
0.0002242
0.000218
0.0002113
0.000204
0.0001963
0.0001882
0.0001797
0.0001708
0.0001615
0.0001519
0.0001423
0.000133
0.0001242
0.0001158
0.0001078
0.0001002
9.293e-05
8.609e-05
7.971e-05
7.378e-05
6.832e-05
6.334e-05
5.884e-05
5.479e-05
5.117e-05
4.792e-05
4.501e-05
4.24e-05
4.004e-05
3.79e-05
3.594e-05
3.414e-05
3.246e-05
3.09e-05
2.944e-05
2.806e-05
2.675e-05
2.551e-05
2.433e-05
2.321e-05
2.213e-05
2.111e-05
2.012e-05
1.918e-05
1.827e-05
1.739e-05
1.655e-05
1.574e-05
1.496e-05
1.42e-05
1.346e-05
1.275e-05
1.206e-05
1.139e-05
1.074e-05
1.01e-05
9.477e-06
8.869e-06
8.272e-06
7.687e-06
7.112e-06
6.547e-06
5.989e-06
5.439e-06
4.895e-06
4.356e-06
3.821e-06
3.29e-06
2.76e-06
2.23e-06
1.7e-06
1.166e-06
6.257e-07
1.427e-07
0.0002944
0.0002961
0.0002973
0.0002981
0.0002984
0.0002983
0.0002979
0.0002974
0.0002968
0.0002961
0.0002954
0.0002947
0.000294
0.0002933
0.0002926
0.0002919
0.0002912
0.0002906
0.0002899
0.0002892
0.0002885
0.0002878
0.0002871
0.0002864
0.0002856
0.0002849
0.0002841
0.0002833
0.0002824
0.0002816
0.0002807
0.0002798
0.0002788
0.0002778
0.0002768
0.0002757
0.0002746
0.0002735
0.0002722
0.0002709
0.0002696
0.0002681
0.0002666
0.0002649
0.0002631
0.0002611
0.000259
0.0002565
0.0002538
0.0002508
0.0002473
0.0002434
0.0002389
0.0002339
0.0002284
0.0002222
0.0002154
0.000208
0.0002
0.0001915
0.0001825
0.000173
0.0001627
0.0001521
0.0001414
0.0001312
0.0001215
0.0001127
0.0001043
9.636e-05
8.888e-05
8.195e-05
7.554e-05
6.964e-05
6.426e-05
5.941e-05
5.508e-05
5.123e-05
4.783e-05
4.481e-05
4.214e-05
3.976e-05
3.763e-05
3.57e-05
3.393e-05
3.231e-05
3.08e-05
2.939e-05
2.805e-05
2.68e-05
2.56e-05
2.446e-05
2.337e-05
2.232e-05
2.132e-05
2.036e-05
1.943e-05
1.854e-05
1.768e-05
1.685e-05
1.605e-05
1.528e-05
1.453e-05
1.381e-05
1.31e-05
1.242e-05
1.176e-05
1.111e-05
1.048e-05
9.865e-06
9.262e-06
8.672e-06
8.094e-06
7.526e-06
6.967e-06
6.417e-06
5.874e-06
5.337e-06
4.807e-06
4.281e-06
3.76e-06
3.241e-06
2.724e-06
2.207e-06
1.69e-06
1.17e-06
6.448e-07
1.635e-07
0.0002931
0.0002946
0.0002958
0.0002966
0.000297
0.000297
0.0002968
0.0002965
0.0002959
0.0002954
0.0002947
0.0002941
0.0002935
0.0002928
0.0002922
0.0002916
0.000291
0.0002904
0.0002897
0.0002891
0.0002885
0.0002878
0.0002872
0.0002865
0.0002858
0.0002851
0.0002844
0.0002836
0.0002828
0.0002821
0.0002812
0.0002804
0.0002795
0.0002786
0.0002777
0.0002767
0.0002757
0.0002747
0.0002736
0.0002724
0.0002712
0.0002699
0.0002686
0.0002671
0.0002655
0.0002638
0.0002619
0.0002597
0.0002573
0.0002546
0.0002514
0.0002478
0.0002436
0.0002389
0.0002335
0.0002275
0.0002209
0.0002135
0.0002053
0.0001964
0.000187
0.0001766
0.000165
0.0001525
0.0001401
0.0001283
0.0001175
0.000108
9.928e-05
9.107e-05
8.348e-05
7.659e-05
7.029e-05
6.454e-05
5.934e-05
5.472e-05
5.064e-05
4.708e-05
4.396e-05
4.125e-05
3.887e-05
3.677e-05
3.49e-05
3.322e-05
3.168e-05
3.026e-05
2.894e-05
2.769e-05
2.651e-05
2.538e-05
2.43e-05
2.327e-05
2.228e-05
2.132e-05
2.04e-05
1.951e-05
1.865e-05
1.782e-05
1.701e-05
1.624e-05
1.548e-05
1.476e-05
1.405e-05
1.336e-05
1.269e-05
1.204e-05
1.141e-05
1.079e-05
1.019e-05
9.595e-06
9.016e-06
8.448e-06
7.89e-06
7.341e-06
6.801e-06
6.268e-06
5.741e-06
5.221e-06
4.706e-06
4.195e-06
3.688e-06
3.184e-06
2.682e-06
2.18e-06
1.678e-06
1.173e-06
6.649e-07
1.861e-07
0.0002919
0.0002933
0.0002945
0.0002953
0.0002958
0.0002959
0.0002959
0.0002956
0.0002952
0.0002947
0.0002942
0.0002936
0.0002931
0.0002925
0.0002919
0.0002913
0.0002908
0.0002902
0.0002896
0.000289
0.0002885
0.0002879
0.0002872
0.0002866
0.000286
0.0002854
0.0002847
0.000284
0.0002833
0.0002826
0.0002818
0.0002811
0.0002803
0.0002795
0.0002787
0.0002778
0.0002769
0.000276
0.000275
0.000274
0.000273
0.0002719
0.0002707
0.0002695
0.0002681
0.0002667
0.0002651
0.0002633
0.0002612
0.0002588
0.0002561
0.0002529
0.0002492
0.0002448
0.0002399
0.0002342
0.0002279
0.0002209
0.000213
0.000204
0.0001944
0.0001832
0.0001691
0.0001533
0.0001377
0.0001232
0.0001108
0.0001006
9.19e-05
8.373e-05
7.636e-05
6.98e-05
6.386e-05
5.842e-05
5.354e-05
4.927e-05
4.556e-05
4.236e-05
3.962e-05
3.727e-05
3.524e-05
3.348e-05
3.191e-05
3.051e-05
2.923e-05
2.803e-05
2.691e-05
2.584e-05
2.482e-05
2.384e-05
2.289e-05
2.197e-05
2.108e-05
2.022e-05
1.938e-05
1.857e-05
1.779e-05
1.702e-05
1.628e-05
1.556e-05
1.486e-05
1.418e-05
1.351e-05
1.287e-05
1.224e-05
1.163e-05
1.102e-05
1.044e-05
9.862e-06
9.298e-06
8.745e-06
8.2e-06
7.665e-06
7.137e-06
6.617e-06
6.103e-06
5.595e-06
5.092e-06
4.594e-06
4.1e-06
3.609e-06
3.12e-06
2.634e-06
2.148e-06
1.663e-06
1.176e-06
6.86e-07
2.102e-07
0.0002909
0.0002923
0.0002934
0.0002942
0.0002947
0.000295
0.000295
0.0002948
0.0002945
0.0002942
0.0002937
0.0002932
0.0002927
0.0002922
0.0002917
0.0002911
0.0002906
0.0002901
0.0002896
0.000289
0.0002885
0.0002879
0.0002874
0.0002868
0.0002862
0.0002857
0.0002851
0.0002844
0.0002838
0.0002832
0.0002825
0.0002818
0.0002811
0.0002804
0.0002797
0.0002789
0.0002782
0.0002774
0.0002765
0.0002757
0.0002748
0.0002739
0.000273
0.000272
0.0002709
0.0002698
0.0002685
0.0002671
0.0002654
0.0002635
0.0002613
0.0002586
0.0002554
0.0002516
0.0002473
0.0002423
0.0002368
0.0002307
0.0002235
0.0002152
0.0002072
0.0001954
0.0001769
0.0001545
0.0001333
0.0001144
9.893e-05
8.87e-05
8.148e-05
7.389e-05
6.717e-05
6.143e-05
5.623e-05
5.133e-05
4.693e-05
4.313e-05
3.99e-05
3.716e-05
3.487e-05
3.295e-05
3.133e-05
2.994e-05
2.872e-05
2.763e-05
2.662e-05
2.567e-05
2.476e-05
2.389e-05
2.303e-05
2.22e-05
2.139e-05
2.059e-05
1.981e-05
1.905e-05
1.83e-05
1.758e-05
1.686e-05
1.617e-05
1.549e-05
1.483e-05
1.419e-05
1.356e-05
1.294e-05
1.234e-05
1.175e-05
1.118e-05
1.061e-05
1.006e-05
9.514e-06
8.979e-06
8.453e-06
7.934e-06
7.423e-06
6.918e-06
6.419e-06
5.926e-06
5.437e-06
4.953e-06
4.473e-06
3.996e-06
3.523e-06
3.051e-06
2.582e-06
2.114e-06
1.646e-06
1.177e-06
7.076e-07
2.355e-07
0.0002901
0.0002913
0.0002925
0.0002933
0.0002938
0.0002941
0.0002942
0.0002942
0.000294
0.0002937
0.0002933
0.0002929
0.0002924
0.000292
0.0002915
0.000291
0.0002905
0.00029
0.0002896
0.0002891
0.0002886
0.0002881
0.0002876
0.0002871
0.0002865
0.000286
0.0002855
0.0002849
0.0002844
0.0002838
0.0002832
0.0002826
0.000282
0.0002814
0.0002808
0.0002801
0.0002795
0.0002788
0.0002781
0.0002774
0.0002767
0.000276
0.0002753
0.0002746
0.0002738
0.000273
0.0002721
0.0002711
0.0002699
0.0002685
0.0002668
0.0002647
0.0002621
0.0002591
0.0002555
0.0002515
0.0002473
0.0002432
0.000237
0.0002264
0.0002231
0.000223
0.0001996
0.0001559
0.0001229
9.169e-05
7.555e-05
7.485e-05
7.148e-05
6.183e-05
5.555e-05
5.154e-05
4.757e-05
4.346e-05
3.969e-05
3.649e-05
3.382e-05
3.161e-05
2.983e-05
2.839e-05
2.722e-05
2.625e-05
2.54e-05
2.464e-05
2.392e-05
2.323e-05
2.254e-05
2.186e-05
2.119e-05
2.051e-05
1.983e-05
1.916e-05
1.849e-05
1.783e-05
1.718e-05
1.654e-05
1.59e-05
1.528e-05
1.467e-05
1.407e-05
1.348e-05
1.291e-05
1.234e-05
1.179e-05
1.124e-05
1.071e-05
1.018e-05
9.66e-06
9.149e-06
8.645e-06
8.147e-06
7.656e-06
7.169e-06
6.689e-06
6.212e-06
5.74e-06
5.272e-06
4.807e-06
4.346e-06
3.888e-06
3.432e-06
2.978e-06
2.527e-06
2.076e-06
1.627e-06
1.179e-06
7.295e-07
2.615e-07
0.0002894
0.0002906
0.0002916
0.0002925
0.0002931
0.0002934
0.0002936
0.0002936
0.0002935
0.0002932
0.0002929
0.0002926
0.0002922
0.0002918
0.0002913
0.0002909
0.0002905
0.00029
0.0002896
0.0002891
0.0002887
0.0002882
0.0002878
0.0002873
0.0002869
0.0002864
0.0002859
0.0002854
0.000285
0.0002845
0.000284
0.0002834
0.0002829
0.0002824
0.0002819
0.0002813
0.0002808
0.0002803
0.0002797
0.0002792
0.0002787
0.0002782
0.0002777
0.0002772
0.0002767
0.0002762
0.0002757
0.0002751
0.0002744
0.0002735
0.0002724
0.0002709
0.000269
0.0002667
0.0002639
0.0002609
0.0002582
0.0002559
0.0002556
0.0002399
0.0001929
0.0001843
0.0001728
0.0001483
0.0001349
0.0001203
0.0001124
9.893e-05
6.02e-05
4.51e-05
4.384e-05
4.118e-05
3.865e-05
3.532e-05
3.215e-05
2.96e-05
2.752e-05
2.588e-05
2.464e-05
2.373e-05
2.304e-05
2.251e-05
2.205e-05
2.162e-05
2.12e-05
2.076e-05
2.03e-05
1.982e-05
1.932e-05
1.879e-05
1.825e-05
1.771e-05
1.715e-05
1.659e-05
1.603e-05
1.547e-05
1.492e-05
1.437e-05
1.383e-05
1.329e-05
1.276e-05
1.224e-05
1.173e-05
1.122e-05
1.072e-05
1.022e-05
9.735e-06
9.252e-06
8.774e-06
8.302e-06
7.833e-06
7.369e-06
6.909e-06
6.453e-06
6e-06
5.55e-06
5.102e-06
4.658e-06
4.216e-06
3.776e-06
3.339e-06
2.903e-06
2.47e-06
2.038e-06
1.608e-06
1.179e-06
7.515e-07
2.878e-07
0.0002888
0.0002899
0.000291
0.0002918
0.0002924
0.0002928
0.000293
0.0002931
0.000293
0.0002929
0.0002926
0.0002923
0.000292
0.0002916
0.0002913
0.0002909
0.0002905
0.0002901
0.0002897
0.0002892
0.0002888
0.0002884
0.000288
0.0002876
0.0002872
0.0002868
0.0002864
0.000286
0.0002855
0.0002851
0.0002847
0.0002843
0.0002838
0.0002834
0.000283
0.0002826
0.0002821
0.0002817
0.0002813
0.000281
0.0002806
0.0002803
0.00028
0.0002797
0.0002795
0.0002794
0.0002792
0.000279
0.0002788
0.0002785
0.0002779
0.000277
0.0002757
0.000274
0.0002717
0.0002688
0.0002656
0.0002627
0.0002466
0.0001929
0.0001584
0.0001366
0.000102
0.000126
0.0001714
0.0001733
0.0001518
0.0001309
0.000106
6.215e-05
3.741e-05
3.376e-05
3.205e-05
2.728e-05
2.46e-05
2.271e-05
2.124e-05
2.016e-05
1.949e-05
1.911e-05
1.892e-05
1.883e-05
1.876e-05
1.866e-05
1.853e-05
1.834e-05
1.81e-05
1.78e-05
1.746e-05
1.709e-05
1.668e-05
1.626e-05
1.581e-05
1.535e-05
1.488e-05
1.441e-05
1.394e-05
1.346e-05
1.299e-05
1.251e-05
1.204e-05
1.157e-05
1.111e-05
1.065e-05
1.019e-05
9.739e-06
9.289e-06
8.842e-06
8.398e-06
7.957e-06
7.518e-06
7.082e-06
6.648e-06
6.216e-06
5.786e-06
5.358e-06
4.932e-06
4.507e-06
4.084e-06
3.663e-06
3.244e-06
2.827e-06
2.412e-06
1.999e-06
1.588e-06
1.179e-06
7.731e-07
3.14e-07
0.0002883
0.0002894
0.0002904
0.0002912
0.0002918
0.0002922
0.0002925
0.0002926
0.0002926
0.0002925
0.0002924
0.0002921
0.0002918
0.0002915
0.0002912
0.0002908
0.0002905
0.0002901
0.0002897
0.0002894
0.000289
0.0002886
0.0002883
0.0002879
0.0002876
0.0002872
0.0002868
0.0002865
0.0002861
0.0002858
0.0002854
0.0002851
0.0002847
0.0002844
0.0002841
0.0002838
0.0002834
0.0002832
0.0002829
0.0002827
0.0002825
0.0002823
0.0002822
0.0002822
0.0002822
0.0002823
0.0002825
0.0002828
0.000283
0.0002832
0.0002831
0.0002827
0.0002819
0.0002806
0.0002787
0.0002765
0.00027
0.0002334
0.0002007
2.792e-05
3.165e-05
5.562e-05
9.529e-05
0.00013
0.0001657
0.000196
0.0002412
0.0002424
0.0002261
0.0001113
7.691e-05
3.877e-05
2.3e-05
1.905e-05
1.723e-05
1.612e-05
1.524e-05
1.469e-05
1.455e-05
1.471e-05
1.5e-05
1.533e-05
1.562e-05
1.584e-05
1.598e-05
1.602e-05
1.597e-05
1.586e-05
1.567e-05
1.544e-05
1.516e-05
1.484e-05
1.45e-05
1.414e-05
1.376e-05
1.337e-05
1.297e-05
1.256e-05
1.216e-05
1.174e-05
1.133e-05
1.092e-05
1.05e-05
1.009e-05
9.675e-06
9.262e-06
8.849e-06
8.438e-06
8.027e-06
7.617e-06
7.207e-06
6.798e-06
6.39e-06
5.982e-06
5.575e-06
5.169e-06
4.763e-06
4.358e-06
3.955e-06
3.552e-06
3.151e-06
2.752e-06
2.355e-06
1.96e-06
1.568e-06
1.179e-06
7.942e-07
3.396e-07
0.0002879
0.0002889
0.0002899
0.0002907
0.0002913
0.0002918
0.0002921
0.0002923
0.0002923
0.0002923
0.0002921
0.000292
0.0002917
0.0002914
0.0002912
0.0002908
0.0002905
0.0002902
0.0002899
0.0002895
0.0002892
0.0002889
0.0002885