/*--------------------------------*- C++ -*----------------------------------*\
  =========                 |
  \\      /  F ield         | OpenFOAM: The Open Source CFD Toolbox
   \\    /   O peration     | Website:  https://openfoam.org
    \\  /    A nd           | Version:  7
     \\/     M anipulation  |
\*---------------------------------------------------------------------------*/
FoamFile
{
    version     2.0;
    format      ascii;
    class       surfaceScalarField;
    location    "539.999473411039162";
    object      phi;
}
// * * * * * * * * * * * * * * * * * * * * * * * * * * * * * * * * * * * * * //

dimensions      [0 3 -1 0 0 0 0];

internalField   nonuniform List<scalar> 
8032
(
6.857e-10
2.518e-10
4.804e-10
2.053e-10
3.48e-10
1.324e-10
2.643e-10
8.372e-11
2.101e-10
5.415e-11
1.738e-10
3.635e-11
1.483e-10
2.548e-11
1.297e-10
1.862e-11
1.156e-10
1.41e-11
1.046e-10
1.098e-11
9.586e-11
8.743e-12
8.878e-11
7.074e-12
8.299e-11
5.79e-12
7.821e-11
4.777e-12
7.426e-11
3.959e-12
7.097e-11
3.284e-12
6.825e-11
2.718e-12
6.602e-11
2.236e-12
6.42e-11
1.817e-12
6.275e-11
1.449e-12
6.163e-11
1.119e-12
6.081e-11
8.198e-13
6.027e-11
5.435e-13
5.998e-11
2.845e-13
5.995e-11
3.789e-14
6.015e-11
-2.004e-13
6.058e-11
-4.341e-13
6.125e-11
-6.662e-13
6.215e-11
-8.994e-13
6.328e-11
-1.136e-12
6.466e-11
-1.379e-12
6.629e-11
-1.629e-12
6.818e-11
-1.889e-12
7.034e-11
-2.158e-12
7.278e-11
-2.44e-12
7.551e-11
-2.733e-12
7.855e-11
-3.039e-12
8.191e-11
-3.356e-12
8.559e-11
-3.685e-12
8.961e-11
-4.024e-12
9.398e-11
-4.37e-12
9.87e-11
-4.721e-12
1.038e-10
-5.073e-12
1.092e-10
-5.422e-12
1.15e-10
-5.761e-12
1.21e-10
-6.085e-12
1.274e-10
-6.386e-12
1.341e-10
-6.655e-12
1.41e-10
-6.883e-12
1.48e-10
-7.06e-12
1.552e-10
-7.177e-12
1.624e-10
-7.223e-12
1.696e-10
-7.188e-12
1.767e-10
-7.062e-12
1.835e-10
-6.839e-12
1.9e-10
-6.513e-12
1.961e-10
-6.078e-12
2.016e-10
-5.536e-12
2.065e-10
-4.888e-12
2.107e-10
-4.141e-12
2.14e-10
-3.307e-12
2.164e-10
-2.4e-12
2.178e-10
-1.44e-12
2.183e-10
-4.497e-13
2.177e-10
5.455e-13
2.162e-10
1.521e-12
2.138e-10
2.453e-12
2.104e-10
3.323e-12
2.063e-10
4.114e-12
2.015e-10
4.815e-12
1.961e-10
5.42e-12
1.902e-10
5.925e-12
1.838e-10
6.331e-12
1.772e-10
6.639e-12
1.703e-10
6.854e-12
1.634e-10
6.981e-12
1.563e-10
7.028e-12
1.493e-10
7.003e-12
1.424e-10
6.912e-12
1.356e-10
6.766e-12
1.291e-10
6.572e-12
1.227e-10
6.339e-12
1.167e-10
6.075e-12
1.109e-10
5.788e-12
1.054e-10
5.485e-12
1.002e-10
5.172e-12
9.536e-11
4.854e-12
9.082e-11
4.536e-12
8.66e-11
4.223e-12
8.268e-11
3.917e-12
7.906e-11
3.621e-12
7.573e-11
3.337e-12
7.266e-11
3.066e-12
6.985e-11
2.81e-12
6.728e-11
2.568e-12
6.494e-11
2.342e-12
6.281e-11
2.131e-12
6.087e-11
1.935e-12
5.912e-11
1.754e-12
5.753e-11
1.587e-12
5.61e-11
1.433e-12
5.481e-11
1.291e-12
5.365e-11
1.162e-12
5.26e-11
1.044e-12
5.167e-11
9.369e-13
5.083e-11
8.392e-13
5.008e-11
7.506e-13
4.94e-11
6.704e-13
4.881e-11
5.979e-13
4.827e-11
5.325e-13
4.78e-11
4.736e-13
4.738e-11
4.208e-13
4.701e-11
3.735e-13
4.668e-11
3.315e-13
4.638e-11
2.942e-13
4.612e-11
2.615e-13
4.589e-11
2.332e-13
4.568e-11
2.091e-13
4.549e-11
1.894e-13
4.531e-11
1.74e-13
4.515e-11
1.635e-13
4.499e-11
1.585e-13
4.483e-11
1.605e-13
4.466e-11
1.721e-13
4.446e-11
1.983e-13
4.421e-11
2.473e-13
4.388e-11
3.286e-13
4.27e-13
9.523e-10
2.37e-10
8.501e-10
3.075e-10
7.275e-10
2.55e-10
6.183e-10
1.929e-10
5.294e-10
1.43e-10
4.594e-10
1.064e-10
4.044e-10
8.044e-11
3.61e-10
6.202e-11
3.263e-10
4.876e-11
2.983e-10
3.9e-11
2.754e-10
3.163e-11
2.566e-10
2.594e-11
2.409e-10
2.145e-11
2.278e-10
1.784e-11
2.169e-10
1.487e-11
2.078e-10
1.24e-11
2.002e-10
1.03e-11
1.94e-10
8.502e-12
1.889e-10
6.93e-12
1.848e-10
5.538e-12
1.816e-10
4.288e-12
1.793e-10
3.148e-12
1.777e-10
2.093e-12
1.769e-10
1.103e-12
1.768e-10
1.592e-13
1.773e-10
-7.533e-13
1.785e-10
-1.648e-12
1.804e-10
-2.535e-12
1.829e-10
-3.426e-12
1.861e-10
-4.329e-12
1.9e-10
-5.251e-12
1.946e-10
-6.2e-12
1.999e-10
-7.181e-12
2.059e-10
-8.199e-12
2.127e-10
-9.256e-12
2.203e-10
-1.036e-11
2.288e-10
-1.15e-11
2.381e-10
-1.268e-11
2.483e-10
-1.39e-11
2.595e-10
-1.515e-11
2.715e-10
-1.642e-11
2.845e-10
-1.771e-11
2.984e-10
-1.899e-11
3.133e-10
-2.026e-11
3.29e-10
-2.148e-11
3.455e-10
-2.265e-11
3.629e-10
-2.372e-11
3.809e-10
-2.467e-11
3.995e-10
-2.546e-11
4.185e-10
-2.607e-11
4.377e-10
-2.644e-11
4.571e-10
-2.656e-11
4.763e-10
-2.638e-11
4.951e-10
-2.588e-11
5.133e-10
-2.502e-11
5.306e-10
-2.379e-11
5.466e-10
-2.217e-11
5.613e-10
-2.017e-11
5.742e-10
-1.78e-11
5.851e-10
-1.507e-11
5.938e-10
-1.204e-11
6.002e-10
-8.746e-12
6.04e-10
-5.271e-12
6.053e-10
-1.691e-12
6.039e-10
1.91e-12
6e-10
5.443e-12
5.936e-10
8.828e-12
5.849e-10
1.2e-11
5.742e-10
1.489e-11
5.615e-10
1.747e-11
5.472e-10
1.971e-11
5.315e-10
2.159e-11
5.148e-10
2.312e-11
4.971e-10
2.43e-11
4.788e-10
2.514e-11
4.601e-10
2.566e-11
4.413e-10
2.588e-11
4.224e-10
2.584e-11
4.038e-10
2.556e-11
3.855e-10
2.508e-11
3.677e-10
2.441e-11
3.504e-10
2.359e-11
3.338e-10
2.266e-11
3.18e-10
2.164e-11
3.029e-10
2.055e-11
2.887e-10
1.942e-11
2.752e-10
1.826e-11
2.627e-10
1.71e-11
2.509e-10
1.595e-11
2.4e-10
1.483e-11
2.299e-10
1.373e-11
2.206e-10
1.268e-11
2.12e-10
1.168e-11
2.041e-10
1.072e-11
1.968e-10
9.82e-12
1.902e-10
8.973e-12
1.841e-10
8.18e-12
1.786e-10
7.442e-12
1.736e-10
6.758e-12
1.691e-10
6.125e-12
1.65e-10
5.541e-12
1.612e-10
5.005e-12
1.579e-10
4.513e-12
1.549e-10
4.063e-12
1.522e-10
3.652e-12
1.497e-10
3.278e-12
1.475e-10
2.938e-12
1.456e-10
2.63e-12
1.438e-10
2.35e-12
1.423e-10
2.098e-12
1.409e-10
1.871e-12
1.396e-10
1.666e-12
1.385e-10
1.483e-12
1.375e-10
1.32e-12
1.366e-10
1.175e-12
1.359e-10
1.047e-12
1.352e-10
9.366e-13
1.345e-10
8.42e-13
1.339e-10
7.636e-13
1.334e-10
7.016e-13
1.329e-10
6.572e-13
1.324e-10
6.318e-13
1.32e-10
6.285e-13
1.315e-10
6.516e-13
1.31e-10
7.076e-13
1.304e-10
8.038e-13
1.298e-10
9.389e-13
1.067e-12
9.779e-10
1.966e-10
9.637e-10
3.217e-10
9.013e-10
3.174e-10
8.213e-10
2.729e-10
7.411e-10
2.232e-10
6.683e-10
1.792e-10
6.051e-10
1.437e-10
5.513e-10
1.157e-10
5.061e-10
9.403e-11
4.68e-10
7.707e-11
4.36e-10
6.368e-11
4.089e-10
5.297e-11
3.861e-10
4.429e-11
3.668e-10
3.714e-11
3.505e-10
3.117e-11
3.368e-10
2.613e-11
3.253e-10
2.181e-11
3.157e-10
1.806e-11
3.079e-10
1.476e-11
3.016e-10
1.182e-11
2.967e-10
9.167e-12
2.931e-10
6.736e-12
2.907e-10
4.479e-12
2.895e-10
2.353e-12
2.893e-10
3.22e-13
2.902e-10
-1.644e-12
2.921e-10
-3.571e-12
2.951e-10
-5.485e-12
2.991e-10
-7.404e-12
3.041e-10
-9.348e-12
3.102e-10
-1.133e-11
3.173e-10
-1.337e-11
3.256e-10
-1.547e-11
3.351e-10
-1.765e-11
3.457e-10
-1.991e-11
3.576e-10
-2.225e-11
3.708e-10
-2.468e-11
3.853e-10
-2.719e-11
4.012e-10
-2.977e-11
4.185e-10
-3.241e-11
4.371e-10
-3.51e-11
4.572e-10
-3.78e-11
4.787e-10
-4.049e-11
5.016e-10
-4.314e-11
5.258e-10
-4.569e-11
5.513e-10
-4.81e-11
5.779e-10
-5.031e-11
6.055e-10
-5.226e-11
6.339e-10
-5.388e-11
6.629e-10
-5.509e-11
6.923e-10
-5.583e-11
7.217e-10
-5.602e-11
7.509e-10
-5.558e-11
7.795e-10
-5.447e-11
8.071e-10
-5.261e-11
8.333e-10
-4.999e-11
8.577e-10
-4.656e-11
8.799e-10
-4.234e-11
8.994e-10
-3.734e-11
9.16e-10
-3.162e-11
9.292e-10
-2.526e-11
9.388e-10
-1.838e-11
9.447e-10
-1.112e-11
9.466e-10
-3.632e-12
9.446e-10
3.894e-12
9.388e-10
1.128e-11
9.292e-10
1.837e-11
9.162e-10
2.502e-11
9e-10
3.11e-11
8.809e-10
3.654e-11
8.593e-10
4.128e-11
8.357e-10
4.528e-11
8.102e-10
4.855e-11
7.834e-10
5.108e-11
7.557e-10
5.292e-11
7.272e-10
5.408e-11
6.985e-10
5.463e-11
6.697e-10
5.462e-11
6.412e-10
5.41e-11
6.131e-10
5.314e-11
5.857e-10
5.18e-11
5.592e-10
5.014e-11
5.336e-10
4.822e-11
5.091e-10
4.611e-11
4.858e-10
4.385e-11
4.638e-10
4.149e-11
4.429e-10
3.908e-11
4.234e-10
3.665e-11
4.051e-10
3.423e-11
3.881e-10
3.186e-11
3.723e-10
2.955e-11
3.576e-10
2.733e-11
3.441e-10
2.519e-11
3.317e-10
2.316e-11
3.202e-10
2.124e-11
3.098e-10
1.944e-11
3.002e-10
1.774e-11
2.915e-10
1.617e-11
2.836e-10
1.47e-11
2.763e-10
1.334e-11
2.698e-10
1.208e-11
2.639e-10
1.093e-11
2.585e-10
9.868e-12
2.537e-10
8.897e-12
2.493e-10
8.009e-12
2.454e-10
7.199e-12
2.419e-10
6.462e-12
2.387e-10
5.792e-12
2.359e-10
5.185e-12
2.333e-10
4.636e-12
2.311e-10
4.14e-12
2.29e-10
3.694e-12
2.272e-10
3.294e-12
2.256e-10
2.936e-12
2.242e-10
2.618e-12
2.229e-10
2.338e-12
2.217e-10
2.094e-12
2.207e-10
1.884e-12
2.197e-10
1.708e-12
2.189e-10
1.567e-12
2.181e-10
1.461e-12
2.173e-10
1.393e-12
2.166e-10
1.365e-12
2.158e-10
1.382e-12
2.151e-10
1.446e-12
2.143e-10
1.559e-12
2.136e-10
1.704e-12
1.822e-12
9.752e-10
1.589e-10
9.931e-10
3.038e-10
9.729e-10
3.376e-10
9.271e-10
3.188e-10
8.693e-10
2.809e-10
8.089e-10
2.396e-10
7.51e-10
2.015e-10
6.981e-10
1.687e-10
6.509e-10
1.412e-10
6.095e-10
1.185e-10
5.734e-10
9.973e-11
5.422e-10
8.418e-11
5.153e-10
7.12e-11
4.922e-10
6.027e-11
4.724e-10
5.097e-11
4.555e-10
4.299e-11
4.413e-10
3.606e-11
4.294e-10
2.997e-11
4.196e-10
2.457e-11
4.117e-10
1.972e-11
4.055e-10
1.531e-11
4.01e-10
1.124e-11
3.981e-10
7.451e-12
3.965e-10
3.867e-12
3.964e-10
4.335e-13
3.977e-10
-2.897e-12
4.003e-10
-6.169e-12
4.042e-10
-9.418e-12
4.095e-10
-1.268e-11
4.161e-10
-1.598e-11
4.241e-10
-1.935e-11
4.336e-10
-2.28e-11
4.445e-10
-2.637e-11
4.569e-10
-3.005e-11
4.708e-10
-3.387e-11
4.864e-10
-3.782e-11
5.036e-10
-4.19e-11
5.225e-10
-4.612e-11
5.432e-10
-5.045e-11
5.657e-10
-5.487e-11
5.899e-10
-5.936e-11
6.16e-10
-6.387e-11
6.439e-10
-6.834e-11
6.734e-10
-7.273e-11
7.047e-10
-7.696e-11
7.375e-10
-8.094e-11
7.718e-10
-8.458e-11
8.073e-10
-8.777e-11
8.438e-10
-9.04e-11
8.811e-10
-9.235e-11
9.188e-10
-9.351e-11
9.565e-10
-9.375e-11
9.939e-10
-9.296e-11
1.03e-09
-9.103e-11
1.066e-09
-8.788e-11
1.099e-09
-8.345e-11
1.13e-09
-7.77e-11
1.159e-09
-7.064e-11
1.184e-09
-6.229e-11
1.205e-09
-5.276e-11
1.222e-09
-4.217e-11
1.234e-09
-3.072e-11
1.241e-09
-1.863e-11
1.244e-09
-6.179e-12
1.242e-09
6.344e-12
1.234e-09
1.865e-11
1.222e-09
3.046e-11
1.206e-09
4.154e-11
1.185e-09
5.17e-11
1.161e-09
6.079e-11
1.133e-09
6.873e-11
1.103e-09
7.547e-11
1.071e-09
8.098e-11
1.036e-09
8.529e-11
1.001e-09
8.844e-11
9.646e-10
9.048e-11
9.277e-10
9.149e-11
8.908e-10
9.156e-11
8.541e-10
9.079e-11
8.179e-10
8.927e-11
7.826e-10
8.711e-11
7.484e-10
8.442e-11
7.153e-10
8.128e-11
6.836e-10
7.78e-11
6.534e-10
7.407e-11
6.247e-10
7.017e-11
5.976e-10
6.616e-11
5.722e-10
6.212e-11
5.483e-10
5.81e-11
5.26e-10
5.413e-11
5.053e-10
5.027e-11
4.861e-10
4.654e-11
4.683e-10
4.295e-11
4.52e-10
3.954e-11
4.369e-10
3.63e-11
4.231e-10
3.325e-11
4.104e-10
3.039e-11
3.989e-10
2.772e-11
3.883e-10
2.523e-11
3.787e-10
2.293e-11
3.7e-10
2.08e-11
3.621e-10
1.883e-11
3.55e-10
1.702e-11
3.485e-10
1.537e-11
3.427e-10
1.385e-11
3.374e-10
1.246e-11
3.327e-10
1.12e-11
3.284e-10
1.005e-11
3.246e-10
9.011e-12
3.212e-10
8.068e-12
3.181e-10
7.215e-12
3.153e-10
6.446e-12
3.129e-10
5.756e-12
3.107e-10
5.138e-12
3.087e-10
4.587e-12
3.069e-10
4.101e-12
3.053e-10
3.675e-12
3.039e-10
3.308e-12
3.026e-10
2.997e-12
3.015e-10
2.743e-12
3.004e-10
2.545e-12
2.994e-10
2.406e-12
2.984e-10
2.326e-12
2.975e-10
2.308e-12
2.966e-10
2.351e-12
2.957e-10
2.449e-12
2.948e-10
2.576e-12
2.674e-12
9.668e-10
1.296e-10
9.945e-10
2.761e-10
9.98e-10
3.341e-10
9.783e-10
3.385e-10
9.43e-10
3.162e-10
8.993e-10
2.833e-10
8.528e-10
2.481e-10
8.069e-10
2.146e-10
7.635e-10
1.846e-10
7.237e-10
1.583e-10
6.878e-10
1.356e-10
6.559e-10
1.161e-10
6.277e-10
9.94e-11
6.03e-10
8.495e-11
5.815e-10
7.242e-11
5.63e-10
6.147e-11
5.473e-10
5.183e-11
5.34e-10
4.326e-11
5.23e-10
3.557e-11
5.141e-10
2.86e-11
5.072e-10
2.221e-11
5.022e-10
1.629e-11
4.989e-10
1.073e-11
4.973e-10
5.457e-12
4.973e-10
3.852e-13
4.99e-10
-4.549e-12
5.022e-10
-9.406e-12
5.071e-10
-1.424e-11
5.135e-10
-1.909e-11
5.215e-10
-2.4e-11
5.311e-10
-2.901e-11
5.425e-10
-3.415e-11
5.556e-10
-3.945e-11
5.704e-10
-4.492e-11
5.871e-10
-5.057e-11
6.057e-10
-5.642e-11
6.263e-10
-6.247e-11
6.489e-10
-6.869e-11
6.735e-10
-7.508e-11
7.002e-10
-8.159e-11
7.29e-10
-8.818e-11
7.6e-10
-9.48e-11
7.93e-10
-1.014e-10
8.28e-10
-1.078e-10
8.65e-10
-1.139e-10
9.038e-10
-1.197e-10
9.443e-10
-1.25e-10
9.862e-10
-1.296e-10
1.029e-09
-1.334e-10
1.073e-09
-1.362e-10
1.117e-09
-1.379e-10
1.162e-09
-1.381e-10
1.206e-09
-1.369e-10
1.249e-09
-1.34e-10
1.29e-09
-1.293e-10
1.33e-09
-1.228e-10
1.366e-09
-1.143e-10
1.399e-09
-1.039e-10
1.429e-09
-9.163e-11
1.454e-09
-7.763e-11
1.473e-09
-6.209e-11
1.488e-09
-4.527e-11
1.497e-09
-2.752e-11
1.5e-09
-9.239e-12
1.497e-09
9.153e-12
1.489e-09
2.723e-11
1.474e-09
4.458e-11
1.455e-09
6.086e-11
1.431e-09
7.58e-11
1.403e-09
8.919e-11
1.371e-09
1.009e-10
1.335e-09
1.108e-10
1.297e-09
1.19e-10
1.257e-09
1.254e-10
1.215e-09
1.302e-10
1.172e-09
1.333e-10
1.129e-09
1.349e-10
1.086e-09
1.351e-10
1.042e-09
1.34e-10
9.997e-10
1.319e-10
9.579e-10
1.288e-10
9.174e-10
1.25e-10
8.782e-10
1.204e-10
8.407e-10
1.154e-10
8.048e-10
1.1e-10
7.707e-10
1.043e-10
7.385e-10
9.84e-11
7.081e-10
9.248e-11
6.796e-10
8.657e-11
6.53e-10
8.075e-11
6.282e-10
7.506e-11
6.052e-10
6.956e-11
5.839e-10
6.427e-11
5.642e-10
5.922e-11
5.461e-10
5.443e-11
5.294e-10
4.991e-11
5.141e-10
4.566e-11
5.002e-10
4.169e-11
4.874e-10
3.799e-11
4.758e-10
3.455e-11
4.652e-10
3.137e-11
4.556e-10
2.844e-11
4.469e-10
2.574e-11
4.39e-10
2.326e-11
4.319e-10
2.098e-11
4.254e-10
1.89e-11
4.196e-10
1.701e-11
4.144e-10
1.528e-11
4.097e-10
1.371e-11
4.055e-10
1.229e-11
4.017e-10
1.101e-11
3.983e-10
9.845e-12
3.952e-10
8.8e-12
3.925e-10
7.864e-12
3.901e-10
7.029e-12
3.879e-10
6.288e-12
3.859e-10
5.638e-12
3.841e-10
5.073e-12
3.825e-10
4.591e-12
3.811e-10
4.191e-12
3.798e-10
3.87e-12
3.785e-10
3.63e-12
3.774e-10
3.47e-12
3.763e-10
3.389e-12
3.753e-10
3.382e-12
3.743e-10
3.438e-12
3.733e-10
3.529e-12
3.602e-12
9.592e-10
1.079e-10
9.876e-10
2.477e-10
1.003e-09
3.187e-10
1.001e-09
3.408e-10
9.832e-10
3.337e-10
9.554e-10
3.111e-10
9.216e-10
2.818e-10
8.853e-10
2.509e-10
8.489e-10
2.21e-10
8.137e-10
1.934e-10
7.809e-10
1.685e-10
7.507e-10
1.463e-10
7.235e-10
1.267e-10
6.991e-10
1.093e-10
6.776e-10
9.391e-11
6.589e-10
8.023e-11
6.427e-10
6.8e-11
6.29e-10
5.698e-11
6.175e-10
4.699e-11
6.083e-10
3.784e-11
6.011e-10
2.939e-11
5.959e-10
2.15e-11
5.926e-10
1.405e-11
5.911e-10
6.936e-12
5.914e-10
6.961e-14
5.935e-10
-6.633e-12
5.973e-10
-1.325e-11
6.029e-10
-1.983e-11
6.103e-10
-2.646e-11
6.195e-10
-3.317e-11
6.305e-10
-4.002e-11
6.434e-10
-4.705e-11
6.582e-10
-5.428e-11
6.751e-10
-6.175e-11
6.94e-10
-6.947e-11
7.15e-10
-7.744e-11
7.382e-10
-8.567e-11
7.636e-10
-9.413e-11
7.913e-10
-1.028e-10
8.214e-10
-1.116e-10
8.538e-10
-1.206e-10
8.885e-10
-1.295e-10
9.256e-10
-1.384e-10
9.649e-10
-1.471e-10
1.006e-09
-1.554e-10
1.05e-09
-1.632e-10
1.095e-09
-1.703e-10
1.142e-09
-1.765e-10
1.19e-09
-1.816e-10
1.239e-09
-1.853e-10
1.289e-09
-1.874e-10
1.338e-09
-1.877e-10
1.387e-09
-1.86e-10
1.435e-09
-1.82e-10
1.481e-09
-1.756e-10
1.525e-09
-1.667e-10
1.566e-09
-1.552e-10
1.604e-09
-1.411e-10
1.636e-09
-1.245e-10
1.664e-09
-1.055e-10
1.687e-09
-8.442e-11
1.703e-09
-6.161e-11
1.713e-09
-3.753e-11
1.716e-09
-1.272e-11
1.713e-09
1.225e-11
1.704e-09
3.677e-11
1.688e-09
6.032e-11
1.666e-09
8.24e-11
1.64e-09
1.027e-10
1.608e-09
1.208e-10
1.572e-09
1.367e-10
1.533e-09
1.503e-10
1.49e-09
1.614e-10
1.445e-09
1.702e-10
1.399e-09
1.767e-10
1.351e-09
1.81e-10
1.303e-09
1.833e-10
1.254e-09
1.837e-10
1.206e-09
1.824e-10
1.158e-09
1.796e-10
1.111e-09
1.756e-10
1.066e-09
1.704e-10
1.022e-09
1.643e-10
9.798e-10
1.576e-10
9.394e-10
1.503e-10
9.011e-10
1.426e-10
8.648e-10
1.347e-10
8.306e-10
1.267e-10
7.984e-10
1.187e-10
7.684e-10
1.108e-10
7.403e-10
1.031e-10
7.143e-10
9.562e-11
6.901e-10
8.843e-11
6.678e-10
8.156e-11
6.472e-10
7.503e-11
6.282e-10
6.886e-11
6.108e-10
6.306e-11
5.949e-10
5.763e-11
5.803e-10
5.256e-11
5.67e-10
4.785e-11
5.549e-10
4.349e-11
5.439e-10
3.946e-11
5.339e-10
3.574e-11
5.248e-10
3.233e-11
5.166e-10
2.92e-11
5.092e-10
2.633e-11
5.024e-10
2.371e-11
4.964e-10
2.133e-11
4.91e-10
1.916e-11
4.861e-10
1.719e-11
4.817e-10
1.541e-11
4.777e-10
1.379e-11
4.742e-10
1.234e-11
4.71e-10
1.104e-11
4.681e-10
9.875e-12
4.656e-10
8.84e-12
4.633e-10
7.928e-12
4.612e-10
7.131e-12
4.594e-10
6.446e-12
4.577e-10
5.869e-12
4.562e-10
5.397e-12
4.548e-10
5.028e-12
4.535e-10
4.76e-12
4.523e-10
4.589e-12
4.512e-10
4.507e-12
4.501e-10
4.501e-12
4.491e-10
4.543e-12
4.588e-12
9.536e-10
9.178e-11
9.796e-10
2.217e-10
9.999e-10
2.985e-10
1.008e-09
3.327e-10
1.004e-09
3.381e-10
9.889e-10
3.258e-10
9.669e-10
3.038e-10
9.406e-10
2.772e-10
9.122e-10
2.494e-10
8.834e-10
2.223e-10
8.552e-10
1.966e-10
8.286e-10
1.73e-10
8.038e-10
1.514e-10
7.813e-10
1.319e-10
7.61e-10
1.142e-10
7.431e-10
9.816e-11
7.275e-10
8.362e-11
7.141e-10
7.035e-11
7.029e-10
5.817e-11
6.939e-10
4.691e-11
6.868e-10
3.641e-11
6.818e-10
2.653e-11
6.787e-10
1.714e-11
6.775e-10
8.13e-12
6.782e-10
-6.079e-13
6.807e-10
-9.169e-12
6.851e-10
-1.764e-11
6.914e-10
-2.61e-11
6.996e-10
-3.462e-11
7.096e-10
-4.326e-11
7.217e-10
-5.208e-11
7.358e-10
-6.113e-11
7.519e-10
-7.044e-11
7.703e-10
-8.006e-11
7.908e-10
-8.999e-11
8.136e-10
-1.002e-10
8.387e-10
-1.108e-10
8.663e-10
-1.217e-10
8.963e-10
-1.328e-10
9.287e-10
-1.441e-10
9.637e-10
-1.556e-10
1.001e-09
-1.67e-10
1.041e-09
-1.784e-10
1.084e-09
-1.894e-10
1.128e-09
-2.001e-10
1.175e-09
-2.1e-10
1.224e-09
-2.191e-10
1.274e-09
-2.269e-10
1.326e-09
-2.334e-10
1.379e-09
-2.381e-10
1.432e-09
-2.408e-10
1.486e-09
-2.411e-10
1.539e-09
-2.389e-10
1.59e-09
-2.337e-10
1.64e-09
-2.256e-10
1.688e-09
-2.141e-10
1.732e-09
-1.994e-10
1.772e-09
-1.813e-10
1.808e-09
-1.6e-10
1.838e-09
-1.357e-10
1.862e-09
-1.086e-10
1.88e-09
-7.935e-11
1.891e-09
-4.841e-11
1.894e-09
-1.651e-11
1.891e-09
1.558e-11
1.881e-09
4.71e-11
1.864e-09
7.733e-11
1.841e-09
1.057e-10
1.812e-09
1.317e-10
1.777e-09
1.55e-10
1.739e-09
1.754e-10
1.696e-09
1.927e-10
1.651e-09
2.071e-10
1.602e-09
2.184e-10
1.552e-09
2.268e-10
1.501e-09
2.324e-10
1.449e-09
2.354e-10
1.396e-09
2.361e-10
1.344e-09
2.345e-10
1.293e-09
2.311e-10
1.243e-09
2.26e-10
1.194e-09
2.194e-10
1.146e-09
2.117e-10
1.101e-09
2.032e-10
1.057e-09
1.939e-10
1.015e-09
1.841e-10
9.762e-10
1.74e-10
9.391e-10
1.638e-10
9.043e-10
1.535e-10
8.716e-10
1.434e-10
8.412e-10
1.336e-10
8.128e-10
1.24e-10
7.865e-10
1.147e-10
7.622e-10
1.059e-10
7.397e-10
9.749e-11
7.191e-10
8.955e-11
7e-10
8.207e-11
6.826e-10
7.507e-11
6.666e-10
6.852e-11
6.521e-10
6.244e-11
6.388e-10
5.679e-11
6.266e-10
5.157e-11
6.156e-10
4.675e-11
6.056e-10
4.232e-11
5.966e-10
3.826e-11
5.884e-10
3.453e-11
5.81e-10
3.113e-11
5.743e-10
2.802e-11
5.682e-10
2.52e-11
5.628e-10
2.263e-11
5.579e-10
2.03e-11
5.535e-10
1.819e-11
5.496e-10
1.629e-11
5.46e-10
1.458e-11
5.428e-10
1.305e-11
5.4e-10
1.169e-11
5.374e-10
1.048e-11
5.351e-10
9.425e-12
5.331e-10
8.509e-12
5.312e-10
7.729e-12
5.295e-10
7.08e-12
5.28e-10
6.558e-12
5.266e-10
6.158e-12
5.253e-10
5.875e-12
5.241e-10
5.7e-12
5.23e-10
5.616e-12
5.22e-10
5.599e-12
5.611e-12
9.498e-10
7.946e-11
9.726e-10
1.989e-10
9.942e-10
2.769e-10
1.008e-09
3.188e-10
1.013e-09
3.337e-10
1.008e-09
3.304e-10
9.96e-10
3.157e-10
9.789e-10
2.943e-10
9.585e-10
2.698e-10
9.364e-10
2.444e-10
9.138e-10
2.192e-10
8.916e-10
1.952e-10
8.704e-10
1.726e-10
8.506e-10
1.516e-10
8.325e-10
1.323e-10
8.162e-10
1.144e-10
8.019e-10
9.794e-11
7.895e-10
8.271e-11
7.792e-10
6.855e-11
7.707e-10
5.533e-11
7.643e-10
4.289e-11
7.597e-10
3.109e-11
7.571e-10
1.98e-11
7.563e-10
8.9e-12
7.574e-10
-1.718e-12
7.604e-10
-1.216e-11
7.653e-10
-2.253e-11
7.721e-10
-3.291e-11
7.808e-10
-4.338e-11
7.916e-10
-5.401e-11
8.044e-10
-6.487e-11
8.193e-10
-7.602e-11
8.363e-10
-8.75e-11
8.556e-10
-9.934e-11
8.772e-10
-1.116e-10
9.012e-10
-1.242e-10
9.276e-10
-1.372e-10
9.565e-10
-1.506e-10
9.879e-10
-1.643e-10
1.022e-09
-1.782e-10
1.059e-09
-1.922e-10
1.098e-09
-2.063e-10
1.14e-09
-2.202e-10
1.184e-09
-2.338e-10
1.231e-09
-2.468e-10
1.28e-09
-2.59e-10
1.331e-09
-2.701e-10
1.384e-09
-2.797e-10
1.438e-09
-2.876e-10
1.493e-09
-2.934e-10
1.549e-09
-2.967e-10
1.605e-09
-2.971e-10
1.66e-09
-2.943e-10
1.715e-09
-2.88e-10
1.767e-09
-2.78e-10
1.817e-09
-2.64e-10
1.863e-09
-2.459e-10
1.906e-09
-2.237e-10
1.943e-09
-1.975e-10
1.975e-09
-1.676e-10
2.001e-09
-1.342e-10
2.02e-09
-9.813e-11
2.031e-09
-5.992e-11
2.035e-09
-2.051e-11
2.032e-09
1.914e-11
2.021e-09
5.804e-11
2.003e-09
9.532e-11
1.978e-09
1.302e-10
1.948e-09
1.622e-10
1.912e-09
1.908e-10
1.871e-09
2.159e-10
1.827e-09
2.373e-10
1.779e-09
2.549e-10
1.728e-09
2.688e-10
1.676e-09
2.792e-10
1.622e-09
2.862e-10
1.568e-09
2.9e-10
1.513e-09
2.909e-10
1.458e-09
2.891e-10
1.404e-09
2.849e-10
1.352e-09
2.787e-10
1.3e-09
2.708e-10
1.251e-09
2.614e-10
1.203e-09
2.509e-10
1.157e-09
2.396e-10
1.114e-09
2.276e-10
1.072e-09
2.152e-10
1.033e-09
2.027e-10
9.968e-10
1.902e-10
9.624e-10
1.778e-10
9.304e-10
1.656e-10
9.006e-10
1.538e-10
8.729e-10
1.424e-10
8.472e-10
1.316e-10
8.235e-10
1.212e-10
8.016e-10
1.114e-10
7.815e-10
1.022e-10
7.631e-10
9.352e-11
7.462e-10
8.543e-11
7.307e-10
7.79e-11
7.166e-10
7.091e-11
7.037e-10
6.444e-11
6.92e-10
5.847e-11
6.813e-10
5.297e-11
6.717e-10
4.792e-11
6.629e-10
4.329e-11
6.55e-10
3.905e-11
6.478e-10
3.519e-11
6.414e-10
3.166e-11
6.355e-10
2.846e-11
6.303e-10
2.555e-11
6.256e-10
2.291e-11
6.213e-10
2.053e-11
6.175e-10
1.839e-11
6.141e-10
1.647e-11
6.11e-10
1.476e-11
6.083e-10
1.323e-11
6.058e-10
1.189e-11
6.036e-10
1.073e-11
6.016e-10
9.722e-12
5.998e-10
8.876e-12
5.982e-10
8.181e-12
5.967e-10
7.631e-12
5.953e-10
7.218e-12
5.941e-10
6.933e-12
5.93e-10
6.759e-12
5.919e-10
6.676e-12
6.654e-12
9.472e-10
6.975e-11
9.67e-10
1.791e-10
9.882e-10
2.556e-10
1.005e-09
3.018e-10
1.015e-09
3.237e-10
1.018e-09
3.278e-10
1.014e-09
3.196e-10
1.005e-09
3.035e-10
9.918e-10
2.829e-10
9.762e-10
2.599e-10
9.593e-10
2.361e-10
9.419e-10
2.126e-10
9.248e-10
1.898e-10
9.083e-10
1.681e-10
8.93e-10
1.476e-10
8.79e-10
1.284e-10
8.665e-10
1.104e-10
8.556e-10
9.357e-11
8.465e-10
7.771e-11
8.391e-10
6.274e-11
8.334e-10
4.853e-11
8.296e-10
3.494e-11
8.275e-10
2.185e-11
8.273e-10
9.144e-12
8.289e-10
-3.302e-12
8.323e-10
-1.559e-11
8.376e-10
-2.783e-11
8.448e-10
-4.012e-11
8.54e-10
-5.254e-11
8.651e-10
-6.517e-11
8.784e-10
-7.809e-11
8.937e-10
-9.136e-11
9.112e-10
-1.05e-10
9.31e-10
-1.191e-10
9.531e-10
-1.337e-10
9.776e-10
-1.487e-10
1.005e-09
-1.642e-10
1.034e-09
-1.801e-10
1.066e-09
-1.964e-10
1.101e-09
-2.129e-10
1.138e-09
-2.296e-10
1.178e-09
-2.463e-10
1.221e-09
-2.629e-10
1.266e-09
-2.79e-10
1.314e-09
-2.945e-10
1.364e-09
-3.09e-10
1.416e-09
-3.222e-10
1.47e-09
-3.336e-10
1.525e-09
-3.43e-10
1.582e-09
-3.499e-10
1.639e-09
-3.538e-10
1.696e-09
-3.543e-10
1.753e-09
-3.511e-10
1.809e-09
-3.436e-10
1.862e-09
-3.317e-10
1.914e-09
-3.151e-10
1.961e-09
-2.937e-10
2.005e-09
-2.673e-10
2.044e-09
-2.361e-10
2.076e-09
-2.005e-10
2.103e-09
-1.607e-10
2.122e-09
-1.176e-10
2.134e-09
-7.183e-11
2.138e-09
-2.461e-11
2.135e-09
2.289e-11
2.123e-09
6.944e-11
2.105e-09
1.14e-10
2.079e-09
1.556e-10
2.048e-09
1.936e-10
2.011e-09
2.277e-10
1.969e-09
2.574e-10
1.924e-09
2.828e-10
1.875e-09
3.038e-10
1.823e-09
3.204e-10
1.77e-09
3.328e-10
1.715e-09
3.411e-10
1.659e-09
3.457e-10
1.603e-09
3.468e-10
1.547e-09
3.448e-10
1.492e-09
3.399e-10
1.439e-09
3.326e-10
1.386e-09
3.233e-10
1.335e-09
3.122e-10
1.286e-09
2.998e-10
1.24e-09
2.863e-10
1.195e-09
2.721e-10
1.153e-09
2.574e-10
1.113e-09
2.425e-10
1.076e-09
2.276e-10
1.041e-09
2.129e-10
1.008e-09
1.984e-10
9.773e-10
1.844e-10
9.489e-10
1.708e-10
9.225e-10
1.579e-10
8.982e-10
1.455e-10
8.757e-10
1.339e-10
8.551e-10
1.229e-10
8.361e-10
1.125e-10
8.186e-10
1.029e-10
8.027e-10
9.385e-11
7.881e-10
8.548e-11
7.748e-10
7.774e-11
7.627e-10
7.058e-11
7.517e-10
6.399e-11
7.417e-10
5.793e-11
7.326e-10
5.237e-11
7.244e-10
4.728e-11
7.169e-10
4.263e-11
7.102e-10
3.839e-11
7.041e-10
3.453e-11
6.987e-10
3.102e-11
6.938e-10
2.784e-11
6.893e-10
2.497e-11
6.853e-10
2.237e-11
6.818e-10
2.005e-11
6.786e-10
1.796e-11
6.757e-10
1.611e-11
6.731e-10
1.447e-11
6.708e-10
1.304e-11
6.687e-10
1.179e-11
6.669e-10
1.074e-11
6.652e-10
9.856e-12
6.637e-10
9.142e-12
6.623e-10
8.587e-12
6.611e-10
8.18e-12
6.599e-10
7.909e-12
6.588e-10
7.755e-12
7.696e-12
9.454e-10
6.187e-11
9.626e-10
1.619e-10
9.828e-10
2.355e-10
1.001e-09
2.836e-10
1.015e-09
3.101e-10
1.022e-09
3.199e-10
1.025e-09
3.174e-10
1.022e-09
3.062e-10
1.015e-09
2.895e-10
1.006e-09
2.694e-10
9.943e-10
2.476e-10
9.817e-10
2.251e-10
9.688e-10
2.027e-10
9.56e-10
1.809e-10
9.437e-10
1.599e-10
9.323e-10
1.398e-10
9.22e-10
1.207e-10
9.129e-10
1.026e-10
9.053e-10
8.535e-11
8.991e-10
6.889e-11
8.945e-10
5.313e-11
8.915e-10
3.793e-11
8.902e-10
2.32e-11
8.905e-10
8.803e-12
8.926e-10
-5.364e-12
8.964e-10
-1.941e-11
9.02e-10
-3.345e-11
9.095e-10
-4.758e-11
9.189e-10
-6.19e-11
9.302e-10
-7.648e-11
9.435e-10
-9.141e-11
9.589e-10
-1.068e-10
9.765e-10
-1.226e-10
9.962e-10
-1.389e-10
1.018e-09
-1.558e-10
1.043e-09
-1.732e-10
1.07e-09
-1.911e-10
1.099e-09
-2.095e-10
1.131e-09
-2.284e-10
1.166e-09
-2.475e-10
1.203e-09
-2.669e-10
1.243e-09
-2.862e-10
1.285e-09
-3.054e-10
1.33e-09
-3.241e-10
1.378e-09
-3.42e-10
1.428e-09
-3.588e-10
1.48e-09
-3.741e-10
1.534e-09
-3.874e-10
1.589e-09
-3.984e-10
1.645e-09
-4.063e-10
1.703e-09
-4.109e-10
1.76e-09
-4.116e-10
1.817e-09
-4.079e-10
1.872e-09
-3.993e-10
1.926e-09
-3.856e-10
1.978e-09
-3.665e-10
2.026e-09
-3.417e-10
2.07e-09
-3.112e-10
2.108e-09
-2.751e-10
2.142e-09
-2.337e-10
2.169e-09
-1.875e-10
2.188e-09
-1.372e-10
2.2e-09
-8.385e-11
2.204e-09
-2.866e-11
2.2e-09
2.683e-11
2.189e-09
8.115e-11
2.17e-09
1.33e-10
2.144e-09
1.812e-10
2.112e-09
2.253e-10
2.075e-09
2.647e-10
2.034e-09
2.991e-10
1.988e-09
3.284e-10
1.939e-09
3.526e-10
1.888e-09
3.719e-10
1.834e-09
3.862e-10
1.78e-09
3.96e-10
1.724e-09
4.014e-10
1.668e-09
4.027e-10
1.612e-09
4.004e-10
1.557e-09
3.949e-10
1.504e-09
3.865e-10
1.451e-09
3.757e-10
1.4e-09
3.629e-10
1.352e-09
3.485e-10
1.305e-09
3.329e-10
1.261e-09
3.165e-10
1.219e-09
2.995e-10
1.179e-09
2.823e-10
1.141e-09
2.65e-10
1.106e-09
2.48e-10
1.073e-09
2.312e-10
1.043e-09
2.149e-10
1.014e-09
1.993e-10
9.881e-10
1.842e-10
9.638e-10
1.699e-10
9.413e-10
1.564e-10
9.206e-10
1.436e-10
9.015e-10
1.316e-10
8.84e-10
1.203e-10
8.68e-10
1.099e-10
8.533e-10
1.001e-10
8.4e-10
9.112e-11
8.278e-10
8.278e-11
8.167e-10
7.51e-11
8.066e-10
6.803e-11
7.974e-10
6.154e-11
7.891e-10
5.559e-11
7.816e-10
5.016e-11
7.747e-10
4.52e-11
7.686e-10
4.068e-11
7.63e-10
3.657e-11
7.58e-10
3.284e-11
7.535e-10
2.947e-11
7.495e-10
2.642e-11
7.458e-10
2.368e-11
7.426e-10
2.123e-11
7.397e-10
1.903e-11
7.37e-10
1.709e-11
7.347e-10
1.538e-11
7.326e-10
1.39e-11
7.307e-10
1.262e-11
7.29e-10
1.154e-11
7.275e-10
1.065e-11
7.262e-10
9.95e-12
7.249e-10
9.416e-12
7.238e-10
9.042e-12
7.227e-10
8.814e-12
8.719e-12
9.441e-10
5.529e-11
9.592e-10
1.468e-10
9.781e-10
2.166e-10
9.966e-10
2.65e-10
1.012e-09
2.945e-10
1.024e-09
3.085e-10
1.03e-09
3.106e-10
1.033e-09
3.038e-10
1.032e-09
2.908e-10
1.027e-09
2.737e-10
1.021e-09
2.541e-10
1.013e-09
2.331e-10
1.004e-09
2.116e-10
9.948e-10
1.901e-10
9.857e-10
1.69e-10
9.77e-10
1.485e-10
9.691e-10
1.287e-10
9.62e-10
1.096e-10
9.561e-10
9.13e-11
9.513e-10
7.364e-11
9.479e-10
5.656e-11
9.459e-10
3.997e-11
9.453e-10
2.378e-11
9.462e-10
7.864e-12
9.487e-10
-7.876e-12
9.529e-10
-2.355e-11
9.587e-10
-3.927e-11
9.662e-10
-5.513e-11
9.756e-10
-7.124e-11
9.868e-10
-8.768e-11
9.999e-10
-1.045e-10
1.015e-09
-1.219e-10
1.032e-09
-1.398e-10
1.052e-09
-1.582e-10
1.073e-09
-1.773e-10
1.097e-09
-1.97e-10
1.123e-09
-2.173e-10
1.152e-09
-2.382e-10
1.183e-09
-2.595e-10
1.217e-09
-2.812e-10
1.253e-09
-3.031e-10
1.292e-09
-3.251e-10
1.333e-09
-3.468e-10
1.377e-09
-3.68e-10
1.423e-09
-3.883e-10
1.472e-09
-4.074e-10
1.523e-09
-4.248e-10
1.575e-09
-4.399e-10
1.629e-09
-4.524e-10
1.684e-09
-4.615e-10
1.74e-09
-4.667e-10
1.796e-09
-4.676e-10
1.852e-09
-4.634e-10
1.906e-09
-4.538e-10
1.959e-09
-4.384e-10
2.009e-09
-4.168e-10
2.056e-09
-3.887e-10
2.099e-09
-3.543e-10
2.138e-09
-3.134e-10
2.17e-09
-2.665e-10
2.197e-09
-2.14e-10
2.216e-09
-1.567e-10
2.228e-09
-9.568e-11
2.232e-09
-3.253e-11
2.228e-09
3.096e-11
2.216e-09
9.296e-11
2.197e-09
1.519e-10
2.172e-09
2.066e-10
2.141e-09
2.564e-10
2.104e-09
3.009e-10
2.064e-09
3.397e-10
2.019e-09
3.728e-10
1.972e-09
4.002e-10
1.922e-09
4.22e-10
1.87e-09
4.383e-10
1.816e-09
4.494e-10
1.762e-09
4.556e-10
1.707e-09
4.572e-10
1.653e-09
4.547e-10
1.6e-09
4.485e-10
1.547e-09
4.39e-10
1.496e-09
4.268e-10
1.446e-09
4.124e-10
1.399e-09
3.961e-10
1.353e-09
3.785e-10
1.31e-09
3.598e-10
1.269e-09
3.406e-10
1.23e-09
3.211e-10
1.194e-09
3.015e-10
1.159e-09
2.822e-10
1.127e-09
2.632e-10
1.098e-09
2.448e-10
1.07e-09
2.27e-10
1.044e-09
2.1e-10
1.02e-09
1.937e-10
9.983e-10
1.783e-10
9.78e-10
1.638e-10
9.594e-10
1.502e-10
9.423e-10
1.375e-10
9.266e-10
1.256e-10
9.122e-10
1.145e-10
8.991e-10
1.042e-10
8.871e-10
9.476e-11
8.762e-10
8.601e-11
8.663e-10
7.796e-11
8.572e-10
7.056e-11
8.49e-10
6.379e-11
8.416e-10
5.758e-11
8.349e-10
5.192e-11
8.288e-10
4.675e-11
8.233e-10
4.206e-11
8.184e-10
3.779e-11
8.139e-10
3.393e-11
8.099e-10
3.043e-11
8.063e-10
2.728e-11
8.031e-10
2.446e-11
8.002e-10
2.193e-11
7.976e-10
1.969e-11
7.953e-10
1.77e-11
7.932e-10
1.597e-11
7.913e-10
1.447e-11
7.897e-10
1.32e-11
7.882e-10
1.213e-11
7.869e-10
1.128e-11
7.857e-10
1.061e-11
7.846e-10
1.014e-11
7.836e-10
9.833e-12
9.7e-12
9.431e-10
4.968e-11
9.565e-10
1.333e-10
9.74e-10
1.991e-10
9.924e-10
2.467e-10
1.009e-09
2.778e-10
1.023e-09
2.948e-10
1.033e-09
3.004e-10
1.039e-09
2.973e-10
1.043e-09
2.877e-10
1.043e-09
2.735e-10
1.041e-09
2.562e-10
1.037e-09
2.369e-10
1.032e-09
2.166e-10
1.026e-09
1.958e-10
1.02e-09
1.75e-10
1.014e-09
1.544e-10
1.009e-09
1.343e-10
1.004e-09
1.146e-10
9.995e-10
9.55e-11
9.962e-10
7.69e-11
9.94e-10
5.877e-11
9.929e-10
4.103e-11
9.931e-10
2.359e-11
9.946e-10
6.355e-12
9.975e-10
-1.077e-11
1.002e-09
-2.791e-11
1.008e-09
-4.515e-11
1.015e-09
-6.259e-11
1.024e-09
-8.035e-11
1.035e-09
-9.85e-11
1.048e-09
-1.171e-10
1.062e-09
-1.363e-10
1.079e-09
-1.561e-10
1.097e-09
-1.766e-10
1.117e-09
-1.978e-10
1.14e-09
-2.197e-10
1.165e-09
-2.422e-10
1.192e-09
-2.654e-10
1.222e-09
-2.891e-10
1.254e-09
-3.132e-10
1.288e-09
-3.376e-10
1.325e-09
-3.62e-10
1.364e-09
-3.861e-10
1.406e-09
-4.097e-10
1.45e-09
-4.324e-10
1.496e-09
-4.537e-10
1.545e-09
-4.73e-10
1.595e-09
-4.899e-10
1.646e-09
-5.038e-10
1.699e-09
-5.14e-10
1.752e-09
-5.199e-10
1.805e-09
-5.209e-10
1.858e-09
-5.163e-10
1.91e-09
-5.057e-10
1.96e-09