/*--------------------------------*- C++ -*----------------------------------*\
  =========                 |
  \\      /  F ield         | OpenFOAM: The Open Source CFD Toolbox
   \\    /   O peration     | Website:  https://openfoam.org
    \\  /    A nd           | Version:  7
     \\/     M anipulation  |
\*---------------------------------------------------------------------------*/
FoamFile
{
    version     2.0;
    format      ascii;
    class       volVectorField;
    location    "539.999473411039162";
    object      U;
}
// * * * * * * * * * * * * * * * * * * * * * * * * * * * * * * * * * * * * * //

dimensions      [0 1 -1 0 0 0 0];

internalField   nonuniform List<vector> 
4096
(
(0.001039 0.0001611 0)
(0.0007463 0.0001314 0)
(0.0005302 8.474e-05 0)
(0.0003918 5.358e-05 0)
(0.0003036 3.465e-05 0)
(0.0002457 2.326e-05 0)
(0.0002061 1.63e-05 0)
(0.0001779 1.191e-05 0)
(0.000157 9.022e-06 0)
(0.0001409 7.028e-06 0)
(0.0001283 5.596e-06 0)
(0.0001182 4.527e-06 0)
(0.0001099 3.706e-06 0)
(0.0001032 3.057e-06 0)
(9.758e-05 2.533e-06 0)
(9.295e-05 2.102e-06 0)
(8.91e-05 1.74e-06 0)
(8.593e-05 1.431e-06 0)
(8.334e-05 1.163e-06 0)
(8.125e-05 9.272e-07 0)
(7.961e-05 7.163e-07 0)
(7.836e-05 5.247e-07 0)
(7.749e-05 3.478e-07 0)
(7.696e-05 1.821e-07 0)
(7.676e-05 2.425e-08 0)
(7.686e-05 -1.283e-07 0)
(7.727e-05 -2.778e-07 0)
(7.797e-05 -4.264e-07 0)
(7.897e-05 -5.756e-07 0)
(8.028e-05 -7.272e-07 0)
(8.188e-05 -8.825e-07 0)
(8.381e-05 -1.043e-06 0)
(8.606e-05 -1.209e-06 0)
(8.865e-05 -1.381e-06 0)
(9.159e-05 -1.561e-06 0)
(9.49e-05 -1.749e-06 0)
(9.86e-05 -1.945e-06 0)
(0.0001027 -2.148e-06 0)
(0.0001072 -2.358e-06 0)
(0.0001121 -2.575e-06 0)
(0.0001175 -2.797e-06 0)
(0.0001233 -3.021e-06 0)
(0.0001296 -3.247e-06 0)
(0.0001363 -3.47e-06 0)
(0.0001435 -3.687e-06 0)
(0.000151 -3.895e-06 0)
(0.000159 -4.087e-06 0)
(0.0001674 -4.259e-06 0)
(0.000176 -4.405e-06 0)
(0.000185 -4.519e-06 0)
(0.0001941 -4.593e-06 0)
(0.0002033 -4.623e-06 0)
(0.0002125 -4.6e-06 0)
(0.0002216 -4.52e-06 0)
(0.0002305 -4.377e-06 0)
(0.0002391 -4.168e-06 0)
(0.0002471 -3.89e-06 0)
(0.0002546 -3.543e-06 0)
(0.0002612 -3.128e-06 0)
(0.000267 -2.65e-06 0)
(0.0002718 -2.116e-06 0)
(0.0002754 -1.536e-06 0)
(0.0002779 -9.214e-07 0)
(0.0002791 -2.878e-07 0)
(0.000279 3.491e-07 0)
(0.0002777 9.733e-07 0)
(0.0002752 1.57e-06 0)
(0.0002715 2.126e-06 0)
(0.0002667 2.633e-06 0)
(0.000261 3.082e-06 0)
(0.0002545 3.469e-06 0)
(0.0002472 3.792e-06 0)
(0.0002393 4.052e-06 0)
(0.000231 4.249e-06 0)
(0.0002224 4.386e-06 0)
(0.0002136 4.468e-06 0)
(0.0002046 4.498e-06 0)
(0.0001956 4.482e-06 0)
(0.0001867 4.424e-06 0)
(0.000178 4.33e-06 0)
(0.0001694 4.206e-06 0)
(0.0001612 4.057e-06 0)
(0.0001532 3.888e-06 0)
(0.0001456 3.704e-06 0)
(0.0001384 3.51e-06 0)
(0.0001316 3.31e-06 0)
(0.0001252 3.106e-06 0)
(0.0001192 2.903e-06 0)
(0.0001135 2.703e-06 0)
(0.0001083 2.507e-06 0)
(0.0001035 2.317e-06 0)
(9.906e-05 2.135e-06 0)
(9.497e-05 1.962e-06 0)
(9.121e-05 1.798e-06 0)
(8.776e-05 1.644e-06 0)
(8.462e-05 1.499e-06 0)
(8.176e-05 1.364e-06 0)
(7.916e-05 1.239e-06 0)
(7.68e-05 1.122e-06 0)
(7.466e-05 1.015e-06 0)
(7.273e-05 9.169e-07 0)
(7.098e-05 8.265e-07 0)
(6.941e-05 7.439e-07 0)
(6.8e-05 6.684e-07 0)
(6.673e-05 5.996e-07 0)
(6.559e-05 5.371e-07 0)
(6.458e-05 4.804e-07 0)
(6.367e-05 4.291e-07 0)
(6.286e-05 3.826e-07 0)
(6.213e-05 3.408e-07 0)
(6.149e-05 3.031e-07 0)
(6.092e-05 2.693e-07 0)
(6.041e-05 2.391e-07 0)
(5.996e-05 2.121e-07 0)
(5.956e-05 1.883e-07 0)
(5.92e-05 1.674e-07 0)
(5.888e-05 1.493e-07 0)
(5.86e-05 1.339e-07 0)
(5.835e-05 1.212e-07 0)
(5.811e-05 1.114e-07 0)
(5.79e-05 1.046e-07 0)
(5.769e-05 1.014e-07 0)
(5.749e-05 1.027e-07 0)
(5.727e-05 1.101e-07 0)
(5.704e-05 1.269e-07 0)
(5.675e-05 1.583e-07 0)
(5.638e-05 2.103e-07 0)
(5.59e-05 2.733e-07 0)
(0.001209 0.0003128 0)
(0.001154 0.0003282 0)
(0.00101 0.000248 0)
(0.0008613 0.000177 0)
(0.0007345 0.0001262 0)
(0.0006328 9.136e-05 0)
(0.0005528 6.778e-05 0)
(0.0004899 5.161e-05 0)
(0.0004399 4.023e-05 0)
(0.0003998 3.199e-05 0)
(0.0003672 2.584e-05 0)
(0.0003405 2.113e-05 0)
(0.0003184 1.744e-05 0)
(0.0003 1.447e-05 0)
(0.0002847 1.205e-05 0)
(0.0002718 1.004e-05 0)
(0.0002612 8.334e-06 0)
(0.0002523 6.872e-06 0)
(0.000245 5.598e-06 0)
(0.0002391 4.471e-06 0)
(0.0002345 3.46e-06 0)
(0.000231 2.539e-06 0)
(0.0002285 1.688e-06 0)
(0.000227 8.881e-07 0)
(0.0002264 1.262e-07 0)
(0.0002266 -6.104e-07 0)
(0.0002278 -1.332e-06 0)
(0.0002297 -2.049e-06 0)
(0.0002325 -2.768e-06 0)
(0.0002362 -3.498e-06 0)
(0.0002407 -4.243e-06 0)
(0.0002461 -5.011e-06 0)
(0.0002524 -5.805e-06 0)
(0.0002597 -6.629e-06 0)
(0.0002679 -7.485e-06 0)
(0.0002772 -8.377e-06 0)
(0.0002875 -9.303e-06 0)
(0.0002988 -1.026e-05 0)
(0.0003113 -1.125e-05 0)
(0.000325 -1.227e-05 0)
(0.0003398 -1.331e-05 0)
(0.0003559 -1.436e-05 0)
(0.0003731 -1.54e-05 0)
(0.0003915 -1.644e-05 0)
(0.000411 -1.744e-05 0)
(0.0004317 -1.839e-05 0)
(0.0004534 -1.927e-05 0)
(0.000476 -2.005e-05 0)
(0.0004994 -2.07e-05 0)
(0.0005235 -2.12e-05 0)
(0.000548 -2.152e-05 0)
(0.0005727 -2.162e-05 0)
(0.0005973 -2.149e-05 0)
(0.0006217 -2.108e-05 0)
(0.0006454 -2.039e-05 0)
(0.000668 -1.939e-05 0)
(0.0006894 -1.808e-05 0)
(0.0007091 -1.645e-05 0)
(0.0007267 -1.452e-05 0)
(0.000742 -1.23e-05 0)
(0.0007545 -9.819e-06 0)
(0.0007642 -7.133e-06 0)
(0.0007707 -4.295e-06 0)
(0.0007739 -1.37e-06 0)
(0.0007739 1.571e-06 0)
(0.0007705 4.457e-06 0)
(0.0007639 7.22e-06 0)
(0.0007543 9.804e-06 0)
(0.0007418 1.216e-05 0)
(0.0007268 1.426e-05 0)
(0.0007096 1.608e-05 0)
(0.0006904 1.761e-05 0)
(0.0006696 1.885e-05 0)
(0.0006476 1.98e-05 0)
(0.0006246 2.047e-05 0)
(0.0006009 2.089e-05 0)
(0.0005769 2.106e-05 0)
(0.0005528 2.102e-05 0)
(0.0005288 2.078e-05 0)
(0.0005051 2.038e-05 0)
(0.000482 1.983e-05 0)
(0.0004595 1.916e-05 0)
(0.0004379 1.839e-05 0)
(0.0004171 1.755e-05 0)
(0.0003973 1.666e-05 0)
(0.0003786 1.574e-05 0)
(0.0003609 1.479e-05 0)
(0.0003443 1.385e-05 0)
(0.0003287 1.291e-05 0)
(0.0003142 1.2e-05 0)
(0.0003008 1.111e-05 0)
(0.0002883 1.025e-05 0)
(0.0002768 9.435e-06 0)
(0.0002663 8.66e-06 0)
(0.0002565 7.928e-06 0)
(0.0002477 7.241e-06 0)
(0.0002395 6.599e-06 0)
(0.0002322 6.002e-06 0)
(0.0002254 5.448e-06 0)
(0.0002193 4.935e-06 0)
(0.0002138 4.463e-06 0)
(0.0002088 4.03e-06 0)
(0.0002043 3.632e-06 0)
(0.0002002 3.269e-06 0)
(0.0001965 2.937e-06 0)
(0.0001932 2.635e-06 0)
(0.0001902 2.361e-06 0)
(0.0001876 2.112e-06 0)
(0.0001852 1.887e-06 0)
(0.0001831 1.684e-06 0)
(0.0001812 1.5e-06 0)
(0.0001795 1.336e-06 0)
(0.000178 1.188e-06 0)
(0.0001767 1.057e-06 0)
(0.0001755 9.402e-07 0)
(0.0001744 8.377e-07 0)
(0.0001734 7.486e-07 0)
(0.0001726 6.727e-07 0)
(0.0001718 6.099e-07 0)
(0.0001711 5.604e-07 0)
(0.0001705 5.252e-07 0)
(0.0001698 5.058e-07 0)
(0.0001692 5.05e-07 0)
(0.0001686 5.272e-07 0)
(0.000168 5.798e-07 0)
(0.0001673 6.727e-07 0)
(0.0001666 8.112e-07 0)
(0.0001658 9.559e-07 0)
(0.001226 0.0002775 0)
(0.001243 0.0004027 0)
(0.001194 0.0003664 0)
(0.001102 0.0002981 0)
(0.0009999 0.0002343 0)
(0.000902 0.0001828 0)
(0.0008149 0.0001434 0)
(0.0007401 0.0001138 0)
(0.0006767 9.138e-05 0)
(0.0006234 7.428e-05 0)
(0.0005785 6.1e-05 0)
(0.0005407 5.051e-05 0)
(0.0005088 4.207e-05 0)
(0.0004818 3.518e-05 0)
(0.0004591 2.947e-05 0)
(0.0004398 2.466e-05 0)
(0.0004237 2.055e-05 0)
(0.0004102 1.7e-05 0)
(0.0003991 1.388e-05 0)
(0.00039 1.111e-05 0)
(0.0003829 8.611e-06 0)
(0.0003775 6.326e-06 0)
(0.0003737 4.206e-06 0)
(0.0003713 2.212e-06 0)
(0.0003704 3.08e-07 0)
(0.0003709 -1.534e-06 0)
(0.0003727 -3.34e-06 0)
(0.0003758 -5.133e-06 0)
(0.0003802 -6.931e-06 0)
(0.000386 -8.753e-06 0)
(0.0003931 -1.061e-05 0)
(0.0004016 -1.253e-05 0)
(0.0004115 -1.45e-05 0)
(0.0004228 -1.654e-05 0)
(0.0004357 -1.867e-05 0)
(0.0004501 -2.087e-05 0)
(0.0004662 -2.315e-05 0)
(0.0004839 -2.552e-05 0)
(0.0005034 -2.795e-05 0)
(0.0005246 -3.044e-05 0)
(0.0005476 -3.297e-05 0)
(0.0005724 -3.553e-05 0)
(0.000599 -3.807e-05 0)
(0.0006274 -4.057e-05 0)
(0.0006575 -4.299e-05 0)
(0.0006893 -4.528e-05 0)
(0.0007226 -4.738e-05 0)
(0.0007573 -4.923e-05 0)
(0.0007932 -5.078e-05 0)
(0.0008299 -5.194e-05 0)
(0.0008673 -5.265e-05 0)
(0.000905 -5.285e-05 0)
(0.0009425 -5.246e-05 0)
(0.0009795 -5.142e-05 0)
(0.001015 -4.969e-05 0)
(0.00105 -4.722e-05 0)
(0.001082 -4.399e-05 0)
(0.001112 -4e-05 0)
(0.001139 -3.528e-05 0)
(0.001162 -2.988e-05 0)
(0.001181 -2.387e-05 0)
(0.001196 -1.736e-05 0)
(0.001205 -1.049e-05 0)
(0.00121 -3.406e-06 0)
(0.00121 3.714e-06 0)
(0.001205 1.071e-05 0)
(0.001196 1.741e-05 0)
(0.001181 2.369e-05 0)
(0.001162 2.943e-05 0)
(0.00114 3.457e-05 0)
(0.001114 3.903e-05 0)
(0.001085 4.28e-05 0)
(0.001053 4.587e-05 0)
(0.00102 4.824e-05 0)
(0.000985 4.995e-05 0)
(0.0009491 5.103e-05 0)
(0.0009125 5.153e-05 0)
(0.0008756 5.15e-05 0)
(0.000839 5.099e-05 0)
(0.0008027 5.006e-05 0)
(0.0007672 4.877e-05 0)
(0.0007327 4.719e-05 0)
(0.0006994 4.537e-05 0)
(0.0006674 4.336e-05 0)
(0.0006368 4.121e-05 0)
(0.0006077 3.898e-05 0)
(0.0005803 3.67e-05 0)
(0.0005545 3.44e-05 0)
(0.0005302 3.212e-05 0)
(0.0005076 2.988e-05 0)
(0.0004866 2.77e-05 0)
(0.0004671 2.561e-05 0)
(0.0004491 2.36e-05 0)
(0.0004325 2.169e-05 0)
(0.0004172 1.988e-05 0)
(0.0004032 1.818e-05 0)
(0.0003904 1.659e-05 0)
(0.0003787 1.511e-05 0)
(0.000368 1.373e-05 0)
(0.0003583 1.246e-05 0)
(0.0003495 1.128e-05 0)
(0.0003415 1.02e-05 0)
(0.0003343 9.204e-06 0)
(0.0003278 8.294e-06 0)
(0.0003219 7.463e-06 0)
(0.0003166 6.705e-06 0)
(0.0003119 6.016e-06 0)
(0.0003076 5.39e-06 0)
(0.0003037 4.823e-06 0)
(0.0003003 4.31e-06 0)
(0.0002972 3.847e-06 0)
(0.0002945 3.431e-06 0)
(0.000292 3.057e-06 0)
(0.0002898 2.724e-06 0)
(0.0002879 2.428e-06 0)
(0.0002861 2.167e-06 0)
(0.0002846 1.939e-06 0)
(0.0002831 1.745e-06 0)
(0.0002819 1.582e-06 0)
(0.0002807 1.452e-06 0)
(0.0002796 1.356e-06 0)
(0.0002786 1.296e-06 0)
(0.0002777 1.276e-06 0)
(0.0002767 1.301e-06 0)
(0.0002758 1.378e-06 0)
(0.0002748 1.512e-06 0)
(0.0002739 1.691e-06 0)
(0.0002729 1.849e-06 0)
(0.001224 0.0002275 0)
(0.00126 0.0004003 0)
(0.001258 0.0004192 0)
(0.001216 0.0003787 0)
(0.00115 0.0003226 0)
(0.001074 0.0002681 0)
(0.0009984 0.0002209 0)
(0.0009274 0.000182 0)
(0.0008634 0.0001506 0)
(0.0008067 0.0001252 0)
(0.0007571 0.0001046 0)
(0.000714 8.778e-05 0)
(0.0006768 7.391e-05 0)
(0.0006448 6.234e-05 0)
(0.0006173 5.257e-05 0)
(0.0005939 4.424e-05 0)
(0.000574 3.703e-05 0)
(0.0005572 3.074e-05 0)
(0.0005433 2.517e-05 0)
(0.000532 2.019e-05 0)
(0.000523 1.566e-05 0)
(0.0005162 1.151e-05 0)
(0.0005114 7.635e-06 0)
(0.0005085 3.98e-06 0)
(0.0005075 4.835e-07 0)
(0.0005082 -2.906e-06 0)
(0.0005107 -6.234e-06 0)
(0.0005149 -9.538e-06 0)
(0.0005208 -1.285e-05 0)
(0.0005284 -1.621e-05 0)
(0.0005378 -1.964e-05 0)
(0.0005489 -2.315e-05 0)
(0.0005619 -2.678e-05 0)
(0.0005769 -3.053e-05 0)
(0.0005937 -3.442e-05 0)
(0.0006126 -3.845e-05 0)
(0.0006336 -4.262e-05 0)
(0.0006567 -4.692e-05 0)
(0.0006821 -5.134e-05 0)
(0.0007097 -5.586e-05 0)
(0.0007396 -6.045e-05 0)
(0.0007718 -6.507e-05 0)
(0.0008063 -6.966e-05 0)
(0.0008431 -7.416e-05 0)
(0.000882 -7.85e-05 0)
(0.000923 -8.259e-05 0)
(0.000966 -8.633e-05 0)
(0.001011 -8.962e-05 0)
(0.001057 -9.234e-05 0)
(0.001104 -9.436e-05 0)
(0.001152 -9.558e-05 0)
(0.0012 -9.585e-05 0)
(0.001248 -9.506e-05 0)
(0.001296 -9.312e-05 0)
(0.001342 -8.992e-05 0)
(0.001386 -8.54e-05 0)
(0.001427 -7.953e-05 0)
(0.001465 -7.23e-05 0)
(0.001499 -6.376e-05 0)
(0.001529 -5.4e-05 0)
(0.001553 -4.316e-05 0)
(0.001572 -3.142e-05 0)
(0.001584 -1.904e-05 0)
(0.001591 -6.279e-06 0)
(0.001591 6.553e-06 0)
(0.001585 1.916e-05 0)
(0.001572 3.125e-05 0)
(0.001554 4.26e-05 0)
(0.00153 5.299e-05 0)
(0.001501 6.229e-05 0)
(0.001468 7.041e-05 0)
(0.001431 7.728e-05 0)
(0.001391 8.29e-05 0)
(0.001349 8.728e-05 0)
(0.001304 9.047e-05 0)
(0.001258 9.252e-05 0)
(0.001211 9.352e-05 0)
(0.001164 9.356e-05 0)
(0.001117 9.273e-05 0)
(0.00107 9.115e-05 0)
(0.001024 8.89e-05 0)
(0.0009798 8.612e-05 0)
(0.0009367 8.288e-05 0)
(0.0008953 7.93e-05 0)
(0.0008557 7.547e-05 0)
(0.000818 7.146e-05 0)
(0.0007823 6.735e-05 0)
(0.0007487 6.321e-05 0)
(0.0007171 5.909e-05 0)
(0.0006876 5.504e-05 0)
(0.00066 5.109e-05 0)
(0.0006345 4.727e-05 0)
(0.0006108 4.361e-05 0)
(0.000589 4.013e-05 0)
(0.0005689 3.683e-05 0)
(0.0005504 3.372e-05 0)
(0.0005334 3.081e-05 0)
(0.000518 2.809e-05 0)
(0.0005038 2.556e-05 0)
(0.0004909 2.321e-05 0)
(0.0004792 2.104e-05 0)
(0.0004686 1.905e-05 0)
(0.000459 1.721e-05 0)
(0.0004502 1.553e-05 0)
(0.0004424 1.399e-05 0)
(0.0004353 1.258e-05 0)
(0.0004289 1.13e-05 0)
(0.0004231 1.014e-05 0)
(0.0004179 9.086e-06 0)
(0.0004133 8.13e-06 0)
(0.0004091 7.267e-06 0)
(0.0004054 6.49e-06 0)
(0.000402 5.792e-06 0)
(0.0003991 5.167e-06 0)
(0.0003964 4.612e-06 0)
(0.000394 4.121e-06 0)
(0.0003919 3.692e-06 0)
(0.0003899 3.323e-06 0)
(0.0003882 3.012e-06 0)
(0.0003866 2.758e-06 0)
(0.0003852 2.564e-06 0)
(0.0003838 2.431e-06 0)
(0.0003826 2.363e-06 0)
(0.0003814 2.362e-06 0)
(0.0003802 2.43e-06 0)
(0.000379 2.565e-06 0)
(0.0003779 2.739e-06 0)
(0.0003768 2.877e-06 0)
(0.001219 0.0001847 0)
(0.001255 0.0003712 0)
(0.001275 0.0004299 0)
(0.001265 0.0004206 0)
(0.00123 0.0003822 0)
(0.001179 0.0003347 0)
(0.001121 0.0002878 0)
(0.001062 0.0002453 0)
(0.001005 0.0002085 0)
(0.0009518 0.0001771 0)
(0.0009034 0.0001506 0)
(0.00086 0.0001282 0)
(0.0008215 0.0001092 0)
(0.0007876 9.294e-05 0)
(0.0007581 7.897e-05 0)
(0.0007325 6.685e-05 0)
(0.0007106 5.624e-05 0)
(0.000692 4.687e-05 0)
(0.0006765 3.849e-05 0)
(0.0006638 3.092e-05 0)
(0.0006537 2.401e-05 0)
(0.000646 1.762e-05 0)
(0.0006407 1.164e-05 0)
(0.0006376 5.967e-06 0)
(0.0006366 5.24e-07 0)
(0.0006377 -4.766e-06 0)
(0.0006408 -9.967e-06 0)
(0.0006459 -1.514e-05 0)
(0.0006531 -2.033e-05 0)
(0.0006624 -2.559e-05 0)
(0.0006737 -3.095e-05 0)
(0.0006871 -3.645e-05 0)
(0.0007028 -4.212e-05 0)
(0.0007206 -4.798e-05 0)
(0.0007408 -5.404e-05 0)
(0.0007634 -6.031e-05 0)
(0.0007885 -6.68e-05 0)
(0.0008161 -7.348e-05 0)
(0.0008463 -8.034e-05 0)
(0.0008792 -8.733e-05 0)
(0.0009147 -9.443e-05 0)
(0.000953 -0.0001015 0)
(0.0009939 -0.0001086 0)
(0.001037 -0.0001155 0)
(0.001084 -0.0001222 0)
(0.001132 -0.0001284 0)
(0.001183 -0.0001341 0)
(0.001235 -0.0001391 0)
(0.00129 -0.0001433 0)
(0.001345 -0.0001463 0)
(0.001402 -0.0001481 0)
(0.001459 -0.0001484 0)
(0.001515 -0.0001471 0)
(0.001571 -0.000144 0)
(0.001625 -0.000139 0)
(0.001677 -0.000132 0)
(0.001725 -0.0001229 0)
(0.00177 -0.0001117 0)
(0.00181 -9.851e-05 0)
(0.001845 -8.345e-05 0)
(0.001873 -6.672e-05 0)
(0.001895 -4.863e-05 0)
(0.00191 -2.954e-05 0)
(0.001918 -9.868e-06 0)
(0.001918 9.919e-06 0)
(0.001911 2.936e-05 0)
(0.001896 4.802e-05 0)
(0.001875 6.553e-05 0)
(0.001847 8.159e-05 0)
(0.001814 9.599e-05 0)
(0.001775 0.0001086 0)
(0.001732 0.0001192 0)
(0.001685 0.000128 0)
(0.001635 0.0001349 0)
(0.001582 0.0001399 0)
(0.001528 0.0001432 0)
(0.001473 0.0001449 0)
(0.001417 0.0001451 0)
(0.001362 0.0001439 0)
(0.001307 0.0001416 0)
(0.001253 0.0001382 0)
(0.0012 0.000134 0)
(0.001149 0.0001291 0)
(0.0011 0.0001236 0)
(0.001053 0.0001178 0)
(0.001008 0.0001116 0)
(0.0009659 0.0001053 0)
(0.0009258 9.894e-05 0)
(0.0008881 9.259e-05 0)
(0.0008529 8.632e-05 0)
(0.00082 8.021e-05 0)
(0.0007894 7.43e-05 0)
(0.000761 6.862e-05 0)
(0.0007348 6.321e-05 0)
(0.0007106 5.807e-05 0)
(0.0006883 5.323e-05 0)
(0.0006679 4.868e-05 0)
(0.0006492 4.442e-05 0)
(0.000632 4.046e-05 0)
(0.0006164 3.679e-05 0)
(0.0006022 3.339e-05 0)
(0.0005893 3.025e-05 0)
(0.0005776 2.737e-05 0)
(0.000567 2.472e-05 0)
(0.0005573 2.229e-05 0)
(0.0005487 2.008e-05 0)
(0.0005408 1.805e-05 0)
(0.0005338 1.621e-05 0)
(0.0005274 1.454e-05 0)
(0.0005217 1.303e-05 0)
(0.0005166 1.166e-05 0)
(0.000512 1.043e-05 0)
(0.0005078 9.316e-06 0)
(0.0005041 8.321e-06 0)
(0.0005008 7.434e-06 0)
(0.0004979 6.649e-06 0)
(0.0004952 5.96e-06 0)
(0.0004928 5.364e-06 0)
(0.0004907 4.857e-06 0)
(0.0004887 4.437e-06 0)
(0.000487 4.106e-06 0)
(0.0004853 3.863e-06 0)
(0.0004838 3.71e-06 0)
(0.0004824 3.646e-06 0)
(0.000481 3.669e-06 0)
(0.0004797 3.768e-06 0)
(0.0004785 3.907e-06 0)
(0.0004773 4.017e-06 0)
(0.001214 0.000152 0)
(0.001246 0.0003352 0)
(0.001274 0.0004178 0)
(0.001282 0.0004347 0)
(0.00127 0.0004159 0)
(0.001241 0.0003804 0)
(0.001201 0.0003392 0)
(0.001156 0.000298 0)
(0.00111 0.0002596 0)
(0.001064 0.0002251 0)
(0.001021 0.0001946 0)
(0.0009802 0.000168 0)
(0.0009435 0.0001447 0)
(0.0009104 0.0001243 0)
(0.0008811 0.0001065 0)
(0.0008554 9.069e-05 0)
(0.000833 7.669e-05 0)
(0.0008139 6.415e-05 0)
(0.0007978 5.284e-05 0)
(0.0007845 4.252e-05 0)
(0.000774 3.302e-05 0)
(0.0007661 2.418e-05 0)
(0.0007606 1.586e-05 0)
(0.0007576 7.931e-06 0)
(0.0007568 2.911e-07 0)
(0.0007584 -7.156e-06 0)
(0.0007621 -1.45e-05 0)
(0.0007682 -2.18e-05 0)
(0.0007765 -2.915e-05 0)
(0.0007871 -3.659e-05 0)
(0.0008 -4.418e-05 0)
(0.0008153 -5.197e-05 0)
(0.000833 -5.999e-05 0)
(0.0008533 -6.827e-05 0)
(0.0008762 -7.682e-05 0)
(0.0009017 -8.567e-05 0)
(0.00093 -9.481e-05 0)
(0.0009612 -0.0001042 0)
(0.0009952 -0.0001138 0)
(0.001032 -0.0001237 0)
(0.001072 -0.0001336 0)
(0.001115 -0.0001436 0)
(0.001161 -0.0001534 0)
(0.00121 -0.0001631 0)
(0.001262 -0.0001724 0)
(0.001316 -0.0001811 0)
(0.001373 -0.000189 0)
(0.001432 -0.0001959 0)
(0.001492 -0.0002016 0)
(0.001555 -0.0002058 0)
(0.001618 -0.0002082 0)
(0.001681 -0.0002085 0)
(0.001744 -0.0002066 0)
(0.001806 -0.0002022 0)
(0.001867 -0.0001952 0)
(0.001924 -0.0001853 0)
(0.001979 -0.0001725 0)
(0.002029 -0.0001568 0)
(0.002074 -0.0001383 0)
(0.002112 -0.0001172 0)
(0.002144 -9.376e-05 0)
(0.002169 -6.84e-05 0)
(0.002186 -4.163e-05 0)
(0.002195 -1.405e-05 0)
(0.002195 1.37e-05 0)
(0.002187 4.096e-05 0)
(0.002171 6.713e-05 0)
(0.002147 9.169e-05 0)
(0.002116 0.0001142 0)
(0.002078 0.0001344 0)
(0.002035 0.0001521 0)
(0.001987 0.0001671 0)
(0.001935 0.0001795 0)
(0.001879 0.0001892 0)
(0.00182 0.0001964 0)
(0.00176 0.0002011 0)
(0.001698 0.0002036 0)
(0.001636 0.000204 0)
(0.001574 0.0002025 0)
(0.001513 0.0001994 0)
(0.001452 0.0001948 0)
(0.001393 0.000189 0)
(0.001336 0.0001823 0)
(0.001281 0.0001747 0)
(0.001228 0.0001665 0)
(0.001178 0.000158 0)
(0.00113 0.0001492 0)
(0.001085 0.0001403 0)
(0.001043 0.0001314 0)
(0.001003 0.0001226 0)
(0.0009656 0.000114 0)
(0.0009309 0.0001057 0)
(0.0008988 9.773e-05 0)
(0.000869 9.01e-05 0)
(0.0008415 8.285e-05 0)
(0.0008162 7.601e-05 0)
(0.000793 6.958e-05 0)
(0.0007716 6.357e-05 0)
(0.0007521 5.795e-05 0)
(0.0007343 5.274e-05 0)
(0.000718 4.791e-05 0)
(0.0007032 4.345e-05 0)
(0.0006898 3.935e-05 0)
(0.0006775 3.557e-05 0)
(0.0006665 3.211e-05 0)
(0.0006565 2.895e-05 0)
(0.0006474 2.606e-05 0)
(0.0006393 2.343e-05 0)
(0.0006319 2.104e-05 0)
(0.0006253 1.887e-05 0)
(0.0006193 1.69e-05 0)
(0.000614 1.513e-05 0)
(0.0006092 1.353e-05 0)
(0.0006049 1.21e-05 0)
(0.000601 1.082e-05 0)
(0.0005976 9.682e-06 0)
(0.0005945 8.682e-06 0)
(0.0005917 7.811e-06 0)
(0.0005892 7.064e-06 0)
(0.0005869 6.438e-06 0)
(0.0005849 5.931e-06 0)
(0.000583 5.541e-06 0)
(0.0005813 5.267e-06 0)
(0.0005797 5.105e-06 0)
(0.0005782 5.049e-06 0)
(0.0005768 5.081e-06 0)
(0.0005755 5.167e-06 0)
(0.0005742 5.242e-06 0)
(0.00121 0.0001278 0)
(0.001237 0.0003004 0)
(0.001267 0.000395 0)
(0.001285 0.0004311 0)
(0.001287 0.0004299 0)
(0.001275 0.0004076 0)
(0.001252 0.0003748 0)
(0.001221 0.000338 0)
(0.001186 0.0003011 0)
(0.001149 0.000266 0)
(0.001113 0.0002337 0)
(0.001078 0.0002043 0)
(0.001045 0.000178 0)
(0.001014 0.0001543 0)
(0.0009871 0.0001332 0)
(0.0009626 0.0001142 0)
(0.0009412 9.703e-05 0)
(0.0009226 8.149e-05 0)
(0.0009069 6.73e-05 0)
(0.0008939 5.424e-05 0)
(0.0008836 4.211e-05 0)
(0.0008759 3.074e-05 0)
(0.0008707 1.996e-05 0)
(0.000868 9.642e-06 0)
(0.0008677 -3.445e-07 0)
(0.0008697 -1.011e-05 0)
(0.0008742 -1.977e-05 0)
(0.000881 -2.94e-05 0)
(0.0008902 -3.909e-05 0)
(0.0009019 -4.892e-05 0)
(0.0009161 -5.895e-05 0)
(0.0009328 -6.923e-05 0)
(0.0009521 -7.983e-05 0)
(0.0009742 -9.076e-05 0)
(0.0009991 -0.000102 0)
(0.001027 -0.0001137 0)
(0.001057 -0.0001257 0)
(0.001091 -0.0001381 0)
(0.001128 -0.0001508 0)
(0.001168 -0.0001637 0)
(0.001211 -0.0001767 0)
(0.001258 -0.0001898 0)
(0.001307 -0.0002027 0)
(0.00136 -0.0002154 0)
(0.001416 -0.0002275 0)
(0.001474 -0.0002388 0)
(0.001535 -0.0002492 0)
(0.001599 -0.0002582 0)
(0.001664 -0.0002656 0)
(0.001731 -0.000271 0)
(0.001799 -0.000274 0)
(0.001868 -0.0002744 0)
(0.001936 -0.0002719 0)
(0.002003 -0.0002661 0)
(0.002068 -0.0002568 0)
(0.00213 -0.0002437 0)
(0.002189 -0.0002269 0)
(0.002243 -0.0002064 0)
(0.002291 -0.0001821 0)
(0.002333 -0.0001544 0)
(0.002368 -0.0001236 0)
(0.002395 -9.022e-05 0)
(0.002413 -5.5e-05 0)
(0.002422 -1.87e-05 0)
(0.002423 1.781e-05 0)
(0.002414 5.368e-05 0)
(0.002397 8.81e-05 0)
(0.002371 0.0001204 0)
(0.002337 0.00015 0)
(0.002297 0.0001765 0)
(0.00225 0.0001998 0)
(0.002198 0.0002195 0)
(0.002142 0.0002358 0)
(0.002082 0.0002487 0)
(0.002019 0.0002582 0)
(0.001954 0.0002646 0)
(0.001888 0.000268 0)
(0.001821 0.0002686 0)
(0.001754 0.0002668 0)
(0.001688 0.0002628 0)
(0.001623 0.000257 0)
(0.001559 0.0002495 0)
(0.001497 0.0002407 0)
(0.001438 0.0002309 0)
(0.001381 0.0002202 0)
(0.001326 0.0002091 0)
(0.001275 0.0001976 0)
(0.001226 0.0001859 0)
(0.00118 0.0001742 0)
(0.001137 0.0001627 0)
(0.001096 0.0001515 0)
(0.001059 0.0001405 0)
(0.001024 0.00013 0)
(0.0009912 0.00012 0)
(0.0009612 0.0001104 0)
(0.0009336 0.0001014 0)
(0.0009082 9.289e-05 0)
(0.0008849 8.492e-05 0)
(0.0008635 7.749e-05 0)
(0.000844 7.058e-05 0)
(0.0008261 6.418e-05 0)
(0.0008099 5.826e-05 0)
(0.0007951 5.28e-05 0)
(0.0007816 4.778e-05 0)
(0.0007694 4.317e-05 0)
(0.0007584 3.895e-05 0)
(0.0007484 3.51e-05 0)
(0.0007393 3.158e-05 0)
(0.0007312 2.839e-05 0)
(0.0007239 2.548e-05 0)
(0.0007172 2.285e-05 0)
(0.0007113 2.047e-05 0)
(0.000706 1.833e-05 0)
(0.0007012 1.64e-05 0)
(0.0006969 1.467e-05 0)
(0.000693 1.314e-05 0)
(0.0006896 1.178e-05 0)
(0.0006865 1.06e-05 0)
(0.0006837 9.571e-06 0)
(0.0006812 8.703e-06 0)
(0.0006789 7.985e-06 0)
(0.0006768 7.415e-06 0)
(0.000675 6.987e-06 0)
(0.0006732 6.697e-06 0)
(0.0006717 6.532e-06 0)
(0.0006702 6.475e-06 0)
(0.0006688 6.491e-06 0)
(0.0006675 6.527e-06 0)
(0.001208 0.0001096 0)
(0.00123 0.0002692 0)
(0.001259 0.0003682 0)
(0.001282 0.0004169 0)
(0.001293 0.00043 0)
(0.001293 0.00042 0)
(0.001282 0.0003964 0)
(0.001264 0.0003658 0)
(0.00124 0.0003323 0)
(0.001213 0.0002986 0)
(0.001184 0.0002661 0)
(0.001155 0.0002356 0)
(0.001128 0.0002074 0)
(0.001101 0.0001814 0)
(0.001077 0.0001577 0)
(0.001055 0.000136 0)
(0.001036 0.0001162 0)
(0.001019 9.796e-05 0)
(0.001004 8.11e-05 0)
(0.0009919 6.543e-05 0)
(0.0009824 5.075e-05 0)
(0.0009753 3.687e-05 0)
(0.0009707 2.364e-05 0)
(0.0009685 1.09e-05 0)
(0.0009688 -1.489e-06 0)
(0.0009714 -1.365e-05 0)
(0.0009764 -2.571e-05 0)
(0.0009839 -3.777e-05 0)
(0.0009939 -4.992e-05 0)
(0.001006 -6.225e-05 0)
(0.001021 -7.485e-05 0)
(0.001039 -8.778e-05 0)
(0.00106 -0.0001011 0)
(0.001083 -0.0001148 0)
(0.001109 -0.000129 0)
(0.001138 -0.0001436 0)
(0.00117 -0.0001587 0)
(0.001206 -0.0001742 0)
(0.001244 -0.0001901 0)
(0.001286 -0.0002063 0)
(0.001332 -0.0002226 0)
(0.00138 -0.0002389 0)
(0.001432 -0.0002551 0)
(0.001487 -0.0002709 0)
(0.001546 -0.000286 0)
(0.001607 -0.0003002 0)
(0.001671 -0.000313 0)
(0.001737 -0.0003243 0)
(0.001806 -0.0003334 0)
(0.001876 -0.0003401 0)
(0.001947 -0.0003439 0)
(0.002019 -0.0003444 0)
(0.00209 -0.0003412 0)
(0.00216 -0.0003339 0)
(0.002228 -0.0003223 0)
(0.002294 -0.000306 0)
(0.002355 -0.000285 0)
(0.002412 -0.0002592 0)
(0.002463 -0.0002288 0)
(0.002508 -0.0001941 0)
(0.002545 -0.0001554 0)
(0.002573 -0.0001136 0)
(0.002592 -6.933e-05 0)
(0.002602 -2.369e-05 0)
(0.002603 2.222e-05 0)
(0.002593 6.729e-05 0)
(0.002575 0.0001105 0)
(0.002548 0.000151 0)
(0.002512 0.0001881 0)
(0.00247 0.0002213 0)
(0.002421 0.0002504 0)
(0.002367 0.0002752 0)
(0.002307 0.0002957 0)
(0.002245 0.0003118 0)
(0.002179 0.0003238 0)
(0.002111 0.0003319 0)
(0.002041 0.0003363 0)
(0.001971 0.0003372 0)
(0.001901 0.0003351 0)
(0.001832 0.0003302 0)
(0.001764 0.000323 0)
(0.001697 0.0003137 0)
(0.001633 0.0003028 0)
(0.00157 0.0002906 0)
(0.00151 0.0002774 0)
(0.001453 0.0002635 0)
(0.001399 0.0002491 0)
(0.001348 0.0002345 0)
(0.001299 0.00022 0)
(0.001254 0.0002056 0)
(0.001211 0.0001915 0)
(0.001172 0.0001778 0)
(0.001135 0.0001646 0)
(0.001101 0.000152 0)
(0.001069 0.00014 0)
(0.00104 0.0001286 0)
(0.001013 0.0001179 0)
(0.0009885 0.0001079 0)
(0.0009659 9.853e-05 0)
(0.0009452 8.982e-05 0)
(0.0009262 8.173e-05 0)
(0.000909 7.425e-05 0)
(0.0008932 6.734e-05 0)
(0.0008789 6.099e-05 0)
(0.0008659 5.515e-05 0)
(0.0008541 4.981e-05 0)
(0.0008435 4.492e-05 0)
(0.0008338 4.045e-05 0)
(0.0008251 3.639e-05 0)
(0.0008172 3.269e-05 0)
(0.0008101 2.934e-05 0)
(0.0008037 2.631e-05 0)
(0.000798 2.357e-05 0)
(0.0007928 2.11e-05 0)
(0.0007882 1.889e-05 0)
(0.0007841 1.692e-05 0)
(0.0007803 1.518e-05 0)
(0.000777 1.364e-05 0)
(0.000774 1.231e-05 0)
(0.0007713 1.117e-05 0)
(0.0007689 1.021e-05 0)
(0.0007667 9.433e-06 0)
(0.0007647 8.825e-06 0)
(0.0007629 8.38e-06 0)
(0.0007613 8.085e-06 0)
(0.0007597 7.92e-06 0)
(0.0007583 7.856e-06 0)
(0.000757 7.85e-06 0)
(0.001206 9.55e-05 0)
(0.001225 0.0002419 0)
(0.001251 0.0003408 0)
(0.001276 0.0003971 0)
(0.001293 0.0004208 0)
(0.001301 0.0004212 0)
(0.0013 0.0004065 0)
(0.001292 0.0003826 0)
(0.001278 0.0003537 0)
(0.00126 0.0003227 0)
(0.001239 0.0002914 0)
(0.001217 0.000261 0)
(0.001195 0.0002319 0)
(0.001173 0.0002046 0)
(0.001153 0.0001791 0)
(0.001134 0.0001554 0)
(0.001117 0.0001334 0)
(0.001102 0.0001128 0)
(0.001089 9.361e-05 0)
(0.001079 7.556e-05 0)
(0.00107 5.85e-05 0)
(0.001064 4.226e-05 0)
(0.001061 2.666e-05 0)
(0.001059 1.155e-05 0)
(0.00106 -3.213e-06 0)
(0.001063 -1.776e-05 0)
(0.001069 -3.223e-05 0)
(0.001077 -4.674e-05 0)
(0.001087 -6.139e-05 0)
(0.0011 -7.628e-05 0)
(0.001116 -9.15e-05 0)
(0.001134 -0.0001071 0)
(0.001155 -0.0001232 0)
(0.001179 -0.0001398 0)
(0.001206 -0.000157 0)
(0.001236 -0.0001747 0)
(0.001269 -0.0001929 0)
(0.001305 -0.0002116 0)
(0.001344 -0.0002308 0)
(0.001387 -0.0002503 0)
(0.001433 -0.00027 0)
(0.001483 -0.0002897 0)
(0.001536 -0.0003092 0)
(0.001592 -0.0003282 0)
(0.001651 -0.0003464 0)
(0.001714 -0.0003635 0)
(0.001779 -0.000379 0)
(0.001847 -0.0003926 0)
(0.001917 -0.0004036 0)
(0.001989 -0.0004117 0)
(0.002061 -0.0004163 0)
(0.002135 -0.0004169 0)
(0.002208 -0.000413 0)
(0.002279 -0.0004043 0)
(0.002349 -0.0003902 0)
(0.002417 -0.0003706 0)
(0.00248 -0.0003453 0)
(0.002538 -0.0003142 0)
(0.002591 -0.0002775 0)
(0.002637 -0.0002355 0)
(0.002675 -0.0001888 0)
(0.002704 -0.000138 0)
(0.002724 -8.432e-05 0)
(0.002735 -2.888e-05 0)
(0.002735 2.689e-05 0)
(0.002725 8.159e-05 0)
(0.002706 0.0001339 0)
(0.002678 0.0001829 0)
(0.002641 0.0002277 0)
(0.002598 0.0002678 0)
(0.002547 0.0003029 0)
(0.002492 0.0003328 0)
(0.002431 0.0003575 0)
(0.002367 0.0003771 0)
(0.0023 0.0003917 0)
(0.00223 0.0004015 0)
(0.002159 0.0004069 0)
(0.002088 0.0004081 0)
(0.002016 0.0004057 0)
(0.001946 0.0003999 0)
(0.001876 0.0003913 0)
(0.001808 0.0003802 0)
(0.001742 0.0003671 0)
(0.001678 0.0003524 0)
(0.001617 0.0003365 0)
(0.001558 0.0003198 0)
(0.001503 0.0003025 0)
(0.00145 0.000285 0)
(0.001401 0.0002674 0)
(0.001355 0.00025 0)
(0.001311 0.000233 0)
(0.00127 0.0002164 0)
(0.001233 0.0002005 0)
(0.001198 0.0001852 0)
(0.001165 0.0001707 0)
(0.001135 0.000157 0)
(0.001108 0.000144 0)
(0.001082 0.0001319 0)
(0.001059 0.0001205 0)
(0.001038 0.0001099 0)
(0.001018 0.0001001 0)
(0.001 9.099e-05 0)
(0.000984 8.259e-05 0)
(0.0009692 7.486e-05 0)
(0.0009558 6.774e-05 0)
(0.0009436 6.122e-05 0)
(0.0009325 5.525e-05 0)
(0.0009224 4.98e-05 0)
(0.0009134 4.483e-05 0)
(0.0009052 4.031e-05 0)
(0.0008978 3.62e-05 0)
(0.0008912 3.248e-05 0)
(0.0008852 2.912e-05 0)
(0.0008798 2.609e-05 0)
(0.0008749 2.337e-05 0)
(0.0008706 2.094e-05 0)
(0.0008667 1.878e-05 0)
(0.0008632 1.687e-05 0)
(0.0008601 1.521e-05 0)
(0.0008573 1.377e-05 0)
(0.0008548 1.255e-05 0)
(0.0008525 1.154e-05 0)
(0.0008505 1.073e-05 0)
(0.0008486 1.012e-05 0)
(0.000847 9.672e-06 0)
(0.0008454 9.387e-06 0)
(0.000844 9.236e-06 0)
(0.0008426 9.184e-06 0)
(0.001205 8.424e-05 0)
(0.001221 0.0002183 0)
(0.001245 0.0003143 0)
(0.00127 0.0003746 0)
(0.00129 0.0004056 0)
(0.001304 0.0004145 0)
(0.00131 0.0004076 0)
(0.00131 0.0003902 0)
(0.001304 0.0003663 0)
(0.001293 0.0003388 0)
(0.00128 0.0003096 0)
(0.001265 0.0002801 0)
(0.001248 0.0002512 0)
(0.001232 0.0002233 0)
(0.001216 0.0001968 0)
(0.001201 0.0001717 0)
(0.001187 0.0001479 0)
(0.001174 0.0001255 0)
(0.001164 0.0001044 0)
(0.001155 8.425e-05 0)
(0.001148 6.506e-05 0)
(0.001143 4.664e-05 0)
(0.00114 2.883e-05 0)
(0.00114 1.149e-05 0)
(0.001141 -5.546e-06 0)
(0.001145 -2.241e-05 0)
(0.001151 -3.923e-05 0)
(0.001159 -5.613e-05 0)
(0.00117 -7.324e-05 0)
(0.001183 -9.066e-05 0)
(0.001199 -0.0001085 0)
(0.001218 -0.0001268 0)
(0.001239 -0.0001457 0)
(0.001263 -0.0001651 0)
(0.001289 -0.0001852 0)
(0.001319 -0.000206 0)
(0.001352 -0.0002274 0)
(0.001388 -0.0002494 0)
(0.001427 -0.0002718 0)
(0.00147 -0.0002947 0)
(0.001516 -0.0003178 0)
(0.001565 -0.0003409 0)
(0.001618 -0.0003637 0)
(0.001674 -0.000386 0)
(0.001733 -0.0004074 0)
(0.001796 -0.0004274 0)
(0.001861 -0.0004456 0)
(0.001929 -0.0004615 0)
(0.001998 -0.0004745 0)
(0.00207 -0.000484 0)
(0.002143 -0.0004894 0)
(0.002216 -0.0004902 0)
(0.002289 -0.0004857 0)
(0.002361 -0.0004755 0)
(0.002431 -0.0004591 0)
(0.002498 -0.0004362 0)
(0.002562 -0.0004066 0)
(0.002621 -0.0003702 0)
(0.002674 -0.0003272 0)
(0.00272 -0.0002779 0)
(0.002759 -0.0002229 0)
(0.002788 -0.0001631 0)
(0.002809 -9.963e-05 0)
(0.002819 -3.409e-05 0)
(0.002819 3.182e-05 0)
(0.002809 9.638e-05 0)
(0.002789 0.000158 0)
(0.002761 0.0002156 0)
(0.002724 0.0002681 0)
(0.00268 0.0003151 0)
(0.00263 0.0003562 0)
(0.002574 0.0003912 0)
(0.002514 0.0004201 0)
(0.002449 0.000443 0)
(0.002382 0.0004602 0)
(0.002313 0.0004718 0)
(0.002242 0.0004782 0)
(0.002171 0.0004797 0)
(0.002099 0.000477 0)
(0.002029 0.0004703 0)
(0.001959 0.0004602 0)
(0.001891 0.0004473 0)
(0.001825 0.0004321 0)
(0.001761 0.0004149 0)
(0.0017 0.0003963 0)
(0.001642 0.0003767 0)
(0.001587 0.0003565 0)
(0.001534 0.0003359 0)