/*--------------------------------*- C++ -*----------------------------------*\
  =========                 |
  \\      /  F ield         | OpenFOAM: The Open Source CFD Toolbox
   \\    /   O peration     | Website:  https://openfoam.org
    \\  /    A nd           | Version:  7
     \\/     M anipulation  |
\*---------------------------------------------------------------------------*/
FoamFile
{
    version     2.0;
    format      ascii;
    class       volScalarField;
    location    "539.999473411039162";
    object      Y.K;
}
// * * * * * * * * * * * * * * * * * * * * * * * * * * * * * * * * * * * * * //

dimensions      [0 0 0 0 0 0 0];

internalField   nonuniform List<scalar> 
4096
(
9.338e-68
-5.572e-69
1.219e-66
-7.471e-67
-1.027e-67
2.402e-67
-1.275e-67
-9.689e-68
6.282e-68
-1.386e-67
2.557e-66
-3.524e-65
5.27e-64
-7.036e-63
9.334e-62
-1.168e-60
1.414e-59
-1.699e-58
1.925e-57
-2.195e-56
2.439e-55
-2.642e-54
2.814e-53
-2.908e-52
2.947e-51
-2.792e-50
2.62e-49
-2.438e-48
2.241e-47
-2.024e-46
1.79e-45
-1.541e-44
1.286e-43
-1.035e-42
7.982e-42
-5.86e-41
4.063e-40
-2.629e-39
1.561e-38
-8.324e-38
3.604e-37
-1.33e-36
3.282e-37
3.868e-35
-4.136e-34
2.936e-33
-1.714e-32
7.58e-32
-2.665e-31
5.697e-31
2.608e-30
-1.998e-29
2.241e-28
-2.683e-28
3.765e-27
1.936e-26
5.952e-26
5.326e-25
2.631e-24
2.129e-23
1.023e-22
8.218e-22
2.684e-21
9.657e-21
1.179e-19
1.59e-18
4.854e-18
1.102e-17
2.227e-17
4.223e-17
7.669e-17
1.347e-16
2.296e-16
3.814e-16
6.182e-16
9.793e-16
1.518e-15
2.304e-15
3.43e-15
5.012e-15
7.195e-15
1.016e-14
1.411e-14
1.932e-14
2.608e-14
3.474e-14
4.57e-14
5.942e-14
7.643e-14
9.731e-14
1.227e-13
1.534e-13
1.902e-13
2.34e-13
2.858e-13
3.467e-13
4.181e-13
5.012e-13
5.976e-13
7.089e-13
8.371e-13
9.84e-13
1.152e-12
1.344e-12
1.561e-12
1.808e-12
2.087e-12
2.402e-12
2.757e-12
3.156e-12
3.603e-12
4.103e-12
4.663e-12
5.287e-12
5.982e-12
6.756e-12
7.614e-12
8.566e-12
9.621e-12
1.079e-11
1.207e-11
1.349e-11
1.504e-11
1.673e-11
1.856e-11
2.046e-11
2.231e-11
2.375e-11
2.195e-66
-1.251e-65
1.453e-65
-2.103e-66
-1.094e-65
1.007e-65
-1.586e-67
-6.151e-66
1.863e-66
-7.338e-66
1.42e-64
-1.952e-63
2.836e-62
-3.897e-61
5.082e-60
-6.347e-59
7.649e-58
-8.961e-57
1.025e-55
-1.15e-54
1.266e-53
-1.367e-52
1.446e-51
-1.489e-50
1.498e-49
-1.418e-48
1.33e-47
-1.236e-46
1.135e-45
-1.023e-44
9.024e-44
-7.75e-43
6.449e-42
-5.174e-41
3.979e-40
-2.913e-39
2.016e-38
-1.303e-37
7.751e-37
-4.152e-36
1.846e-35
-7.294e-35
6.743e-35
1.481e-33
-1.764e-32
1.326e-31
-7.962e-31
3.576e-30
-1.265e-29
3.448e-29
7.983e-29
-6.809e-28
1.017e-26
-4.271e-27
1.962e-25
9.517e-25
3.598e-24
2.6e-23
1.353e-22
9.663e-22
4.552e-21
3.129e-20
1.016e-19
2.982e-19
1.735e-18
5.032e-18
1.133e-17
2.295e-17
4.369e-17
7.95e-17
1.395e-16
2.373e-16
3.923e-16
6.318e-16
9.931e-16
1.526e-15
2.296e-15
3.385e-15
4.9e-15
6.97e-15
9.753e-15
1.344e-14
1.826e-14
2.448e-14
3.24e-14
4.24e-14
5.487e-14
7.03e-14
8.921e-14
1.122e-13
1.4e-13
1.732e-13
2.128e-13
2.598e-13
3.15e-13
3.798e-13
4.553e-13
5.431e-13
6.446e-13
7.616e-13
8.959e-13
1.05e-12
1.225e-12
1.425e-12
1.653e-12
1.91e-12
2.2e-12
2.528e-12
2.897e-12
3.311e-12
3.776e-12
4.295e-12
4.876e-12
5.523e-12
6.244e-12
7.045e-12
7.935e-12
8.921e-12
1.001e-11
1.122e-11
1.255e-11
1.402e-11
1.563e-11
1.739e-11
1.931e-11
2.136e-11
2.348e-11
2.546e-11
-5.062e-65
3.529e-64
-8.931e-64
1.218e-63
-8.726e-64
1.475e-64
3.227e-64
-2.969e-64
-2.419e-65
-3.853e-64
7.726e-63
-1.018e-61
1.465e-60
-1.993e-59
2.571e-58
-3.175e-57
3.786e-56
-4.39e-55
4.977e-54
-5.532e-53
6.04e-52
-6.473e-51
6.798e-50
-6.962e-49
6.955e-48
-6.575e-47
6.166e-46
-5.73e-45
5.253e-44
-4.73e-43
4.165e-42
-3.571e-41
2.967e-40
-2.376e-39
1.825e-38
-1.336e-37
9.256e-37
-6.001e-36
3.598e-35
-1.955e-34
9.061e-34
-3.76e-33
7.012e-33
3.671e-32
-6.267e-31
5.196e-30
-3.328e-29
1.551e-28
-5.586e-28
2.132e-27
5.717e-28
-9.323e-27
4.288e-25
3.217e-25
1.081e-23
5.071e-23
2.078e-22
1.336e-21
7.026e-21
4.404e-20
1.84e-19
9.763e-19
2.993e-18
7.206e-18
1.57e-17
3.208e-17
6.229e-17
1.158e-16
2.068e-16
3.563e-16
5.936e-16
9.585e-16
1.503e-15
2.294e-15
3.414e-15
4.964e-15
7.063e-15
9.85e-15
1.349e-14
1.816e-14
2.409e-14
3.15e-14
4.068e-14
5.193e-14
6.56e-14
8.211e-14
1.019e-13
1.255e-13
1.535e-13
1.866e-13
2.255e-13
2.71e-13
3.241e-13
3.859e-13
4.575e-13
5.403e-13
6.357e-13
7.453e-13
8.71e-13
1.015e-12
1.178e-12
1.365e-12
1.577e-12
1.816e-12
2.087e-12
2.393e-12
2.738e-12
3.125e-12
3.56e-12
4.046e-12
4.591e-12
5.199e-12
5.876e-12
6.63e-12
7.468e-12
8.399e-12
9.429e-12
1.057e-11
1.183e-11
1.322e-11
1.475e-11
1.644e-11
1.829e-11
2.032e-11
2.253e-11
2.494e-11
2.754e-11
3.041e-11
8.285e-64
-6.591e-63
2.339e-62
-5.133e-62
7.411e-62
-7.142e-62
4.237e-62
-9.109e-63
-5.219e-63
-2.218e-62
4.015e-61
-4.938e-60
6.985e-59
-9.333e-58
1.182e-56
-1.434e-55
1.681e-54
-1.918e-53
2.142e-52
-2.35e-51
2.534e-50
-2.686e-49
2.793e-48
-2.839e-47
2.815e-46
-2.658e-45
2.494e-44
-2.317e-43
2.123e-42
-1.911e-41
1.681e-40
-1.44e-39
1.196e-38
-9.581e-38
7.367e-37
-5.404e-36
3.763e-35
-2.459e-34
1.495e-33
-8.325e-33
4.078e-32
-1.847e-31
5.112e-31
-2.187e-31
-1.501e-29
1.623e-28
-1.188e-27
5.815e-27
-2.294e-26
1.141e-25
-1.101e-25
5.214e-25
1.621e-23
4.909e-23
5.866e-22
2.67e-21
1.15e-20
6.832e-20
3.074e-19
1.54e-18
4.946e-18
1.266e-17
2.925e-17
6.319e-17
1.291e-16
2.508e-16
4.655e-16
8.274e-16
1.412e-15
2.321e-15
3.68e-15
5.645e-15
8.395e-15
1.213e-14
1.708e-14
2.346e-14
3.152e-14
4.15e-14
5.366e-14
6.823e-14
8.549e-14
1.057e-13
1.293e-13
1.564e-13
1.877e-13
2.235e-13
2.643e-13
3.109e-13
3.639e-13
4.242e-13
4.928e-13
5.707e-13
6.591e-13
7.595e-13
8.735e-13
1.003e-12
1.149e-12
1.315e-12
1.502e-12
1.714e-12
1.953e-12
2.222e-12
2.525e-12
2.866e-12
3.249e-12
3.678e-12
4.159e-12
4.697e-12
5.297e-12
5.967e-12
6.713e-12
7.542e-12
8.464e-12
9.486e-12
1.062e-11
1.187e-11
1.325e-11
1.478e-11
1.646e-11
1.831e-11
2.034e-11
2.257e-11
2.501e-11
2.768e-11
3.059e-11
3.376e-11
3.724e-11
4.153e-11
-1.17e-62
1.01e-61
-4.438e-61
1.303e-60
-2.703e-60
4.112e-60
-4.633e-60
3.753e-60
-1.917e-60
-1.041e-60
1.974e-59
-2.214e-58
3.041e-57
-3.944e-56
4.85e-55
-5.718e-54
6.527e-53
-7.269e-52
7.941e-51
-8.536e-50
9.041e-49
-9.434e-48
9.682e-47
-9.737e-46
9.573e-45
-9.037e-44
8.483e-43
-7.886e-42
7.229e-41
-6.508e-40
5.729e-39
-4.913e-38
4.085e-37
-3.28e-36
2.531e-35
-1.867e-34
1.312e-33
-8.679e-33
5.385e-32
-3.093e-31
1.617e-30
-7.446e-30
2.852e-29
-8.404e-29
-3.64e-29
3.171e-27
-3.242e-26
1.746e-25
-7.466e-25
5.091e-24
-6.37e-24
5.477e-23
5.494e-22
3.481e-21
2.958e-20
1.306e-19
5.213e-19
2.559e-18
8.737e-18
2.412e-17
6.036e-17
1.409e-16
3.098e-16
6.44e-16
1.269e-15
2.376e-15
4.235e-15
7.211e-15
1.175e-14
1.84e-14
2.771e-14
4.03e-14
5.673e-14
7.748e-14
1.029e-13
1.334e-13
1.69e-13
2.098e-13
2.557e-13
3.068e-13
3.63e-13
4.243e-13
4.91e-13
5.633e-13
6.417e-13
7.268e-13
8.194e-13
9.205e-13
1.031e-12
1.153e-12
1.287e-12
1.436e-12
1.6e-12
1.784e-12
1.988e-12
2.216e-12
2.47e-12
2.755e-12
3.073e-12
3.429e-12
3.827e-12
4.272e-12
4.769e-12
5.324e-12
5.943e-12
6.633e-12
7.401e-12
8.256e-12
9.206e-12
1.026e-11
1.143e-11
1.273e-11
1.416e-11
1.574e-11
1.749e-11
1.941e-11
2.153e-11
2.386e-11
2.642e-11
2.922e-11
3.229e-11
3.564e-11
3.93e-11
4.328e-11
4.76e-11
5.23e-11
5.744e-11
6.427e-11
1.513e-61
-1.379e-60
7.023e-60
-2.536e-59
6.781e-59
-1.39e-58
2.229e-58
-2.794e-58
2.687e-58
-2.137e-58
9.022e-58
-9.06e-57
1.184e-55
-1.464e-54
1.721e-53
-1.944e-52
2.134e-51
-2.294e-50
2.428e-49
-2.537e-48
2.622e-47
-2.677e-46
2.699e-45
-2.678e-44
2.607e-43
-2.461e-42
2.314e-41
-2.154e-40
1.978e-39
-1.785e-38
1.575e-37
-1.355e-36
1.131e-35
-9.133e-35
7.099e-34
-5.287e-33
3.768e-32
-2.53e-31
1.607e-30
-9.553e-30
5.275e-29
-2.67e-28
1.186e-27
-5.328e-27
1.364e-26
-3.024e-27
-2.544e-25
3.22e-24
-1.381e-23
1.749e-22
-2.71e-23
3.259e-21
2.815e-20
1.846e-19
1.122e-18
4.524e-18
1.485e-17
4.409e-17
1.216e-16
3.137e-16
7.588e-16
1.725e-15
3.691e-15
7.444e-15
1.418e-14
2.555e-14
4.369e-14
7.11e-14
1.104e-13
1.642e-13
2.345e-13
3.227e-13
4.289e-13
5.526e-13
6.919e-13
8.443e-13
1.007e-12
1.176e-12
1.351e-12
1.527e-12
1.704e-12
1.882e-12
2.06e-12
2.24e-12
2.423e-12
2.61e-12
2.806e-12
3.011e-12
3.229e-12
3.464e-12
3.718e-12
3.996e-12
4.301e-12
4.638e-12
5.012e-12
5.426e-12
5.888e-12
6.401e-12
6.974e-12
7.611e-12
8.321e-12
9.112e-12
9.992e-12
1.097e-11
1.206e-11
1.327e-11
1.461e-11
1.609e-11
1.774e-11
1.956e-11
2.157e-11
2.379e-11
2.624e-11
2.893e-11
3.189e-11
3.514e-11
3.871e-11
4.262e-11
4.689e-11
5.156e-11
5.665e-11
6.22e-11
6.822e-11
7.475e-11
8.183e-11
8.948e-11
9.777e-11
1.093e-10
-1.844e-60
1.741e-59
-9.876e-59
4.173e-58
-1.356e-57
3.492e-57
-7.264e-57
1.227e-56
-1.649e-56
1.577e-56
2.676e-56
-3.226e-55
3.962e-54
-4.561e-53
5.012e-52
-5.326e-51
5.535e-50
-5.667e-49
5.744e-48
-5.779e-47
5.777e-46
-5.736e-45
5.65e-44
-5.509e-43
5.299e-42
-5.007e-41
4.723e-40
-4.412e-39
4.067e-38
-3.688e-37
3.274e-36
-2.839e-35
2.393e-34
-1.952e-33
1.537e-32
-1.163e-31
8.463e-31
-5.762e-30
3.752e-29
-2.296e-28
1.327e-27
-7.187e-27
3.619e-26
-1.677e-25
7.01e-25
-2.531e-24
7.384e-24
9.701e-24
2.316e-23
3.1e-21
6.453e-21
1.428e-19
1.13e-18
5.279e-18
1.996e-17
6.793e-17
2.137e-16
6.252e-16
1.705e-15
4.341e-15
1.032e-14
2.296e-14
4.783e-14
9.346e-14
1.716e-13
2.971e-13
4.861e-13
7.542e-13
1.113e-12
1.57e-12
2.121e-12
2.755e-12
3.453e-12
4.189e-12
4.936e-12
5.664e-12
6.351e-12
6.977e-12
7.546e-12
8.035e-12
8.457e-12
8.822e-12
9.14e-12
9.422e-12
9.68e-12
9.928e-12
1.018e-11
1.044e-11
1.072e-11
1.104e-11
1.14e-11
1.182e-11
1.229e-11
1.283e-11
1.345e-11
1.415e-11
1.495e-11
1.586e-11
1.688e-11
1.803e-11
1.931e-11
2.076e-11
2.237e-11
2.416e-11
2.616e-11
2.837e-11
3.083e-11
3.355e-11
3.656e-11
3.988e-11
4.354e-11
4.757e-11
5.2e-11
5.687e-11
6.221e-11
6.805e-11
7.445e-11
8.143e-11
8.904e-11
9.733e-11
1.063e-10
1.161e-10
1.267e-10
1.381e-10
1.505e-10
1.638e-10
1.781e-10
1.987e-10
2.143e-59
-2.072e-58
1.274e-57
-6.091e-57
2.316e-56
-7.18e-56
1.846e-55
-3.964e-55
7.078e-55
-1.057e-54
2.009e-54
-1.007e-53
1.063e-52
-1.092e-51
1.09e-50
-1.065e-49
1.029e-48
-9.886e-48
9.476e-47
-9.077e-46
8.692e-45
-8.32e-44
7.948e-43
-7.566e-42
7.16e-41
-6.758e-40
6.419e-39
-6.042e-38
5.608e-37
-5.135e-36
4.611e-35
-4.073e-34
3.499e-33
-2.919e-32
2.354e-31
-1.828e-30
1.374e-29
-9.473e-29
6.345e-28
-3.913e-27
2.313e-26
-1.303e-25
6.953e-25
-3.51e-24
1.672e-23
-7.435e-23
3.106e-22
-1.769e-22
8.605e-21
6.673e-20
5.788e-19
4.195e-18
2.041e-17
8.244e-17
3.021e-16
1.023e-15
3.21e-15
9.349e-15
2.527e-14
6.346e-14
1.481e-13
3.215e-13
6.504e-13
1.228e-12
2.169e-12
3.595e-12
5.611e-12
8.279e-12
1.159e-11
1.546e-11
1.972e-11
2.414e-11
2.849e-11
3.25e-11
3.6e-11
3.88e-11
4.087e-11
4.221e-11
4.311e-11
4.311e-11
4.287e-11
4.233e-11
4.156e-11
4.067e-11
3.973e-11
3.882e-11
3.8e-11
3.73e-11
3.675e-11
3.637e-11
3.616e-11
3.621e-11
3.642e-11
3.685e-11
3.748e-11
3.838e-11
3.952e-11
4.092e-11
4.258e-11
4.453e-11
4.679e-11
4.937e-11
5.23e-11
5.561e-11
5.931e-11
6.346e-11
6.807e-11
7.319e-11
7.886e-11
8.512e-11
9.203e-11
9.962e-11
1.08e-10
1.171e-10
1.271e-10
1.381e-10
1.5e-10
1.63e-10
1.772e-10
1.925e-10
2.092e-10
2.272e-10
2.466e-10
2.676e-10
2.901e-10
3.144e-10
3.401e-10
3.782e-10
-2.38e-58
2.336e-57
-1.529e-56
8.077e-56
-3.5e-55
1.269e-54
-3.911e-54
1.03e-53
-2.294e-53
4.095e-53
-2.739e-53
-1.806e-52
1.938e-51
-1.666e-50
1.461e-49
-1.288e-48
1.138e-47
-1.012e-46
9.06e-46
-8.158e-45
7.386e-44
-6.721e-43
6.127e-42
-5.589e-41
5.104e-40
-4.641e-39
4.239e-38
-3.865e-37
3.473e-36
-3.118e-35
2.762e-34
-2.466e-33
2.146e-32
-1.815e-31
1.481e-30
-1.164e-29
8.811e-29
-6.335e-28
4.422e-27
-2.921e-26
1.859e-25
-1.128e-24
6.397e-24
-3.496e-23
1.774e-22
-8.074e-22
2.467e-21
2.886e-20
3.223e-19
2.771e-18
1.566e-17
7.412e-17
3.193e-16
1.27e-15
4.665e-15
1.584e-14
4.968e-14
1.439e-13
3.849e-13
9.51e-13
2.172e-12
4.592e-12
8.996e-12
1.636e-11
2.77e-11
4.384e-11
6.51e-11
9.108e-11
1.206e-10
1.518e-10
1.826e-10
2.103e-10
2.337e-10
2.499e-10
2.602e-10
2.627e-10
2.601e-10
2.535e-10
2.434e-10
2.309e-10
2.171e-10
2.029e-10
1.889e-10
1.757e-10
1.635e-10
1.526e-10
1.429e-10
1.345e-10
1.273e-10
1.213e-10
1.164e-10
1.126e-10
1.098e-10
1.079e-10
1.065e-10
1.065e-10
1.07e-10
1.082e-10
1.102e-10
1.13e-10
1.165e-10
1.208e-10
1.259e-10
1.318e-10
1.386e-10
1.464e-10
1.551e-10
1.648e-10
1.756e-10
1.877e-10
2.01e-10
2.156e-10
2.317e-10
2.493e-10
2.686e-10
2.896e-10
3.126e-10
3.375e-10
3.646e-10
3.939e-10
4.257e-10
4.599e-10
4.968e-10
5.364e-10
5.79e-10
6.246e-10
6.726e-10
7.448e-10
2.513e-57
-2.491e-56
1.712e-55
-9.82e-55
4.756e-54
-1.977e-53
7.143e-53
-2.262e-52
6.278e-52
-1.51e-51
3.086e-51
-5.476e-51
1.616e-50
-8.614e-50
7.742e-49
-6.521e-48
5.176e-47
-4.244e-46
3.547e-45
-2.984e-44
2.539e-43
-2.212e-42
1.889e-41
-1.583e-40
1.31e-39
-9.484e-39
6.748e-38
-4.697e-37
1.025e-36
5.836e-36
-1.367e-34
1.292e-33
-1.135e-32
1.03e-31
-7.578e-31
4.98e-30
-1.93e-29
-1.485e-29
1.248e-27
-1.734e-26
1.663e-25
-1.448e-24
1.012e-23
-7.222e-23
5.182e-22
-1.128e-21
1.052e-19
1.207e-18
8.141e-18
4.59e-17
2.356e-16
1.115e-15
4.868e-15
1.959e-14
7.253e-14
2.47e-13
7.727e-13
2.221e-12
5.863e-12
1.422e-11
3.171e-11
6.507e-11
1.231e-10
2.149e-10
3.476e-10
5.234e-10
7.37e-10
9.752e-10
1.219e-09
1.444e-09
1.639e-09
1.768e-09
1.851e-09
1.843e-09
1.802e-09
1.72e-09
1.608e-09
1.477e-09
1.339e-09
1.201e-09
1.069e-09
9.485e-10
8.4e-10
7.446e-10
6.619e-10
5.911e-10
5.311e-10
4.805e-10
4.383e-10
4.032e-10
3.744e-10
3.509e-10
3.321e-10
3.173e-10
3.059e-10
2.978e-10
2.925e-10
2.892e-10
2.894e-10
2.911e-10
2.949e-10
3.007e-10
3.086e-10
3.186e-10
3.305e-10
3.446e-10
3.608e-10
3.792e-10
4e-10
4.232e-10
4.49e-10
4.776e-10
5.09e-10
5.436e-10
5.814e-10
6.227e-10
6.676e-10
7.165e-10
7.694e-10
8.267e-10
8.885e-10
9.55e-10
1.027e-09
1.103e-09
1.186e-09
1.273e-09
1.365e-09
1.505e-09
-2.494e-56
2.485e-55
-1.776e-54
1.091e-53
-5.818e-53
2.726e-52
-1.136e-51
4.238e-51
-1.418e-50
4.203e-50
-1.062e-49
2.061e-49
-4.229e-50
-6.679e-49
4.628e-48
-1.124e-47
-1.066e-46
9.874e-46
-6.815e-45
4.667e-44
-2.677e-43
-1.501e-42
4.052e-41
-7.486e-40
1.238e-38
-1.14e-37
1.316e-36
-1.217e-35
9.787e-35
-7.431e-34
5.218e-33
-3.703e-32
1.376e-31
-1.215e-31
-6.144e-30
9.783e-29
-1.067e-27
9.819e-27
-8.077e-26
6.097e-25
-4.316e-24
2.78e-23
-1.76e-22
1.083e-21
-3.462e-21
2e-19
2.497e-18
1.842e-17
1.149e-16
6.539e-16
3.427e-15
1.654e-14
7.331e-14
2.981e-13
1.11e-12
3.782e-12
1.178e-11
3.351e-11
8.707e-11
2.067e-10
4.485e-10
8.904e-10
1.62e-09
2.705e-09
4.164e-09
5.945e-09
7.912e-09
9.878e-09
1.163e-08
1.294e-08
1.39e-08
1.388e-08
1.357e-08
1.287e-08
1.186e-08
1.066e-08
9.4e-09
8.156e-09
6.994e-09
5.948e-09
5.033e-09
4.25e-09
3.592e-09
3.045e-09
2.594e-09
2.225e-09
1.923e-09
1.678e-09
1.479e-09
1.318e-09
1.187e-09
1.081e-09
9.961e-10
9.279e-10
8.739e-10
8.318e-10
7.999e-10
7.766e-10
7.616e-10
7.514e-10
7.515e-10
7.55e-10
7.637e-10
7.777e-10
7.969e-10
8.211e-10
8.503e-10
8.845e-10
9.239e-10
9.687e-10
1.019e-09
1.075e-09
1.137e-09
1.205e-09
1.28e-09
1.362e-09
1.451e-09
1.548e-09
1.653e-09
1.767e-09
1.889e-09
2.021e-09
2.162e-09
2.313e-09
2.475e-09
2.647e-09
2.826e-09
3.102e-09
2.284e-55
-2.277e-54
1.678e-53
-1.093e-52
6.337e-52
-3.304e-51
1.566e-50
-6.804e-50
2.721e-49
-9.984e-49
3.296e-48
-9.214e-48
1.772e-47
3.559e-47
-4.017e-46
2.361e-45
-1.318e-44
5.602e-44
-2.728e-43
2.58e-42
-3.728e-41
3.778e-40
-4.521e-39
4.508e-38
-3.376e-37
3.657e-36
-1.632e-35
6.887e-35
-5.173e-35
-3.724e-33
6.128e-32
-7.085e-31
7.012e-30
-6.293e-29
5.25e-28
-4.119e-27
3.061e-26
-2.161e-25
1.455e-24
-9.325e-24
5.684e-23
-3.332e-22
1.923e-21
-7.201e-21
3.195e-19
4.371e-18
3.541e-17
2.448e-16
1.549e-15
9.022e-15
4.832e-14
2.373e-13
1.066e-12
4.369e-12
1.632e-11
5.549e-11
1.715e-10
4.814e-10
1.227e-09
2.841e-09
5.978e-09
1.144e-08
1.993e-08
3.169e-08
4.623e-08
6.233e-08
7.818e-08
9.197e-08
1.016e-07
1.065e-07
1.051e-07
1.004e-07
9.26e-08
8.268e-08
7.183e-08
6.1e-08
5.088e-08
4.185e-08
3.409e-08
2.759e-08
2.227e-08
1.798e-08
1.456e-08
1.185e-08
9.711e-09
8.03e-09
6.708e-09
5.666e-09
4.843e-09
4.192e-09
3.674e-09
3.263e-09
2.934e-09
2.673e-09
2.464e-09
2.299e-09
2.17e-09
2.071e-09
1.997e-09
1.944e-09
1.911e-09
1.891e-09
1.893e-09
1.905e-09
1.93e-09
1.967e-09
2.017e-09
2.078e-09
2.152e-09
2.237e-09
2.334e-09
2.444e-09
2.566e-09
2.702e-09
2.852e-09
3.015e-09
3.194e-09
3.389e-09
3.599e-09
3.827e-09
4.072e-09
4.335e-09
4.617e-09
4.919e-09
5.24e-09
5.583e-09
5.935e-09
6.485e-09
-1.873e-54
1.861e-53
-1.404e-52
9.607e-52
-5.983e-51
3.425e-50
-1.82e-49
9.065e-49
-4.266e-48
1.906e-47
-8.075e-47
3.199e-46
-1.128e-45
2.977e-45
4.801e-45
-1.332e-43
1.186e-42
-9.871e-42
7.445e-41
-5.2e-40
3.295e-39
-2.217e-38
1.153e-37
-2.717e-37
-1.422e-36
3.428e-35
-4.231e-34
4.302e-33
-3.958e-32
3.41e-31
-2.794e-30
2.195e-29
-1.66e-28
1.212e-27
-8.538e-27
5.811e-26
-3.818e-25
2.423e-24
-1.476e-23
8.727e-23
-4.909e-22
2.777e-21
-1.109e-20
4.223e-19
6.34e-18
5.647e-17
4.334e-16
3.053e-15
1.982e-14
1.182e-13
6.455e-13
3.218e-12
1.46e-11
6.015e-11
2.246e-10
7.592e-10
2.319e-09
6.399e-09
1.593e-08
3.582e-08
7.273e-08
1.334e-07
2.217e-07
3.34e-07
4.598e-07
5.834e-07
6.892e-07
7.629e-07
7.856e-07
7.674e-07
7.206e-07
6.499e-07
5.654e-07
4.77e-07
3.923e-07
3.161e-07
2.506e-07
1.964e-07
1.527e-07
1.182e-07
9.146e-08
7.093e-08
5.528e-08
4.339e-08
3.438e-08
2.753e-08
2.231e-08
1.832e-08
1.524e-08
1.287e-08
1.101e-08
9.565e-09
8.425e-09
7.525e-09
6.812e-09
6.247e-09
5.801e-09
5.452e-09
5.182e-09
4.977e-09
4.829e-09
4.729e-09
4.667e-09
4.652e-09
4.669e-09
4.714e-09
4.789e-09
4.893e-09
5.024e-09
5.184e-09
5.37e-09
5.584e-09
5.825e-09
6.095e-09
6.394e-09
6.723e-09
7.082e-09
7.474e-09
7.899e-09
8.358e-09
8.853e-09
9.383e-09
9.952e-09
1.056e-08
1.12e-08
1.189e-08
1.259e-08
1.37e-08
1.319e-53
-1.302e-52
9.987e-52
-7.105e-51
4.693e-50
-2.902e-49
1.696e-48
-9.453e-48
5.083e-47
-2.668e-46
1.384e-45
-7.205e-45
3.821e-44
-2.096e-43
1.201e-42
-7.222e-42
4.538e-41
-2.957e-40
1.981e-39
-1.356e-38
9.457e-38
-6.727e-37
4.887e-36
-3.649e-35
2.715e-34
-2.015e-33
1.486e-32
-1.086e-31
7.846e-31
-5.588e-30
3.916e-29
-2.694e-28
1.817e-27
-1.199e-26
7.726e-26
-4.854e-25
2.97e-24
-1.762e-23
1.025e-22
-5.631e-22
3.189e-21
-1.306e-20
4.547e-19
7.491e-18
7.333e-17
6.248e-16
4.902e-15
3.548e-14
2.361e-13
1.437e-12
7.976e-12
4.021e-11
1.835e-10
7.566e-10
2.811e-09
9.398e-09
2.822e-08
7.606e-08
1.839e-07
3.99e-07
7.772e-07
1.36e-06
2.142e-06
3.045e-06
3.941e-06
4.698e-06
5.252e-06
5.358e-06
5.203e-06
4.83e-06
4.288e-06
3.659e-06
3.019e-06
2.421e-06
1.897e-06
1.459e-06
1.106e-06
8.307e-07
6.202e-07
4.621e-07
3.448e-07
2.583e-07
1.948e-07
1.483e-07
1.142e-07
8.895e-08
7.027e-08
5.632e-08
4.582e-08
3.786e-08
3.178e-08
2.708e-08
2.344e-08
2.059e-08
1.836e-08
1.659e-08
1.52e-08
1.41e-08
1.324e-08
1.257e-08
1.206e-08
1.169e-08
1.144e-08
1.128e-08
1.121e-08
1.124e-08
1.133e-08
1.149e-08
1.172e-08
1.201e-08
1.236e-08
1.277e-08
1.324e-08
1.378e-08
1.437e-08
1.504e-08
1.576e-08
1.655e-08
1.741e-08
1.834e-08
1.935e-08
2.042e-08
2.157e-08
2.28e-08
2.41e-08
2.549e-08
2.691e-08
2.913e-08
-7.562e-53
7.406e-52
-5.746e-51
4.208e-50
-2.907e-49
1.904e-48
-1.19e-47
7.151e-47
-4.154e-46
2.348e-45
-1.298e-44
7.04e-44
-3.765e-43
1.993e-42
-1.05e-41
5.574e-41
-3.031e-40
1.731e-39
-1.065e-38
7.164e-38
-5.224e-37
4.037e-36
-3.218e-35
2.608e-34
-2.001e-33
1.494e-32
-1.091e-31
7.801e-31
-5.47e-30
3.762e-29
-2.539e-28
1.68e-27
-1.09e-26
6.923e-26
-4.302e-25
2.613e-24
-1.548e-23
8.998e-23
-4.915e-22
2.88e-21
-1.19e-20
3.943e-19
7.114e-18
7.642e-17
7.213e-16
6.294e-15
5.077e-14
3.767e-13
2.559e-12
1.584e-11
8.89e-11
4.508e-10
2.058e-09
8.435e-09
3.096e-08
1.016e-07
2.973e-07
7.758e-07
1.806e-06
3.75e-06
6.95e-06
1.152e-05
1.713e-05
2.289e-05
2.779e-05
3.144e-05
3.232e-05
3.133e-05
2.895e-05
2.55e-05
2.153e-05
1.752e-05
1.382e-05
1.062e-05
7.99e-06
5.913e-06
4.323e-06
3.135e-06
2.265e-06
1.635e-06
1.184e-06
8.623e-07
6.334e-07
4.702e-07
3.535e-07
2.694e-07
2.084e-07
1.638e-07
1.309e-07
1.063e-07
8.782e-08
7.373e-08
6.292e-08
5.455e-08
4.801e-08
4.289e-08
3.885e-08
3.566e-08
3.315e-08
3.119e-08
2.966e-08
2.851e-08
2.766e-08
2.708e-08
2.672e-08
2.657e-08
2.663e-08
2.683e-08
2.719e-08
2.769e-08
2.834e-08
2.913e-08
3.005e-08
3.111e-08
3.23e-08
3.362e-08
3.509e-08
3.669e-08
3.844e-08
4.032e-08
4.236e-08
4.455e-08
4.689e-08
4.938e-08
5.202e-08
5.484e-08
5.768e-08
6.22e-08
3.414e-52
-3.299e-51
2.573e-50
-1.928e-49
1.383e-48
-9.544e-48
6.371e-47
-4.144e-46
2.647e-45
-1.673e-44
1.054e-43
-6.65e-43
4.219e-42
-2.694e-41
1.731e-40
-1.117e-39
7.232e-39
-4.689e-38
3.041e-37
-1.972e-36
1.279e-35
-8.302e-35
5.399e-34
-3.523e-33
2.284e-32
-1.475e-31
9.477e-31
-6.051e-30
3.835e-29
-2.41e-28
1.499e-27
-9.225e-27
5.604e-26
-3.356e-25
1.979e-24
-1.146e-23
6.536e-23
-3.58e-22
2.172e-21
-8.408e-21
2.727e-19
5.377e-18
6.321e-17
6.59e-16
6.377e-15
5.717e-14
4.725e-13
3.578e-12
2.469e-11
1.545e-10
8.714e-10
4.413e-09
1.999e-08
8.068e-08
2.895e-07
9.21e-07
2.595e-06
6.476e-06
1.433e-05
2.812e-05
4.907e-05
7.652e-05
0.000107
0.0001343
0.0001547
0.0001631
0.0001587
0.0001472
0.00013
0.0001097
8.906e-05
6.99e-05
5.332e-05
3.971e-05
2.9e-05
2.086e-05
1.484e-05
1.048e-05
7.385e-06
5.206e-06
3.685e-06
2.627e-06
1.891e-06
1.377e-06
1.017e-06
7.621e-07
5.804e-07
4.495e-07
3.542e-07
2.84e-07
2.318e-07
1.924e-07
1.624e-07
1.394e-07
1.215e-07
1.076e-07
9.664e-08
8.8e-08
8.117e-08
7.58e-08
7.159e-08
6.834e-08
6.588e-08
6.41e-08
6.288e-08
6.215e-08
6.19e-08
6.209e-08
6.26e-08
6.345e-08
6.462e-08
6.61e-08
6.788e-08
6.996e-08
7.233e-08
7.499e-08
7.794e-08
8.118e-08
8.472e-08
8.856e-08
9.27e-08
9.715e-08
1.019e-07
1.07e-07
1.123e-07
1.181e-07
1.238e-07
1.33e-07
-9.701e-52
9.512e-51
-7.495e-50
5.661e-49
-4.085e-48
2.818e-47
-1.858e-46
1.17e-45
-7.031e-45
4.022e-44
-2.18e-43
1.111e-42
-5.23e-42
2.199e-41
-7.536e-41
1.375e-40
7.597e-40
-1.139e-38
8.834e-38
-4.966e-37
1.697e-36
4.936e-36
-1.713e-34
2.164e-33
-2.058e-32
1.716e-31
-1.328e-30
9.773e-30
-6.924e-29
4.759e-28
-3.187e-27
2.085e-26
-1.334e-25
8.368e-25
-5.142e-24
3.099e-23
-1.817e-22
1.11e-21
-3.522e-21
1.483e-19
3.208e-18
4.123e-17
4.729e-16
5.052e-15
5.017e-14
4.603e-13
3.878e-12
2.981e-11
2.077e-10
1.304e-09
7.334e-09
3.675e-08
1.633e-07
6.412e-07
2.217e-06
6.731e-06
1.794e-05
4.214e-05
8.713e-05
0.0001589
0.0002581
0.0003767
0.0004946
0.000587
0.0006465
0.0006368
0.0005994
0.0005365
0.0004589
0.0003769
0.0002987
0.0002295
0.0001716
0.0001255
9.003e-05
6.364e-05
4.451e-05
3.093e-05
2.143e-05
1.487e-05
1.037e-05
7.285e-06
5.172e-06
3.718e-06
2.712e-06
2.009e-06
1.514e-06
1.161e-06
9.063e-07
7.204e-07
5.83e-07
4.802e-07
4.025e-07
3.431e-07
2.972e-07
2.614e-07
2.334e-07
2.113e-07
1.939e-07
1.801e-07
1.692e-07
1.607e-07
1.542e-07
1.493e-07
1.458e-07
1.436e-07
1.421e-07
1.421e-07
1.427e-07
1.44e-07
1.461e-07
1.489e-07
1.523e-07
1.564e-07
1.611e-07
1.664e-07
1.723e-07
1.789e-07
1.861e-07
1.939e-07
2.023e-07
2.113e-07
2.21e-07
2.313e-07
2.422e-07
2.538e-07
2.655e-07
2.841e-07
3.961e-51
-3.553e-50
2.699e-49
-2.077e-48
1.601e-47
-1.227e-46
9.299e-46
-6.93e-45
5.064e-44
-3.626e-43
2.544e-42
-1.75e-41
1.184e-40
-7.882e-40
5.177e-39
-3.361e-38
2.16e-37
-1.377e-36
8.712e-36
-5.478e-35
3.425e-34
-2.13e-33
1.317e-32
-8.1e-32
4.945e-31
-2.998e-30
1.805e-29
-1.079e-28
6.402e-28
-3.77e-27
2.202e-26
-1.276e-25
7.33e-25
-4.173e-24
2.355e-23
-1.312e-22
7.443e-22
-3.241e-21
4.598e-20
1.46e-18
2.11e-17
2.658e-16
3.121e-15
3.416e-14
3.466e-13
3.238e-12
2.766e-11
2.145e-10
1.498e-09
9.363e-09
5.198e-08
2.548e-07
1.096e-06
4.122e-06
1.349e-05
3.833e-05
9.486e-05
0.0002057
0.0003893
0.0006502
0.0009741
0.001326
0.001636
0.001873
0.001922
0.001855
0.001702
0.001492
0.001258
0.001024
0.0008063
0.0006166
0.0004593
0.0003344
0.0002388
0.0001678
0.0001166
8.048e-05
5.537e-05
3.813e-05
2.638e-05
1.839e-05
1.296e-05
9.252e-06
6.704e-06
4.936e-06
3.698e-06
2.82e-06
2.191e-06
1.733e-06
1.396e-06
1.146e-06
9.563e-07
8.12e-07
7.009e-07
6.144e-07
5.467e-07
4.933e-07
4.511e-07
4.176e-07
3.911e-07
3.703e-07
3.541e-07
3.418e-07
3.327e-07
3.264e-07
3.226e-07
3.207e-07
3.213e-07
3.234e-07
3.27e-07
3.321e-07
3.387e-07
3.467e-07
3.561e-07
3.667e-07
3.787e-07
3.919e-07
4.065e-07
4.223e-07
4.394e-07
4.578e-07
4.774e-07
4.983e-07
5.205e-07
5.44e-07
5.676e-07
6.053e-07
1.458e-50
-1.425e-49
1.136e-48
-8.806e-48
6.603e-47
-4.793e-46
3.372e-45
-2.304e-44
1.533e-43
-9.956e-43
6.337e-42
-3.968e-41
2.453e-40
-1.504e-39
9.182e-39
-5.606e-38
3.435e-37
-2.119e-36
1.32e-35
-8.303e-35
5.283e-34
-3.397e-33
2.207e-32
-1.436e-31
9.276e-31
-5.942e-30
3.776e-29
-2.381e-28
1.49e-27
-9.257e-27
5.709e-26
-3.495e-25
2.124e-24
-1.282e-23
7.681e-23
-4.542e-22
2.799e-21
-1.053e-20
3.394e-19
8.193e-18
1.171e-16
1.505e-15
1.806e-14
2.016e-13
2.081e-12
1.969e-11
1.696e-10
1.318e-09
9.159e-09
5.647e-08
3.063e-07
1.45e-06
5.952e-06
2.106e-05
6.403e-05
0.0001668
0.0003764
0.0007394
0.001261
0.001917
0.002644
0.003344
0.003936
0.004312
0.004252
0.004013
0.003622
0.003163
0.002685
0.002209
0.00176
0.001362
0.001026
0.0007546
0.000543
0.0003839
0.0002678
0.0001852
0.0001276
8.785e-05
6.074e-05
4.232e-05
2.979e-05
2.124e-05
1.537e-05
1.131e-05
8.462e-06
6.448e-06
5.005e-06
3.956e-06
3.185e-06
2.611e-06
2.178e-06
1.848e-06
1.594e-06
1.396e-06
1.241e-06
1.119e-06
1.021e-06
9.444e-07
8.832e-07
8.349e-07
7.97e-07
7.679e-07
7.461e-07
7.304e-07
7.207e-07
7.14e-07
7.144e-07
7.174e-07
7.237e-07
7.333e-07
7.46e-07
7.617e-07
7.803e-07
8.016e-07
8.257e-07
8.525e-07
8.819e-07
9.14e-07
9.487e-07
9.86e-07
1.026e-06
1.068e-06
1.113e-06
1.161e-06
1.209e-06
1.285e-06
-3.568e-50
3.281e-49
-2.524e-48
1.94e-47
-1.477e-46
1.111e-45
-8.226e-45
5.992e-44
-4.287e-43
3.012e-42
-2.079e-41
1.41e-40
-9.412e-40
6.189e-39
-4.015e-38
2.573e-37
-1.632e-36
1.025e-35
-6.386e-35
3.95e-34
-2.428e-33
1.484e-32
-9.03e-32
5.458e-31
-3.279e-30
1.959e-29
-1.165e-28
6.901e-28
-4.071e-27
2.393e-26
-1.402e-25
8.193e-25
-4.776e-24
2.78e-23
-1.61e-22
9.61e-22
-4.242e-21
7.924e-20
2.597e-18
4.086e-17
5.703e-16
7.454e-15
9.107e-14
1.033e-12
1.079e-11
1.03e-10
8.888e-10
6.877e-09
4.721e-08
2.846e-07
1.492e-06
6.736e-06
2.598e-05
8.506e-05
0.0002359
0.000555
0.001126
0.001969
0.003035
0.004235
0.005433
0.006353
0.007393
0.008224
0.007849
0.006904
0.006015
0.005343
0.004659
0.003919
0.003193
0.002528
0.001947
0.001461
0.00107
0.0007677
0.0005424
0.0003791
0.0002633
0.0001827
0.0001271
8.902e-05
6.296e-05
4.509e-05
3.276e-05
2.419e-05
1.817e-05
1.389e-05
1.082e-05
8.577e-06
6.925e-06
5.692e-06
4.76e-06
4.047e-06
3.496e-06
3.067e-06
2.73e-06
2.463e-06
2.251e-06
2.082e-06
1.948e-06
1.841e-06
1.757e-06
1.692e-06
1.643e-06
1.607e-06
1.584e-06
1.568e-06
1.566e-06
1.57e-06
1.582e-06
1.6e-06
1.625e-06
1.656e-06
1.693e-06
1.736e-06
1.785e-06
1.839e-06
1.899e-06
1.964e-06
2.034e-06
2.11e-06
2.19e-06
2.276e-06
2.367e-06
2.464e-06
2.56e-06
2.714e-06
-6.707e-50
6.56e-49
-5.271e-48
4.143e-47
-3.166e-46
2.354e-45
-1.702e-44
1.199e-43
-8.243e-43
5.543e-42
-3.655e-41
2.37e-40
-1.515e-39
9.584e-39
-6.012e-38
3.75e-37
-2.332e-36
1.449e-35
-9.01e-35
5.615e-34
-3.511e-33
2.204e-32
-1.392e-31
8.765e-31
-5.492e-30
3.424e-29
-2.125e-28
1.314e-27
-8.098e-27
4.98e-26
-3.058e-25
1.875e-24
-1.149e-23
7.053e-23
-4.304e-22
2.786e-21
-9.77e-21
4.157e-19
1.094e-17
1.71e-16
2.423e-15
3.22e-14
3.992e-13
4.581e-12
4.825e-11
4.619e-10
3.978e-09
3.048e-08
2.052e-07
1.2e-06
6.018e-06
2.561e-05
9.152e-05
0.0002729
0.0006807
0.001437
0.002598
0.004
0.005816
0.007519
0.009715
0.0104
0.009987
0.01017
0.01001
0.01009
0.01037
0.009331
0.00748
0.006077
0.005036
0.004083
0.003227
0.00248
0.001857
0.00136
0.0009789
0.0006957
0.0004905
0.0003449
0.0002428
0.0001719
0.0001228
8.88e-05
6.51e-05
4.847e-05
3.669e-05
2.826e-05
2.216e-05
1.769e-05
1.437e-05
1.188e-05
9.985e-06
8.531e-06
7.403e-06
6.519e-06
5.822e-06
5.269e-06
4.828e-06
4.476e-06
4.195e-06
3.971e-06
3.794e-06
3.657e-06
3.552e-06
3.475e-06
3.424e-06
3.391e-06
3.382e-06
3.39e-06
3.412e-06
3.448e-06
3.498e-06
3.561e-06
3.636e-06
3.723e-06
3.822e-06
3.932e-06
4.052e-06
4.184e-06
4.327e-06
4.48e-06
4.643e-06
4.817e-06
5e-06
5.195e-06
5.387e-06
5.697e-06
1.344e-49
-1.248e-48
9.67e-48
-7.466e-47
5.695e-46
-4.283e-45
3.17e-44
-2.306e-43
1.648e-42
-1.156e-41
7.966e-41
-5.396e-40
3.595e-39
-2.359e-38
1.526e-37
-9.744e-37
6.151e-36
-3.844e-35
2.38e-34
-1.463e-33
8.928e-33
-5.419e-32
3.274e-31
-1.965e-30
1.174e-29
-6.99e-29
4.153e-28
-2.464e-27
1.461e-26
-8.674e-26
5.157e-25
-3.074e-24
1.841e-23
-1.104e-22
6.885e-22
-3.118e-21
7.062e-20
2.424e-18
4.114e-17
6.275e-16
9.007e-15
1.213e-13
1.52e-12
1.76e-11
1.862e-10
1.782e-09
1.525e-08
1.151e-07
7.56e-07
4.257e-06
2.025e-05
8.035e-05
0.000263
0.0007058
0.00157
0.003004
0.004824
0.006588
0.01003
0.009963
0.01142
0.01118
0.009986
0.01013
0.009979
0.01003
0.01169
0.01035
0.01005
0.01011
0.007492
0.006028
0.004853
0.003805
0.002907
0.002173
0.001597
0.001158
0.0008318
0.0005953
0.0004262
0.0003066
0.0002223
0.0001629
0.000121
9.124e-05
6.989e-05
5.445e-05
4.314e-05
3.478e-05
2.852e-05
2.378e-05
2.015e-05
1.734e-05
1.515e-05
1.342e-05
1.205e-05
1.096e-05
1.009e-05
9.387e-06
8.827e-06
8.379e-06
8.025e-06
7.749e-06
7.54e-06
7.387e-06
7.285e-06
7.218e-06
7.203e-06
7.22e-06
7.266e-06
7.34e-06
7.443e-06
7.572e-06
7.725e-06
7.903e-06
8.104e-06
8.327e-06
8.573e-06
8.84e-06
9.128e-06
9.437e-06
9.766e-06
1.011e-05
1.048e-05
1.087e-05
1.125e-05
1.187e-05
1.932e-49
-1.882e-48
1.515e-47
-1.201e-46
9.298e-46
-7.032e-45
5.192e-44
-3.745e-43
2.641e-42
-1.823e-41
1.234e-40
-8.211e-40
5.378e-39
-3.476e-38
2.222e-37
-1.407e-36
8.847e-36
-5.533e-35
3.447e-34
-2.144e-33
1.332e-32
-8.283e-32
5.16e-31
-3.208e-30
1.986e-29
-1.226e-28
7.558e-28
-4.657e-27
2.872e-26
-1.775e-25
1.101e-24
-6.862e-24
4.306e-23
-2.707e-22
1.812e-21
-7.021e-21
2.715e-19
7.746e-18
1.307e-16
2.017e-15
2.931e-14
3.989e-13
5.045e-12
5.872e-11
6.225e-10
5.94e-09
5.033e-08
3.73e-07
2.379e-06
1.283e-05
5.748e-05
0.0002108
0.0006262
0.001501
0.002967
0.005364
0.00767
0.0102
0.01082
0.009982
0.0104
0.009971
0.00997
0.00997
0.00997
0.00997
0.009974
0.01042
0.009996
0.01121
0.01023
0.009074
0.006931
0.005432
0.004201
0.003195
0.002393
0.00177
0.001299
0.0009484
0.0006927
0.0005079
0.0003751
0.0002799
0.0002115
0.000162
0.0001261
9.965e-05
8.006e-05
6.538e-05
5.426e-05
4.575e-05
3.917e-05
3.404e-05
3e-05
2.68e-05
2.425e-05
2.22e-05
2.055e-05
1.922e-05
1.816e-05
1.731e-05
1.664e-05
1.612e-05
1.572e-05
1.544e-05
1.526e-05
1.512e-05