/*--------------------------------*- C++ -*----------------------------------*\
  =========                 |
  \\      /  F ield         | OpenFOAM: The Open Source CFD Toolbox
   \\    /   O peration     | Website:  https://openfoam.org
    \\  /    A nd           | Version:  7
     \\/     M anipulation  |
\*---------------------------------------------------------------------------*/
FoamFile
{
    version     2.0;
    format      ascii;
    class       volScalarField;
    location    "1979.99947343146641";
    object      p;
}
// * * * * * * * * * * * * * * * * * * * * * * * * * * * * * * * * * * * * * //

dimensions      [0 2 -2 0 0 0 0];

internalField   nonuniform List<scalar> 
4096
(
0.0005736
0.0004026
0.0003184
0.0002762
0.0002528
0.0002389
0.00023
0.0002239
0.0002195
0.0002163
0.0002137
0.0002117
0.00021
0.0002087
0.0002075
0.0002065
0.0002056
0.0002048
0.0002041
0.0002034
0.0002028
0.0002022
0.0002017
0.0002012
0.0002007
0.0002002
0.0001997
0.0001992
0.0001988
0.0001983
0.0001978
0.0001973
0.0001968
0.0001963
0.0001958
0.0001952
0.0001946
0.000194
0.0001933
0.0001925
0.0001917
0.0001907
0.0001897
0.0001885
0.0001872
0.0001857
0.0001841
0.0001822
0.0001801
0.0001777
0.0001751
0.0001722
0.0001689
0.0001653
0.0001614
0.0001571
0.0001525
0.0001475
0.0001422
0.0001367
0.0001308
0.0001248
0.0001186
0.0001124
0.000106
9.976e-05
9.355e-05
8.748e-05
8.158e-05
7.591e-05
7.048e-05
6.534e-05
6.05e-05
5.596e-05
5.174e-05
4.784e-05
4.426e-05
4.097e-05
3.798e-05
3.527e-05
3.282e-05
3.062e-05
2.863e-05
2.686e-05
2.527e-05
2.385e-05
2.257e-05
2.143e-05
2.04e-05
1.947e-05
1.863e-05
1.786e-05
1.715e-05
1.649e-05
1.587e-05
1.529e-05
1.474e-05
1.422e-05
1.371e-05
1.322e-05
1.273e-05
1.226e-05
1.179e-05
1.133e-05
1.087e-05
1.041e-05
9.955e-06
9.496e-06
9.037e-06
8.576e-06
8.114e-06
7.649e-06
7.182e-06
6.713e-06
6.24e-06
5.765e-06
5.287e-06
4.806e-06
4.322e-06
3.835e-06
3.346e-06
2.855e-06
2.362e-06
1.871e-06
1.383e-06
9.047e-07
4.491e-07
8.931e-08
0.0004291
0.0003653
0.0003155
0.0002835
0.0002625
0.0002483
0.0002382
0.0002309
0.0002254
0.0002211
0.0002178
0.0002152
0.000213
0.0002111
0.0002096
0.0002083
0.0002071
0.0002061
0.0002052
0.0002043
0.0002036
0.0002028
0.0002022
0.0002015
0.0002009
0.0002003
0.0001997
0.0001991
0.0001986
0.000198
0.0001974
0.0001968
0.0001962
0.0001956
0.0001949
0.0001943
0.0001935
0.0001928
0.000192
0.0001911
0.0001901
0.0001891
0.0001879
0.0001866
0.0001852
0.0001836
0.0001818
0.0001799
0.0001777
0.0001753
0.0001726
0.0001697
0.0001664
0.0001629
0.000159
0.0001549
0.0001504
0.0001456
0.0001405
0.0001352
0.0001296
0.0001239
0.000118
0.0001121
0.0001061
0.0001001
9.418e-05
8.84e-05
8.278e-05
7.735e-05
7.215e-05
6.72e-05
6.252e-05
5.811e-05
5.4e-05
5.017e-05
4.663e-05
4.337e-05
4.038e-05
3.765e-05
3.516e-05
3.289e-05
3.084e-05
2.899e-05
2.731e-05
2.579e-05
2.442e-05
2.317e-05
2.204e-05
2.1e-05
2.006e-05
1.919e-05
1.838e-05
1.763e-05
1.692e-05
1.626e-05
1.563e-05
1.503e-05
1.445e-05
1.389e-05
1.335e-05
1.282e-05
1.23e-05
1.179e-05
1.128e-05
1.078e-05
1.029e-05
9.795e-06
9.305e-06
8.816e-06
8.329e-06
7.841e-06
7.354e-06
6.866e-06
6.377e-06
5.888e-06
5.397e-06
4.905e-06
4.412e-06
3.918e-06
3.423e-06
2.927e-06
2.432e-06
1.939e-06
1.449e-06
9.681e-07
5.018e-07
1.112e-07
0.0003456
0.0003239
0.0002985
0.0002777
0.0002622
0.0002505
0.0002415
0.0002344
0.0002289
0.0002244
0.0002208
0.0002178
0.0002153
0.0002132
0.0002114
0.0002098
0.0002085
0.0002072
0.0002061
0.0002052
0.0002042
0.0002034
0.0002026
0.0002018
0.0002011
0.0002004
0.0001997
0.000199
0.0001984
0.0001977
0.000197
0.0001963
0.0001956
0.0001949
0.0001941
0.0001934
0.0001925
0.0001917
0.0001907
0.0001897
0.0001887
0.0001875
0.0001862
0.0001848
0.0001833
0.0001816
0.0001798
0.0001778
0.0001755
0.0001731
0.0001704
0.0001675
0.0001642
0.0001607
0.000157
0.0001529
0.0001485
0.0001439
0.000139
0.0001339
0.0001286
0.0001231
0.0001175
0.0001118
0.0001061
0.0001004
9.471e-05
8.918e-05
8.38e-05
7.859e-05
7.359e-05
6.882e-05
6.429e-05
6.002e-05
5.6e-05
5.225e-05
4.877e-05
4.553e-05
4.255e-05
3.981e-05
3.729e-05
3.499e-05
3.288e-05
3.096e-05
2.921e-05
2.761e-05
2.615e-05
2.482e-05
2.359e-05
2.247e-05
2.143e-05
2.047e-05
1.957e-05
1.873e-05
1.795e-05
1.72e-05
1.65e-05
1.583e-05
1.518e-05
1.456e-05
1.396e-05
1.337e-05
1.28e-05
1.224e-05
1.169e-05
1.116e-05
1.062e-05
1.01e-05
9.577e-06
9.061e-06
8.548e-06
8.038e-06
7.53e-06
7.024e-06
6.519e-06
6.015e-06
5.511e-06
5.008e-06
4.505e-06
4.003e-06
3.501e-06
2.999e-06
2.498e-06
1.999e-06
1.504e-06
1.013e-06
5.295e-07
1.146e-07
0.0003009
0.0002938
0.0002805
0.0002673
0.0002564
0.0002476
0.0002405
0.0002346
0.0002297
0.0002256
0.0002221
0.0002192
0.0002166
0.0002145
0.0002126
0.0002109
0.0002094
0.0002081
0.0002069
0.0002058
0.0002048
0.0002038
0.0002029
0.0002021
0.0002012
0.0002004
0.0001997
0.0001989
0.0001981
0.0001974
0.0001966
0.0001959
0.0001951
0.0001943
0.0001934
0.0001925
0.0001916
0.0001907
0.0001896
0.0001886
0.0001874
0.0001861
0.0001848
0.0001833
0.0001817
0.00018
0.0001781
0.000176
0.0001737
0.0001713
0.0001686
0.0001657
0.0001625
0.000159
0.0001553
0.0001513
0.0001471
0.0001426
0.0001379
0.0001329
0.0001278
0.0001225
0.000117
0.0001115
0.000106
0.0001005
9.509e-05
8.976e-05
8.456e-05
7.954e-05
7.47e-05
7.008e-05
6.568e-05
6.152e-05
5.76e-05
5.392e-05
5.049e-05
4.729e-05
4.433e-05
4.159e-05
3.906e-05
3.673e-05
3.46e-05
3.263e-05
3.083e-05
2.917e-05
2.764e-05
2.624e-05
2.494e-05
2.375e-05
2.263e-05
2.16e-05
2.063e-05
1.972e-05
1.886e-05
1.805e-05
1.728e-05
1.655e-05
1.584e-05
1.517e-05
1.451e-05
1.388e-05
1.326e-05
1.266e-05
1.208e-05
1.15e-05
1.094e-05
1.038e-05
9.832e-06
9.29e-06
8.754e-06
8.223e-06
7.696e-06
7.173e-06
6.652e-06
6.135e-06
5.619e-06
5.105e-06
4.593e-06
4.082e-06
3.572e-06
3.063e-06
2.555e-06
2.049e-06
1.544e-06
1.042e-06
5.421e-07
1.118e-07
0.0002739
0.000273
0.000266
0.0002574
0.0002496
0.0002431
0.0002375
0.0002328
0.0002288
0.0002253
0.0002222
0.0002195
0.0002171
0.000215
0.0002131
0.0002115
0.00021
0.0002086
0.0002073
0.0002062
0.0002051
0.0002041
0.0002031
0.0002022
0.0002013
0.0002004
0.0001996
0.0001988
0.0001979
0.0001971
0.0001963
0.0001954
0.0001946
0.0001937
0.0001928
0.0001918
0.0001909
0.0001898
0.0001887
0.0001876
0.0001863
0.000185
0.0001836
0.000182
0.0001804
0.0001786
0.0001767
0.0001746
0.0001723
0.0001698
0.0001671
0.0001642
0.0001611
0.0001577
0.000154
0.0001502
0.000146
0.0001416
0.000137
0.0001321
0.0001271
0.000122
0.0001167
0.0001113
0.000106
0.0001006
9.535e-05
9.017e-05
8.512e-05
8.024e-05
7.553e-05
7.103e-05
6.674e-05
6.267e-05
5.884e-05
5.522e-05
5.184e-05
4.869e-05
4.575e-05
4.302e-05
4.049e-05
3.816e-05
3.6e-05
3.401e-05
3.217e-05
3.047e-05
2.89e-05
2.744e-05
2.609e-05
2.484e-05
2.366e-05
2.257e-05
2.154e-05
2.057e-05
1.966e-05
1.879e-05
1.797e-05
1.718e-05
1.643e-05
1.57e-05
1.501e-05
1.433e-05
1.368e-05
1.304e-05
1.242e-05
1.181e-05
1.122e-05
1.063e-05
1.006e-05
9.497e-06
8.941e-06
8.391e-06
7.847e-06
7.309e-06
6.775e-06
6.244e-06
5.718e-06
5.194e-06
4.673e-06
4.153e-06
3.636e-06
3.119e-06
2.604e-06
2.089e-06
1.576e-06
1.063e-06
5.498e-07
1.085e-07
0.0002566
0.0002581
0.0002548
0.0002491
0.0002434
0.0002383
0.000234
0.0002303
0.000227
0.000224
0.0002214
0.0002191
0.0002169
0.000215
0.0002132
0.0002116
0.0002102
0.0002088
0.0002075
0.0002064
0.0002053
0.0002042
0.0002032
0.0002023
0.0002013
0.0002004
0.0001995
0.0001986
0.0001978
0.0001969
0.000196
0.0001951
0.0001942
0.0001932
0.0001923
0.0001912
0.0001902
0.0001891
0.0001879
0.0001867
0.0001854
0.0001841
0.0001826
0.000181
0.0001793
0.0001775
0.0001756
0.0001734
0.0001711
0.0001687
0.000166
0.0001631
0.00016
0.0001567
0.0001531
0.0001493
0.0001452
0.0001409
0.0001363
0.0001316
0.0001267
0.0001216
0.0001164
0.0001112
0.0001059
0.0001007
9.55e-05
9.044e-05
8.55e-05
8.073e-05
7.613e-05
7.172e-05
6.752e-05
6.354e-05
5.976e-05
5.621e-05
5.288e-05
4.976e-05
4.685e-05
4.414e-05
4.162e-05
3.928e-05
3.712e-05
3.511e-05
3.325e-05
3.152e-05
2.992e-05
2.843e-05
2.704e-05
2.574e-05
2.452e-05
2.338e-05
2.231e-05
2.13e-05
2.034e-05
1.942e-05
1.856e-05
1.773e-05
1.693e-05
1.617e-05
1.543e-05
1.472e-05
1.403e-05
1.336e-05
1.271e-05
1.208e-05
1.146e-05
1.086e-05
1.026e-05
9.678e-06
9.104e-06
8.538e-06
7.979e-06
7.427e-06
6.881e-06
6.34e-06
5.804e-06
5.271e-06
4.742e-06
4.215e-06
3.69e-06
3.167e-06
2.645e-06
2.123e-06
1.602e-06
1.08e-06
5.56e-07
1.061e-07
0.0002447
0.0002472
0.0002459
0.0002422
0.000238
0.0002341
0.0002306
0.0002275
0.0002248
0.0002223
0.0002201
0.0002181
0.0002162
0.0002145
0.0002129
0.0002114
0.00021
0.0002087
0.0002075
0.0002064
0.0002053
0.0002042
0.0002032
0.0002022
0.0002013
0.0002003
0.0001994
0.0001985
0.0001976
0.0001967
0.0001957
0.0001948
0.0001938
0.0001928
0.0001918
0.0001908
0.0001897
0.0001885
0.0001873
0.0001861
0.0001847
0.0001833
0.0001818
0.0001802
0.0001785
0.0001767
0.0001747
0.0001726
0.0001703
0.0001678
0.0001652
0.0001623
0.0001592
0.0001559
0.0001524
0.0001486
0.0001446
0.0001404
0.0001359
0.0001312
0.0001263
0.0001213
0.0001162
0.000111
0.0001058
0.0001007
9.556e-05
9.057e-05
8.572e-05
8.103e-05
7.651e-05
7.218e-05
6.805e-05
6.413e-05
6.042e-05
5.691e-05
5.362e-05
5.053e-05
4.765e-05
4.496e-05
4.246e-05
4.013e-05
3.796e-05
3.595e-05
3.408e-05
3.234e-05
3.072e-05
2.92e-05
2.779e-05
2.646e-05
2.521e-05
2.404e-05
2.293e-05
2.188e-05
2.088e-05
1.994e-05
1.903e-05
1.817e-05
1.734e-05
1.655e-05
1.578e-05
1.504e-05
1.433e-05
1.363e-05
1.296e-05
1.23e-05
1.166e-05
1.104e-05
1.043e-05
9.828e-06
9.239e-06
8.659e-06
8.089e-06
7.526e-06
6.97e-06
6.42e-06
5.875e-06
5.335e-06
4.799e-06
4.266e-06
3.735e-06
3.206e-06
2.679e-06
2.151e-06
1.624e-06
1.094e-06
5.618e-07
1.051e-07
0.0002361
0.0002388
0.0002387
0.0002365
0.0002334
0.0002303
0.0002274
0.0002249
0.0002226
0.0002205
0.0002186
0.0002169
0.0002153
0.0002138
0.0002123
0.000211
0.0002097
0.0002085
0.0002073
0.0002062
0.0002051
0.0002041
0.0002031
0.0002021
0.0002012
0.0002002
0.0001993
0.0001983
0.0001974
0.0001965
0.0001955
0.0001945
0.0001935
0.0001925
0.0001915
0.0001904
0.0001893
0.0001881
0.0001869
0.0001856
0.0001842
0.0001828
0.0001813
0.0001796
0.0001779
0.0001761
0.0001741
0.000172
0.0001697
0.0001672
0.0001646
0.0001618
0.0001587
0.0001555
0.000152
0.0001482
0.0001443
0.00014
0.0001356
0.0001309
0.0001261
0.0001211
0.000116
0.0001109
0.0001057
0.0001006
9.553e-05
9.059e-05
8.58e-05
8.116e-05
7.67e-05
7.243e-05
6.836e-05
6.448e-05
6.081e-05
5.735e-05
5.409e-05
5.104e-05
4.818e-05
4.551e-05
4.303e-05
4.071e-05
3.855e-05
3.655e-05
3.468e-05
3.293e-05
3.13e-05
2.977e-05
2.834e-05
2.7e-05
2.573e-05
2.453e-05
2.34e-05
2.232e-05
2.13e-05
2.033e-05
1.94e-05
1.851e-05
1.766e-05
1.684e-05
1.605e-05
1.529e-05
1.455e-05
1.384e-05
1.315e-05
1.248e-05
1.182e-05
1.118e-05
1.056e-05
9.944e-06
9.343e-06
8.753e-06
8.173e-06
7.602e-06
7.038e-06
6.481e-06
5.93e-06
5.385e-06
4.843e-06
4.305e-06
3.77e-06
3.237e-06
2.705e-06
2.174e-06
1.641e-06
1.107e-06
5.681e-07
1.057e-07
0.0002296
0.0002323
0.0002329
0.0002316
0.0002294
0.000227
0.0002246
0.0002225
0.0002205
0.0002187
0.0002171
0.0002156
0.0002142
0.0002129
0.0002116
0.0002104
0.0002092
0.0002081
0.000207
0.000206
0.0002049
0.0002039
0.0002029
0.000202
0.000201
0.0002001
0.0001991
0.0001982
0.0001973
0.0001963
0.0001953
0.0001943
0.0001933
0.0001923
0.0001912
0.0001901
0.000189
0.0001878
0.0001865
0.0001852
0.0001839
0.0001824
0.0001809
0.0001793
0.0001775
0.0001757
0.0001737
0.0001716
0.0001694
0.0001669
0.0001643
0.0001615
0.0001585
0.0001553
0.0001518
0.0001481
0.0001441
0.0001399
0.0001355
0.0001308
0.000126
0.000121
0.0001159
0.0001107
0.0001056
0.0001005
9.542e-05
9.05e-05
8.574e-05
8.114e-05
7.672e-05
7.248e-05
6.844e-05
6.46e-05
6.096e-05
5.753e-05
5.43e-05
5.128e-05
4.844e-05
4.58e-05
4.334e-05
4.104e-05
3.89e-05
3.69e-05
3.504e-05
3.33e-05
3.167e-05
3.015e-05
2.871e-05
2.735e-05
2.608e-05
2.487e-05
2.372e-05
2.263e-05
2.159e-05
2.06e-05
1.966e-05
1.875e-05
1.788e-05
1.705e-05
1.624e-05
1.547e-05
1.471e-05
1.399e-05
1.328e-05
1.26e-05
1.193e-05
1.128e-05
1.064e-05
1.002e-05
9.415e-06
8.818e-06
8.231e-06
7.654e-06
7.085e-06
6.523e-06
5.968e-06
5.418e-06
4.874e-06
4.333e-06
3.795e-06
3.259e-06
2.725e-06
2.191e-06
1.655e-06
1.118e-06
5.751e-07
1.08e-07
0.0002245
0.0002271
0.000228
0.0002274
0.000226
0.0002241
0.0002222
0.0002203
0.0002186
0.0002171
0.0002157
0.0002143
0.0002131
0.0002119
0.0002108
0.0002097
0.0002086
0.0002076
0.0002066
0.0002056
0.0002046
0.0002037
0.0002027
0.0002018
0.0002009
0.0001999
0.000199
0.0001981
0.0001971
0.0001962
0.0001952
0.0001942
0.0001932
0.0001922
0.0001911
0.00019
0.0001888
0.0001876
0.0001864
0.0001851
0.0001837
0.0001822
0.0001807
0.0001791
0.0001774
0.0001755
0.0001736
0.0001715
0.0001693
0.0001669
0.0001643
0.0001615
0.0001585
0.0001553
0.0001518
0.0001481
0.0001442
0.00014
0.0001355
0.0001309
0.000126
0.000121
0.0001158
0.0001106
0.0001054
0.0001003
9.522e-05
9.031e-05
8.555e-05
8.097e-05
7.656e-05
7.235e-05
6.832e-05
6.45e-05
6.088e-05
5.747e-05
5.426e-05
5.126e-05
4.845e-05
4.583e-05
4.339e-05
4.112e-05
3.9e-05
3.703e-05
3.518e-05
3.346e-05
3.184e-05
3.032e-05
2.889e-05
2.754e-05
2.626e-05
2.505e-05
2.39e-05
2.28e-05
2.176e-05
2.076e-05
1.98e-05
1.889e-05
1.801e-05
1.716e-05
1.635e-05
1.556e-05
1.48e-05
1.407e-05
1.335e-05
1.266e-05
1.199e-05
1.133e-05
1.069e-05
1.006e-05
9.451e-06
8.85e-06
8.26e-06
7.68e-06
7.108e-06
6.544e-06
5.987e-06
5.436e-06
4.889e-06
4.347e-06
3.809e-06
3.272e-06
2.737e-06
2.202e-06
1.666e-06
1.127e-06
5.829e-07
1.123e-07
0.0002205
0.0002228
0.000224
0.0002239
0.0002229
0.0002215
0.00022
0.0002184
0.0002169
0.0002156
0.0002143
0.0002131
0.000212
0.000211
0.00021
0.000209
0.000208
0.0002071
0.0002061
0.0002052
0.0002043
0.0002034
0.0002025
0.0002016
0.0002007
0.0001998
0.0001989
0.000198
0.000197
0.0001961
0.0001951
0.0001941
0.0001931
0.0001921
0.000191
0.0001899
0.0001888
0.0001876
0.0001863
0.000185
0.0001837
0.0001822
0.0001807
0.0001791
0.0001774
0.0001756
0.0001737
0.0001716
0.0001694
0.000167
0.0001645
0.0001617
0.0001587
0.0001555
0.0001521
0.0001484
0.0001444
0.0001402
0.0001358
0.000131
0.0001261
0.000121
0.0001158
0.0001105
0.0001052
0.0001
9.494e-05
9e-05
8.523e-05
8.064e-05
7.623e-05
7.202e-05
6.8e-05
6.418e-05
6.056e-05
5.716e-05
5.397e-05
5.098e-05
4.82e-05
4.561e-05
4.32e-05
4.096e-05
3.887e-05
3.692e-05
3.511e-05
3.34e-05
3.181e-05
3.031e-05
2.889e-05
2.755e-05
2.628e-05
2.507e-05
2.393e-05
2.283e-05
2.179e-05
2.079e-05
1.984e-05
1.892e-05
1.804e-05
1.719e-05
1.637e-05
1.558e-05
1.482e-05
1.408e-05
1.337e-05
1.267e-05
1.2e-05
1.134e-05
1.07e-05
1.007e-05
9.453e-06
8.851e-06
8.26e-06
7.679e-06
7.108e-06
6.544e-06
5.987e-06
5.436e-06
4.891e-06
4.35e-06
3.812e-06
3.276e-06
2.743e-06
2.209e-06
1.674e-06
1.135e-06
5.918e-07
1.185e-07
0.0002172
0.0002193
0.0002206
0.0002208
0.0002202
0.0002192
0.000218
0.0002167
0.0002154
0.0002142
0.0002131
0.000212
0.000211
0.0002101
0.0002092
0.0002083
0.0002074
0.0002065
0.0002057
0.0002048
0.000204
0.0002031
0.0002023
0.0002014
0.0002005
0.0001997
0.0001988
0.0001979
0.000197
0.0001961
0.0001951
0.0001941
0.0001932
0.0001921
0.0001911
0.00019
0.0001889
0.0001877
0.0001865
0.0001852
0.0001838
0.0001824
0.0001809
0.0001794
0.0001777
0.0001759
0.000174
0.000172
0.0001698
0.0001675
0.0001649
0.0001622
0.0001593
0.0001561
0.0001526
0.0001489
0.0001449
0.0001407
0.0001361
0.0001314
0.0001263
0.0001211
0.0001158
0.0001104
0.000105
9.971e-05
9.456e-05
8.958e-05
8.477e-05
8.016e-05
7.572e-05
7.149e-05
6.745e-05
6.361e-05
5.999e-05
5.659e-05
5.341e-05
5.044e-05
4.768e-05
4.512e-05
4.275e-05
4.054e-05
3.85e-05
3.659e-05
3.481e-05
3.314e-05
3.158e-05
3.01e-05
2.871e-05
2.739e-05
2.614e-05
2.495e-05
2.382e-05
2.273e-05
2.17e-05
2.071e-05
1.976e-05
1.885e-05
1.797e-05
1.713e-05
1.631e-05
1.553e-05
1.477e-05
1.403e-05
1.332e-05
1.263e-05
1.195e-05
1.13e-05
1.066e-05
1.003e-05
9.42e-06
8.82e-06
8.232e-06
7.653e-06
7.084e-06
6.522e-06
5.968e-06
5.42e-06
4.877e-06
4.339e-06
3.804e-06
3.272e-06
2.741e-06
2.21e-06
1.678e-06
1.143e-06
6.019e-07
1.267e-07
0.0002144
0.0002164
0.0002177
0.0002181
0.0002179
0.0002172
0.0002162
0.0002152
0.0002141
0.000213
0.000212
0.000211
0.0002101
0.0002093
0.0002084
0.0002076
0.0002068
0.000206
0.0002052
0.0002044
0.0002036
0.0002028
0.000202
0.0002012
0.0002004
0.0001996
0.0001987
0.0001978
0.000197
0.0001961
0.0001952
0.0001942
0.0001933
0.0001923
0.0001912
0.0001902
0.0001891
0.0001879
0.0001867
0.0001855
0.0001842
0.0001828
0.0001813
0.0001798
0.0001782
0.0001764
0.0001746
0.0001726
0.0001705
0.0001682
0.0001657
0.000163
0.00016
0.0001569
0.0001534
0.0001497
0.0001457
0.0001413
0.0001367
0.0001318
0.0001267
0.0001213
0.0001158
0.0001103
0.0001047
9.933e-05
9.409e-05
8.903e-05
8.417e-05
7.95e-05
7.502e-05
7.073e-05
6.665e-05
6.279e-05
5.915e-05
5.574e-05
5.256e-05
4.961e-05
4.688e-05
4.436e-05
4.203e-05
3.988e-05
3.788e-05
3.603e-05
3.429e-05
3.267e-05
3.115e-05
2.971e-05
2.836e-05
2.707e-05
2.584e-05
2.468e-05
2.357e-05
2.25e-05
2.149e-05
2.051e-05
1.958e-05
1.868e-05
1.781e-05
1.698e-05
1.618e-05
1.54e-05
1.465e-05
1.392e-05
1.322e-05
1.253e-05
1.186e-05
1.121e-05
1.058e-05
9.959e-06
9.353e-06
8.758e-06
8.175e-06
7.601e-06
7.037e-06
6.48e-06
5.931e-06
5.388e-06
4.85e-06
4.316e-06
3.786e-06
3.258e-06
2.732e-06
2.206e-06
1.679e-06
1.148e-06
6.13e-07
1.369e-07
0.0002121
0.0002139
0.0002152
0.0002158
0.0002158
0.0002153
0.0002146
0.0002138
0.0002128
0.0002119
0.000211
0.0002102
0.0002093
0.0002085
0.0002078
0.000207
0.0002063
0.0002055
0.0002048
0.0002041
0.0002033
0.0002026
0.0002018
0.000201
0.0002003
0.0001995
0.0001987
0.0001978
0.000197
0.0001961
0.0001953
0.0001944
0.0001934
0.0001925
0.0001915
0.0001905
0.0001894
0.0001883
0.0001871
0.0001859
0.0001847
0.0001833
0.0001819
0.0001804
0.0001789
0.0001772
0.0001754
0.0001735
0.0001714
0.0001692
0.0001667
0.0001641
0.0001612
0.000158
0.0001545
0.0001508
0.0001467
0.0001423
0.0001376
0.0001325
0.0001272
0.0001217
0.0001159
0.0001102
0.0001044
9.887e-05
9.35e-05
8.834e-05
8.339e-05
7.864e-05
7.408e-05
6.973e-05
6.559e-05
6.168e-05
5.8e-05
5.458e-05
5.141e-05
4.848e-05
4.579e-05
4.332e-05
4.105e-05
3.896e-05
3.703e-05
3.524e-05
3.356e-05
3.2e-05
3.053e-05
2.914e-05
2.783e-05
2.658e-05
2.54e-05
2.427e-05
2.319e-05
2.215e-05
2.116e-05
2.021e-05
1.929e-05
1.841e-05
1.757e-05
1.675e-05
1.596e-05
1.52e-05
1.446e-05
1.375e-05
1.306e-05
1.238e-05
1.172e-05
1.109e-05
1.046e-05
9.85e-06
9.253e-06
8.666e-06
8.091e-06
7.525e-06
6.968e-06
6.419e-06
5.876e-06
5.339e-06
4.808e-06
4.281e-06
3.757e-06
3.236e-06
2.717e-06
2.197e-06
1.677e-06
1.153e-06
6.252e-07
1.49e-07
0.0002101
0.0002118
0.0002131
0.0002138
0.0002139
0.0002137
0.0002132
0.0002125
0.0002117
0.0002109
0.0002101
0.0002094
0.0002086
0.0002079
0.0002072
0.0002065
0.0002058
0.0002051
0.0002044
0.0002037
0.000203
0.0002023
0.0002016
0.0002009
0.0002002
0.0001994
0.0001987
0.0001979
0.0001971
0.0001963
0.0001954
0.0001946
0.0001937
0.0001928
0.0001918
0.0001908
0.0001898
0.0001888
0.0001877
0.0001865
0.0001853
0.000184
0.0001827
0.0001813
0.0001798
0.0001782
0.0001765
0.0001746
0.0001726
0.0001705
0.0001681
0.0001655
0.0001626
0.0001595
0.000156
0.0001522
0.000148
0.0001435
0.0001387
0.0001335
0.0001279
0.0001221
0.0001161
0.0001101
0.0001041
9.832e-05
9.278e-05
8.748e-05
8.24e-05
7.753e-05
7.286e-05
6.841e-05
6.419e-05
6.022e-05
5.651e-05
5.307e-05
4.991e-05
4.702e-05
4.439e-05
4.198e-05
3.979e-05
3.778e-05
3.593e-05
3.421e-05
3.262e-05
3.113e-05
2.973e-05
2.84e-05
2.714e-05
2.595e-05
2.481e-05
2.372e-05
2.268e-05
2.168e-05
2.072e-05
1.98e-05
1.891e-05
1.806e-05
1.724e-05
1.644e-05
1.568e-05
1.494e-05
1.422e-05
1.352e-05
1.284e-05
1.218e-05
1.154e-05
1.092e-05
1.031e-05
9.708e-06
9.122e-06
8.547e-06
7.982e-06
7.426e-06
6.878e-06
6.338e-06
5.805e-06
5.277e-06
4.754e-06
4.235e-06
3.72e-06
3.207e-06
2.695e-06
2.184e-06
1.672e-06
1.157e-06
6.385e-07
1.629e-07
0.0002084
0.00021
0.0002113
0.000212
0.0002123
0.0002122
0.0002119
0.0002114
0.0002107
0.0002101
0.0002094
0.0002087
0.000208
0.0002073
0.0002066
0.000206
0.0002054
0.0002047
0.0002041
0.0002034
0.0002028
0.0002022
0.0002015
0.0002008
0.0002001
0.0001994
0.0001987
0.000198
0.0001972
0.0001965
0.0001957
0.0001949
0.000194
0.0001932
0.0001923
0.0001913
0.0001904
0.0001894
0.0001883
0.0001872
0.0001861
0.0001849
0.0001836
0.0001823
0.0001809
0.0001794
0.0001778
0.000176
0.0001742
0.0001721
0.0001698
0.0001673
0.0001645
0.0001614
0.0001579
0.0001541
0.0001499
0.0001452
0.0001402
0.0001348
0.0001289
0.0001228
0.0001164
0.00011
0.0001037
9.764e-05
9.187e-05
8.638e-05
8.113e-05
7.61e-05
7.129e-05
6.672e-05
6.24e-05
5.835e-05
5.461e-05
5.117e-05
4.804e-05
4.52e-05
4.264e-05
4.033e-05
3.823e-05
3.633e-05
3.458e-05
3.297e-05
3.147e-05
3.006e-05
2.874e-05
2.749e-05
2.63e-05
2.516e-05
2.408e-05
2.304e-05
2.205e-05
2.109e-05
2.018e-05
1.929e-05
1.844e-05
1.762e-05
1.683e-05
1.607e-05
1.533e-05
1.461e-05
1.391e-05
1.324e-05
1.258e-05
1.194e-05
1.132e-05
1.071e-05
1.012e-05
9.534e-06
8.962e-06
8.401e-06
7.849e-06
7.306e-06
6.77e-06
6.241e-06
5.718e-06
5.201e-06
4.688e-06
4.179e-06
3.673e-06
3.17e-06
2.668e-06
2.167e-06
1.665e-06
1.161e-06
6.527e-07
1.783e-07
0.000207
0.0002085
0.0002097
0.0002105
0.0002109
0.0002109
0.0002107
0.0002103
0.0002098
0.0002093
0.0002087
0.000208
0.0002074
0.0002068
0.0002062
0.0002056
0.000205
0.0002044
0.0002038
0.0002032
0.0002026
0.000202
0.0002014
0.0002008
0.0002001
0.0001995
0.0001988
0.0001981
0.0001974
0.0001967
0.000196
0.0001952
0.0001944
0.0001936
0.0001928
0.0001919
0.000191
0.0001901
0.0001891
0.0001881
0.000187
0.0001859
0.0001847
0.0001835
0.0001822
0.0001808
0.0001793
0.0001777
0.000176
0.0001741
0.0001719
0.0001695
0.0001668
0.0001638
0.0001604
0.0001565
0.0001522
0.0001475
0.0001422
0.0001365
0.0001303
0.0001238
0.0001169
0.00011
0.0001032
9.678e-05
9.07e-05
8.495e-05
7.946e-05
7.423e-05
6.924e-05
6.453e-05
6.011e-05
5.6e-05
5.224e-05
4.882e-05
4.574e-05
4.299e-05
4.054e-05
3.835e-05
3.638e-05
3.461e-05
3.299e-05
3.15e-05
3.011e-05
2.881e-05
2.758e-05
2.641e-05
2.53e-05
2.424e-05
2.323e-05
2.225e-05
2.131e-05
2.041e-05
1.954e-05
1.87e-05
1.789e-05
1.711e-05
1.635e-05
1.562e-05
1.491e-05
1.423e-05
1.356e-05
1.291e-05
1.228e-05
1.166e-05
1.106e-05
1.047e-05
9.898e-06
9.333e-06
8.778e-06
8.233e-06
7.696e-06
7.167e-06
6.645e-06
6.129e-06
5.618e-06
5.113e-06
4.612e-06
4.114e-06
3.619e-06
3.127e-06
2.636e-06
2.146e-06
1.655e-06
1.163e-06
6.677e-07
1.952e-07
0.0002057
0.0002072
0.0002083
0.0002091
0.0002096
0.0002098
0.0002097
0.0002094
0.000209
0.0002086
0.000208
0.0002075
0.0002069
0.0002064
0.0002058
0.0002052
0.0002047
0.0002041
0.0002036
0.000203
0.0002025
0.0002019
0.0002013
0.0002008
0.0002002
0.0001996
0.0001989
0.0001983
0.0001977
0.000197
0.0001963
0.0001956
0.0001949
0.0001941
0.0001934
0.0001926
0.0001917
0.0001909
0.00019
0.0001891
0.0001881
0.0001871
0.000186
0.0001849
0.0001837
0.0001825
0.0001811
0.0001797
0.0001781
0.0001764
0.0001744
0.0001722
0.0001697
0.0001668
0.0001635
0.0001597
0.0001553
0.0001505
0.000145
0.000139
0.0001323
0.0001252
0.0001176
0.00011
0.0001026
9.564e-05
8.911e-05
8.299e-05
7.721e-05
7.173e-05
6.656e-05
6.171e-05
5.72e-05
5.307e-05
4.932e-05
4.596e-05
4.298e-05
4.036e-05
3.806e-05
3.604e-05
3.424e-05
3.263e-05
3.116e-05
2.981e-05
2.856e-05
2.738e-05
2.626e-05
2.52e-05
2.418e-05
2.32e-05
2.225e-05
2.135e-05
2.047e-05
1.963e-05
1.881e-05
1.803e-05
1.726e-05
1.653e-05
1.581e-05
1.512e-05
1.445e-05
1.38e-05
1.316e-05
1.254e-05
1.194e-05
1.135e-05
1.077e-05
1.021e-05
9.653e-06
9.108e-06
8.573e-06
8.046e-06
7.526e-06
7.013e-06
6.505e-06
6.004e-06
5.507e-06
5.015e-06
4.526e-06
4.041e-06
3.559e-06
3.078e-06
2.599e-06
2.121e-06
1.643e-06
1.165e-06
6.834e-07
2.133e-07
0.0002047
0.000206
0.0002072
0.000208
0.0002085
0.0002087
0.0002088
0.0002086
0.0002083
0.0002079
0.0002075
0.000207
0.0002065
0.000206
0.0002055
0.000205
0.0002045
0.0002039
0.0002034
0.0002029
0.0002024
0.0002019
0.0002013
0.0002008
0.0002002
0.0001997
0.0001991
0.0001985
0.0001979
0.0001973
0.0001967
0.0001961
0.0001954
0.0001947
0.000194
0.0001933
0.0001925
0.0001918
0.000191
0.0001901
0.0001893
0.0001884
0.0001874
0.0001864
0.0001854
0.0001843
0.0001832
0.0001819
0.0001806
0.000179
0.0001773
0.0001754
0.0001731
0.0001704
0.0001673
0.0001636
0.0001594
0.0001545
0.0001489
0.0001425
0.0001353
0.0001274
0.0001189
0.0001102
0.0001018
9.397e-05
8.678e-05
8.018e-05
7.405e-05
6.832e-05
6.301e-05
5.808e-05
5.356e-05
4.946e-05
4.579e-05
4.255e-05
3.973e-05
3.73e-05
3.521e-05
3.339e-05
3.18e-05
3.039e-05
2.911e-05
2.793e-05
2.683e-05
2.579e-05
2.48e-05
2.385e-05
2.293e-05
2.204e-05
2.118e-05
2.035e-05
1.955e-05
1.877e-05
1.802e-05
1.729e-05
1.658e-05
1.589e-05
1.522e-05
1.457e-05
1.394e-05
1.333e-05
1.273e-05
1.214e-05
1.157e-05
1.101e-05
1.046e-05
9.918e-06
9.387e-06
8.865e-06
8.35e-06
7.842e-06
7.341e-06
6.845e-06
6.355e-06
5.869e-06
5.387e-06
4.909e-06
4.434e-06
3.962e-06
3.493e-06
3.025e-06
2.56e-06
2.095e-06
1.63e-06
1.165e-06
6.994e-07
2.322e-07
0.0002038
0.000205
0.0002061
0.000207
0.0002075
0.0002078
0.0002079
0.0002079
0.0002077
0.0002074
0.000207
0.0002066
0.0002061
0.0002057
0.0002052
0.0002047
0.0002043
0.0002038
0.0002033
0.0002028
0.0002023
0.0002019
0.0002014
0.0002009
0.0002004
0.0001999
0.0001993
0.0001988
0.0001983
0.0001977
0.0001971
0.0001966
0.000196
0.0001953
0.0001947
0.0001941
0.0001934
0.0001927
0.000192
0.0001913
0.0001905
0.0001897
0.0001889
0.0001881
0.0001872
0.0001863
0.0001854
0.0001844
0.0001832
0.000182
0.0001806
0.000179
0.0001771
0.0001748
0.000172
0.0001686
0.0001646
0.0001599
0.0001543
0.0001478
0.0001401
0.0001312
0.0001212
0.0001106
0.0001004
9.117e-05
8.303e-05
7.589e-05
6.948e-05
6.364e-05
5.833e-05
5.347e-05
4.905e-05
4.509e-05
4.16e-05
3.857e-05
3.599e-05
3.381e-05
3.199e-05
3.044e-05
2.911e-05
2.793e-05
2.687e-05
2.589e-05
2.496e-05
2.407e-05
2.321e-05
2.238e-05
2.158e-05
2.079e-05
2.002e-05
1.928e-05
1.855e-05
1.785e-05
1.716e-05
1.649e-05
1.584e-05
1.521e-05
1.459e-05
1.399e-05
1.34e-05
1.283e-05
1.226e-05
1.171e-05
1.117e-05
1.064e-05
1.012e-05
9.611e-06
9.106e-06
8.607e-06
8.115e-06
7.628e-06
7.146e-06
6.669e-06
6.195e-06
5.726e-06
5.26e-06
4.797e-06
4.337e-06
3.879e-06
3.423e-06
2.969e-06
2.517e-06
2.066e-06
1.616e-06
1.166e-06
7.158e-07
2.518e-07
0.000203
0.0002042
0.0002053
0.0002061
0.0002067
0.000207
0.0002072
0.0002072
0.0002071
0.0002069
0.0002066
0.0002062
0.0002058
0.0002054
0.000205
0.0002045
0.0002041
0.0002037
0.0002032
0.0002028
0.0002023
0.0002019
0.0002014
0.000201
0.0002005
0.0002
0.0001996
0.0001991
0.0001986
0.0001981
0.0001976
0.0001971
0.0001966
0.000196
0.0001955
0.0001949
0.0001943
0.0001937
0.0001931
0.0001925
0.0001919
0.0001912
0.0001905
0.0001899
0.0001892
0.0001885
0.0001877
0.000187
0.0001861
0.0001852
0.0001842
0.000183
0.0001816
0.0001797
0.0001775
0.0001746
0.0001712
0.000167
0.0001619
0.0001558
0.000148
0.0001381
0.0001259
0.0001114
9.748e-05
8.579e-05
7.661e-05
6.913e-05
6.277e-05
5.72e-05
5.228e-05
4.775e-05
4.363e-05
3.996e-05
3.676e-05
3.404e-05
3.177e-05
2.993e-05
2.844e-05
2.722e-05
2.619e-05
2.528e-05
2.447e-05
2.37e-05
2.296e-05
2.224e-05
2.153e-05
2.084e-05
2.015e-05
1.947e-05
1.88e-05
1.815e-05
1.75e-05
1.688e-05
1.626e-05
1.566e-05
1.507e-05
1.449e-05
1.393e-05
1.338e-05
1.284e-05
1.23e-05
1.178e-05
1.127e-05
1.077e-05
1.027e-05
9.778e-06
9.293e-06
8.814e-06
8.34e-06
7.871e-06
7.406e-06
6.944e-06
6.486e-06
6.031e-06
5.579e-06
5.129e-06
4.681e-06
4.236e-06
3.793e-06
3.351e-06
2.911e-06
2.473e-06
2.036e-06
1.601e-06
1.166e-06
7.321e-07
2.716e-07
0.0002023
0.0002035
0.0002045
0.0002053
0.0002059
0.0002063
0.0002066
0.0002066
0.0002066
0.0002064
0.0002062
0.0002059
0.0002055
0.0002052
0.0002048
0.0002044
0.000204
0.0002036
0.0002032
0.0002028
0.0002023
0.0002019
0.0002015
0.0002011
0.0002007
0.0002003
0.0001998
0.0001994
0.000199
0.0001985
0.0001981
0.0001976
0.0001972
0.0001967
0.0001962
0.0001958
0.0001953
0.0001948
0.0001943
0.0001938
0.0001932
0.0001927
0.0001922
0.0001917
0.0001912
0.0001907
0.0001902
0.0001897
0.0001891
0.0001886
0.000188
0.0001873
0.0001864
0.0001852
0.0001836
0.0001815
0.0001789
0.0001758
0.0001721
0.0001678
0.0001617
0.0001506
0.0001351
0.0001125
9.131e-05
7.641e-05
6.625e-05
5.865e-05
5.314e-05
4.869e-05
4.472e-05
4.093e-05
3.737e-05
3.416e-05
3.136e-05
2.903e-05
2.716e-05
2.573e-05
2.463e-05
2.379e-05
2.31e-05
2.25e-05
2.195e-05
2.141e-05
2.088e-05
2.034e-05
1.978e-05
1.923e-05
1.866e-05
1.81e-05
1.754e-05
1.698e-05
1.642e-05
1.587e-05
1.533e-05
1.48e-05
1.428e-05
1.376e-05
1.325e-05
1.275e-05
1.226e-05
1.177e-05
1.129e-05
1.082e-05
1.035e-05
9.885e-06
9.426e-06
8.971e-06
8.519e-06
8.07e-06
7.624e-06
7.181e-06
6.74e-06
6.301e-06
5.865e-06
5.429e-06
4.996e-06
4.564e-06
4.134e-06
3.705e-06
3.278e-06
2.852e-06
2.428e-06
2.006e-06
1.585e-06
1.166e-06
7.482e-07
2.913e-07
0.0002017
0.0002028
0.0002039
0.0002047
0.0002053
0.0002057
0.000206
0.0002061
0.0002061
0.000206
0.0002059
0.0002056
0.0002053
0.000205
0.0002046
0.0002043
0.0002039
0.0002035
0.0002032
0.0002028
0.0002024
0.000202
0.0002016
0.0002013
0.0002009
0.0002005
0.0002001
0.0001997
0.0001993
0.000199
0.0001986
0.0001982
0.0001978
0.0001974
0.000197
0.0001966
0.0001962
0.0001958
0.0001954
0.000195
0.0001946
0.0001942
0.0001939
0.0001935
0.0001932
0.0001929
0.0001926
0.0001924
0.0001922
0.000192
0.0001919
0.0001917
0.0001913
0.0001908
0.00019
0.0001887
0.0001872
0.0001855
0.000184
0.0001822
0.0001812
0.0001773
0.0001542
0.0001061
8.681e-05
5.907e-05
4.724e-05
4.511e-05
4.304e-05
3.887e-05
3.6e-05
3.332e-05
3.051e-05
2.79e-05
2.558e-05
2.369e-05
2.228e-05
2.13e-05
2.066e-05
2.023e-05
1.992e-05
1.965e-05
1.938e-05
1.908e-05
1.876e-05
1.839e-05
1.8e-05
1.759e-05
1.715e-05
1.671e-05
1.625e-05
1.579e-05
1.532e-05
1.486e-05
1.44e-05
1.393e-05
1.348e-05
1.302e-05
1.257e-05
1.212e-05
1.168e-05
1.124e-05
1.08e-05
1.037e-05
9.934e-06
9.504e-06
9.076e-06
8.65e-06
8.225e-06
7.801e-06
7.379e-06
6.958e-06
6.538e-06
6.118e-06
5.7e-06
5.282e-06
4.865e-06
4.448e-06
4.033e-06
3.619e-06
3.206e-06
2.794e-06
2.384e-06
1.975e-06
1.569e-06
1.165e-06
7.638e-07
3.106e-07
0.0002012
0.0002023
0.0002033
0.0002041
0.0002048
0.0002052
0.0002055
0.0002057
0.0002058
0.0002057
0.0002056
0.0002054
0.0002051
0.0002048
0.0002045
0.0002042
0.0002039
0.0002035
0.0002032
0.0002028