/*--------------------------------*- C++ -*----------------------------------*\
  =========                 |
  \\      /  F ield         | OpenFOAM: The Open Source CFD Toolbox
   \\    /   O peration     | Website:  https://openfoam.org
    \\  /    A nd           | Version:  7
     \\/     M anipulation  |
\*---------------------------------------------------------------------------*/
FoamFile
{
    version     2.0;
    format      ascii;
    class       surfaceScalarField;
    location    "1979.99947343146641";
    object      phi;
}
// * * * * * * * * * * * * * * * * * * * * * * * * * * * * * * * * * * * * * //

dimensions      [0 3 -1 0 0 0 0];

internalField   nonuniform List<scalar> 
8032
(
6.857e-10
2.518e-10
4.804e-10
2.053e-10
3.48e-10
1.324e-10
2.643e-10
8.372e-11
2.101e-10
5.417e-11
1.738e-10
3.638e-11
1.482e-10
2.552e-11
1.296e-10
1.867e-11
1.154e-10
1.416e-11
1.043e-10
1.106e-11
9.552e-11
8.827e-12
8.835e-11
7.169e-12
8.245e-11
5.896e-12
7.756e-11
4.894e-12
7.347e-11
4.088e-12
7.004e-11
3.428e-12
6.716e-11
2.878e-12
6.475e-11
2.412e-12
6.274e-11
2.013e-12
6.107e-11
1.666e-12
5.971e-11
1.361e-12
5.862e-11
1.088e-12
5.778e-11
8.411e-13
5.717e-11
6.148e-13
5.676e-11
4.044e-13
5.656e-11
2.06e-13
5.654e-11
1.621e-14
5.671e-11
-1.677e-13
5.706e-11
-3.484e-13
5.758e-11
-5.28e-13
5.829e-11
-7.084e-13
5.918e-11
-8.914e-13
6.026e-11
-1.078e-12
6.153e-11
-1.271e-12
6.3e-11
-1.469e-12
6.468e-11
-1.675e-12
6.657e-11
-1.889e-12
6.868e-11
-2.11e-12
7.102e-11
-2.34e-12
7.359e-11
-2.576e-12
7.641e-11
-2.819e-12
7.948e-11
-3.067e-12
8.28e-11
-3.317e-12
8.636e-11
-3.568e-12
9.018e-11
-3.815e-12
9.423e-11
-4.054e-12
9.851e-11
-4.281e-12
1.03e-10
-4.489e-12
1.077e-10
-4.673e-12
1.125e-10
-4.825e-12
1.174e-10
-4.938e-12
1.224e-10
-5.003e-12
1.275e-10
-5.014e-12
1.324e-10
-4.963e-12
1.373e-10
-4.843e-12
1.419e-10
-4.65e-12
1.463e-10
-4.379e-12
1.503e-10
-4.029e-12
1.539e-10
-3.603e-12
1.57e-10
-3.105e-12
1.596e-10
-2.543e-12
1.615e-10
-1.928e-12
1.628e-10
-1.274e-12
1.634e-10
-5.974e-13
1.633e-10
8.573e-14
1.625e-10
7.587e-13
1.611e-10
1.406e-12
1.591e-10
2.015e-12
1.565e-10
2.575e-12
1.535e-10
3.076e-12
1.499e-10
3.515e-12
1.46e-10
3.888e-12
1.419e-10
4.194e-12
1.374e-10
4.433e-12
1.328e-10
4.608e-12
1.281e-10
4.722e-12
1.233e-10
4.78e-12
1.185e-10
4.786e-12
1.138e-10
4.745e-12
1.091e-10
4.664e-12
1.046e-10
4.548e-12
1.002e-10
4.403e-12
9.593e-11
4.235e-12
9.188e-11
4.048e-12
8.803e-11
3.848e-12
8.439e-11
3.639e-12
8.097e-11
3.425e-12
7.776e-11
3.21e-12
7.476e-11
2.996e-12
7.198e-11
2.786e-12
6.94e-11
2.581e-12
6.701e-11
2.384e-12
6.482e-11
2.195e-12
6.28e-11
2.016e-12
6.095e-11
1.847e-12
5.927e-11
1.687e-12
5.773e-11
1.538e-12
5.633e-11
1.399e-12
5.506e-11
1.27e-12
5.391e-11
1.151e-12
5.287e-11
1.041e-12
5.193e-11
9.395e-13
5.108e-11
8.467e-13
5.032e-11
7.618e-13
4.964e-11
6.843e-13
4.902e-11
6.137e-13
4.847e-11
5.496e-13
4.798e-11
4.914e-13
4.754e-11
4.387e-13
4.715e-11
3.911e-13
4.68e-11
3.483e-13
4.649e-11
3.097e-13
4.622e-11
2.752e-13
4.597e-11
2.444e-13
4.576e-11
2.172e-13
4.556e-11
1.933e-13
4.539e-11
1.725e-13
4.524e-11
1.549e-13
4.51e-11
1.404e-13
4.497e-11
1.292e-13
4.484e-11
1.216e-13
4.473e-11
1.181e-13
4.461e-11
1.198e-13
4.448e-11
1.286e-13
4.433e-11
1.483e-13
4.414e-11
1.851e-13
4.39e-11
2.459e-13
3.196e-13
9.523e-10
2.37e-10
8.501e-10
3.075e-10
7.275e-10
2.55e-10
6.183e-10
1.929e-10
5.293e-10
1.431e-10
4.592e-10
1.065e-10
4.041e-10
8.061e-11
3.605e-10
6.223e-11
3.257e-10
4.901e-11
2.974e-10
3.929e-11
2.743e-10
3.196e-11
2.552e-10
2.632e-11
2.392e-10
2.187e-11
2.258e-10
1.83e-11
2.145e-10
1.538e-11
2.05e-10
1.296e-11
1.969e-10
1.093e-11
1.901e-10
9.193e-12
1.844e-10
7.695e-12
1.797e-10
6.386e-12
1.759e-10
5.228e-12
1.728e-10
4.19e-12
1.703e-10
3.249e-12
1.686e-10
2.383e-12
1.674e-10
1.577e-12
1.668e-10
8.155e-13
1.667e-10
8.716e-14
1.672e-10
-6.188e-13
1.681e-10
-1.312e-12
1.696e-10
-1.999e-12
1.716e-10
-2.689e-12
1.741e-10
-3.387e-12
1.771e-10
-4.099e-12
1.807e-10
-4.829e-12
1.848e-10
-5.581e-12
1.895e-10
-6.358e-12
1.947e-10
-7.162e-12
2.006e-10
-7.993e-12
2.071e-10
-8.85e-12
2.143e-10
-9.731e-12
2.221e-10
-1.063e-11
2.306e-10
-1.155e-11
2.397e-10
-1.247e-11
2.496e-10
-1.339e-11
2.6e-10
-1.429e-11
2.711e-10
-1.516e-11
2.828e-10
-1.598e-11
2.951e-10
-1.673e-11
3.078e-10
-1.738e-11
3.209e-10
-1.791e-11
3.342e-10
-1.83e-11
3.477e-10
-1.851e-11
3.612e-10
-1.851e-11
3.746e-10
-1.83e-11
3.875e-10
-1.783e-11
4e-10
-1.709e-11
4.117e-10
-1.607e-11
4.224e-10
-1.478e-11
4.32e-10
-1.32e-11
4.403e-10
-1.138e-11
4.471e-10
-9.321e-12
4.522e-10
-7.078e-12
4.556e-10
-4.696e-12
4.573e-10
-2.231e-12
4.571e-10
2.58e-13
4.552e-10
2.714e-12
4.515e-10
5.081e-12
4.462e-10
7.314e-12
4.394e-10
9.373e-12
4.312e-10
1.123e-11
4.219e-10
1.286e-11
4.115e-10
1.425e-11
4.003e-10
1.54e-11
3.884e-10
1.631e-11
3.761e-10
1.699e-11
3.633e-10
1.744e-11
3.504e-10
1.769e-11
3.375e-10
1.774e-11
3.246e-10
1.763e-11
3.119e-10
1.736e-11
2.995e-10
1.696e-11
2.874e-10
1.645e-11
2.758e-10
1.585e-11
2.647e-10
1.518e-11
2.541e-10
1.446e-11
2.44e-10
1.37e-11
2.345e-10
1.292e-11
2.256e-10
1.213e-11
2.173e-10
1.134e-11
2.095e-10
1.057e-11
2.023e-10
9.808e-12
1.956e-10
9.076e-12
1.894e-10
8.373e-12
1.837e-10
7.703e-12
1.785e-10
7.069e-12
1.737e-10
6.47e-12
1.693e-10
5.909e-12
1.654e-10
5.385e-12
1.617e-10
4.897e-12
1.584e-10
4.445e-12
1.554e-10
4.028e-12
1.527e-10
3.643e-12
1.503e-10
3.289e-12
1.481e-10
2.965e-12
1.461e-10
2.669e-12
1.443e-10
2.398e-12
1.427e-10
2.152e-12
1.413e-10
1.928e-12
1.4e-10
1.725e-12
1.388e-10
1.542e-12
1.378e-10
1.376e-12
1.369e-10
1.227e-12
1.361e-10
1.093e-12
1.354e-10
9.736e-13
1.347e-10
8.675e-13
1.341e-10
7.742e-13
1.336e-10
6.93e-13
1.331e-10
6.237e-13
1.327e-10
5.663e-13
1.323e-10
5.211e-13
1.32e-10
4.888e-13
1.316e-10
4.706e-13
1.313e-10
4.689e-13
1.309e-10
4.868e-13
1.305e-10
5.291e-13
1.301e-10
6.015e-13
1.296e-10
7.028e-13
7.984e-13
9.779e-10
1.966e-10
9.637e-10
3.217e-10
9.013e-10
3.175e-10
8.212e-10
2.731e-10
7.409e-10
2.234e-10
6.678e-10
1.796e-10
6.044e-10
1.44e-10
5.504e-10
1.162e-10
5.048e-10
9.459e-11
4.664e-10
7.771e-11
4.34e-10
6.441e-11
4.065e-10
5.379e-11
3.832e-10
4.52e-11
3.633e-10
3.815e-11
3.464e-10
3.23e-11
3.32e-10
2.737e-11
3.197e-10
2.318e-11
3.093e-10
1.958e-11
3.006e-10
1.644e-11
2.933e-10
1.368e-11
2.873e-10
1.123e-11
2.825e-10
9.017e-12
2.787e-10
7.003e-12
2.76e-10
5.145e-12
2.741e-10
3.411e-12
2.732e-10
1.77e-12
2.731e-10
1.978e-13
2.738e-10
-1.327e-12
2.753e-10
-2.824e-12
2.776e-10
-4.309e-12
2.807e-10
-5.798e-12
2.846e-10
-7.304e-12
2.894e-10
-8.837e-12
2.949e-10
-1.041e-11
3.014e-10
-1.202e-11
3.087e-10
-1.369e-11
3.169e-10
-1.541e-11
3.261e-10
-1.718e-11
3.363e-10
-1.901e-11
3.474e-10
-2.088e-11
3.596e-10
-2.279e-11
3.728e-10
-2.473e-11
3.87e-10
-2.668e-11
4.022e-10
-2.861e-11
4.184e-10
-3.051e-11
4.356e-10
-3.233e-11
4.537e-10
-3.404e-11
4.725e-10
-3.559e-11
4.921e-10
-3.694e-11
5.122e-10
-3.803e-11
5.327e-10
-3.881e-11
5.534e-10
-3.922e-11
5.741e-10
-3.92e-11
5.945e-10
-3.871e-11
6.144e-10
-3.768e-11
6.334e-10
-3.61e-11
6.513e-10
-3.394e-11
6.677e-10
-3.119e-11
6.823e-10
-2.787e-11
6.95e-10
-2.401e-11
7.053e-10
-1.968e-11
7.132e-10
-1.496e-11
7.185e-10
-9.951e-12
7.21e-10
-4.769e-12
7.208e-10
4.666e-13
7.179e-10
5.634e-12
7.123e-10
1.062e-11
7.043e-10
1.533e-11
6.94e-10
1.968e-11
6.816e-10
2.361e-11
6.674e-10
2.707e-11
6.516e-10
3.004e-11
6.345e-10
3.25e-11
6.164e-10
3.446e-11
5.974e-10
3.593e-11
5.779e-10
3.693e-11
5.581e-10
3.75e-11
5.382e-10
3.766e-11
5.184e-10
3.745e-11
4.988e-10
3.692e-11
4.796e-10
3.612e-11
4.61e-10
3.507e-11
4.43e-10
3.383e-11
4.258e-10
3.244e-11
4.093e-10
3.093e-11
3.936e-10
2.935e-11
3.789e-10
2.771e-11
3.649e-10
2.605e-11
3.519e-10
2.439e-11
3.397e-10
2.274e-11
3.284e-10
2.114e-11
3.179e-10
1.959e-11
3.082e-10
1.809e-11
2.992e-10
1.667e-11
2.909e-10
1.531e-11
2.834e-10
1.403e-11
2.765e-10
1.283e-11
2.701e-10
1.171e-11
2.644e-10
1.066e-11
2.591e-10
9.69e-12
2.544e-10
8.791e-12
2.501e-10
7.961e-12
2.461e-10
7.198e-12
2.426e-10
6.497e-12
2.394e-10
5.856e-12
2.366e-10
5.27e-12
2.34e-10
4.736e-12
2.316e-10
4.25e-12
2.296e-10
3.808e-12
2.277e-10
3.408e-12
2.26e-10
3.047e-12
2.245e-10
2.721e-12
2.232e-10
2.429e-12
2.22e-10
2.167e-12
2.209e-10
1.934e-12
2.2e-10
1.729e-12
2.191e-10
1.55e-12
2.184e-10
1.396e-12
2.176e-10
1.268e-12
2.17e-10
1.164e-12
2.164e-10
1.087e-12
2.158e-10
1.038e-12
2.153e-10
1.018e-12
2.147e-10
1.032e-12
2.142e-10
1.081e-12
2.136e-10
1.166e-12
2.131e-10
1.275e-12
1.364e-12
9.752e-10
1.589e-10
9.93e-10
3.039e-10
9.727e-10
3.377e-10
9.268e-10
3.19e-10
8.689e-10
2.813e-10
8.082e-10
2.402e-10
7.5e-10
2.022e-10
6.967e-10
1.695e-10
6.491e-10
1.422e-10
6.072e-10
1.196e-10
5.706e-10
1.01e-10
5.388e-10
8.56e-11
5.112e-10
7.278e-11
4.873e-10
6.202e-11
4.667e-10
5.292e-11
4.49e-10
4.514e-11
4.337e-10
3.843e-11
4.207e-10
3.26e-11
4.096e-10
2.748e-11
4.004e-10
2.293e-11
3.928e-10
1.886e-11
3.866e-10
1.517e-11
3.818e-10
1.18e-11
3.783e-10
8.67e-12
3.76e-10
5.74e-12
3.748e-10
2.96e-12
3.747e-10
2.91e-13
3.756e-10
-2.302e-12
3.777e-10
-4.849e-12
3.807e-10
-7.378e-12
3.849e-10
-9.914e-12
3.9e-10
-1.248e-11
3.963e-10
-1.508e-11
4.036e-10
-1.775e-11
4.121e-10
-2.049e-11
4.217e-10
-2.331e-11
4.325e-10
-2.622e-11
4.446e-10
-2.922e-11
4.579e-10
-3.23e-11
4.724e-10
-3.546e-11
4.883e-10
-3.867e-11
5.055e-10
-4.193e-11
5.24e-10
-4.519e-11
5.438e-10
-4.842e-11
5.649e-10
-5.158e-11
5.872e-10
-5.461e-11
6.106e-10
-5.745e-11
6.35e-10
-6.002e-11
6.604e-10
-6.225e-11
6.864e-10
-6.404e-11
7.129e-10
-6.531e-11
7.396e-10
-6.595e-11
7.663e-10
-6.588e-11
7.926e-10
-6.501e-11
8.182e-10
-6.327e-11
8.426e-10
-6.059e-11
8.656e-10
-5.694e-11
8.868e-10
-5.232e-11
9.057e-10
-4.674e-11
9.219e-10
-4.028e-11
9.353e-10
-3.303e-11
9.454e-10
-2.513e-11
9.522e-10
-1.675e-11
9.556e-10
-8.08e-12
9.553e-10
6.806e-13
9.516e-10
9.331e-12
9.446e-10
1.769e-11
9.343e-10
2.558e-11
9.211e-10
3.288e-11
9.053e-10
3.949e-11
8.87e-10
4.531e-11
8.667e-10
5.032e-11
8.448e-10
5.449e-11
8.214e-10
5.782e-11
7.97e-10
6.034e-11
7.719e-10
6.207e-11
7.463e-10
6.307e-11
7.205e-10
6.339e-11
6.949e-10
6.31e-11
6.696e-10
6.227e-11
6.447e-10
6.096e-11
6.205e-10
5.925e-11
5.971e-10
5.721e-11
5.747e-10
5.491e-11
5.532e-10
5.241e-11
5.328e-10
4.977e-11
5.134e-10
4.704e-11
4.952e-10
4.426e-11
4.781e-10
4.148e-11
4.621e-10
3.873e-11
4.472e-10
3.604e-11
4.334e-10
3.342e-11
4.206e-10
3.091e-11
4.088e-10
2.85e-11
3.979e-10
2.621e-11
3.878e-10
2.405e-11
3.787e-10
2.201e-11
3.703e-10
2.011e-11
3.626e-10
1.833e-11
3.556e-10
1.668e-11
3.493e-10
1.515e-11
3.435e-10
1.373e-11
3.383e-10
1.243e-11
3.335e-10
1.123e-11
3.292e-10
1.014e-11
3.254e-10
9.132e-12
3.219e-10
8.216e-12
3.188e-10
7.382e-12
3.159e-10
6.624e-12
3.134e-10
5.936e-12
3.112e-10
5.314e-12
3.091e-10
4.752e-12
3.073e-10
4.247e-12
3.057e-10
3.794e-12
3.042e-10
3.391e-12
3.029e-10
3.034e-12
3.017e-10
2.722e-12
3.007e-10
2.452e-12
2.997e-10
2.225e-12
2.989e-10
2.038e-12
2.98e-10
1.894e-12
2.973e-10
1.792e-12
2.966e-10
1.735e-12
2.959e-10
1.724e-12
2.952e-10
1.758e-12
2.945e-10
1.832e-12
2.939e-10
1.928e-12
2.002e-12
9.668e-10
1.296e-10
9.944e-10
2.762e-10
9.978e-10
3.343e-10
9.779e-10
3.389e-10
9.423e-10
3.169e-10
8.983e-10
2.842e-10
8.514e-10
2.492e-10
8.05e-10
2.159e-10
7.611e-10
1.861e-10
7.207e-10
1.6e-10
6.842e-10
1.375e-10
6.515e-10
1.183e-10
6.225e-10
1.018e-10
5.969e-10
8.762e-11
5.744e-10
7.537e-11
5.548e-10
6.473e-11
5.378e-10
5.543e-11
5.232e-10
4.724e-11
5.107e-10
3.997e-11
5.002e-10
3.346e-11
4.914e-10
2.758e-11
4.844e-10
2.222e-11
4.789e-10
1.729e-11
4.749e-10
1.27e-11
4.722e-10
8.372e-12
4.709e-10
4.257e-12
4.709e-10
2.955e-13
4.722e-10
-3.561e-12
4.747e-10
-7.356e-12
4.784e-10
-1.113e-11
4.834e-10
-1.491e-11
4.897e-10
-1.873e-11
4.972e-10
-2.262e-11
5.061e-10
-2.66e-11
5.163e-10
-3.068e-11
5.278e-10
-3.488e-11
5.408e-10
-3.92e-11
5.553e-10
-4.365e-11
5.712e-10
-4.822e-11
5.886e-10
-5.289e-11
6.076e-10
-5.765e-11
6.281e-10
-6.246e-11
6.502e-10
-6.727e-11
6.738e-10
-7.203e-11
6.989e-10
-7.668e-11
7.254e-10
-8.113e-11
7.533e-10
-8.53e-11
7.823e-10
-8.906e-11
8.124e-10
-9.231e-11
8.433e-10
-9.492e-11
8.747e-10
-9.675e-11
9.064e-10
-9.766e-11
9.38e-10
-9.752e-11
9.692e-10
-9.621e-11
9.996e-10
-9.361e-11
1.029e-09
-8.963e-11
1.056e-09
-8.423e-11
1.081e-09
-7.739e-11
1.103e-09
-6.915e-11
1.123e-09
-5.96e-11
1.139e-09
-4.889e-11
1.151e-09
-3.723e-11
1.159e-09
-2.485e-11
1.163e-09
-1.205e-11
1.163e-09
8.932e-13
1.158e-09
1.367e-11
1.15e-09
2.601e-11
1.138e-09
3.768e-11
1.122e-09
4.848e-11
1.103e-09
5.825e-11
1.082e-09
6.688e-11
1.058e-09
7.431e-11
1.032e-09
8.051e-11
1.004e-09
8.548e-11
9.752e-10
8.925e-11
9.454e-10
9.187e-11
9.151e-10
9.34e-11
8.846e-10
9.394e-11
8.541e-10
9.357e-11
8.24e-10
9.24e-11
7.944e-10
9.052e-11
7.656e-10
8.805e-11
7.377e-10
8.508e-11
7.109e-10
8.173e-11
6.853e-10
7.807e-11
6.608e-10
7.419e-11
6.377e-10
7.018e-11
6.159e-10
6.609e-11
5.954e-10
6.199e-11
5.762e-10
5.793e-11
5.583e-10
5.395e-11
5.416e-10
5.008e-11
5.262e-10
4.635e-11
5.119e-10
4.278e-11
4.987e-10
3.938e-11
4.866e-10
3.616e-11
4.755e-10
3.313e-11
4.653e-10
3.029e-11
4.56e-10
2.764e-11
4.475e-10
2.517e-11
4.397e-10
2.289e-11
4.327e-10
2.077e-11
4.263e-10
1.882e-11
4.205e-10
1.702e-11
4.153e-10
1.538e-11
4.106e-10
1.387e-11
4.063e-10
1.249e-11
4.024e-10
1.123e-11
3.99e-10
1.009e-11
3.958e-10
9.053e-12
3.93e-10
8.113e-12
3.905e-10
7.264e-12
3.883e-10
6.499e-12
3.863e-10
5.812e-12
3.845e-10
5.2e-12
3.828e-10
4.656e-12
3.814e-10
4.179e-12
3.801e-10
3.764e-12
3.789e-10
3.41e-12
3.778e-10
3.116e-12
3.768e-10
2.881e-12
3.759e-10
2.705e-12
3.75e-10
2.589e-12
3.742e-10
2.531e-12
3.735e-10
2.528e-12
3.727e-10
2.572e-12
3.72e-10
2.642e-12
2.697e-12
9.592e-10
1.08e-10
9.875e-10
2.479e-10
1.003e-09
3.192e-10
1e-09
3.416e-10
9.823e-10
3.347e-10
9.541e-10
3.124e-10
9.199e-10
2.834e-10
8.83e-10
2.528e-10
8.459e-10
2.231e-10
8.101e-10
1.958e-10
7.765e-10
1.712e-10
7.455e-10
1.493e-10
7.173e-10
1.3e-10
6.919e-10
1.13e-10
6.692e-10
9.802e-11
6.492e-10
8.477e-11
6.316e-10
7.301e-11
6.163e-10
6.252e-11
6.032e-10
5.311e-11
5.92e-10
4.46e-11
5.828e-10
3.685e-11
5.753e-10
2.973e-11
5.694e-10
2.313e-11
5.652e-10
1.695e-11
5.624e-10
1.111e-11
5.612e-10
5.528e-12
5.613e-10
1.365e-13
5.629e-10
-5.126e-12
5.658e-10
-1.031e-11
5.702e-10
-1.548e-11
5.759e-10
-2.066e-11
5.831e-10
-2.59e-11
5.917e-10
-3.123e-11
6.018e-10
-3.668e-11
6.134e-10
-4.227e-11
6.265e-10
-4.802e-11
6.413e-10
-5.394e-11
6.576e-10
-6.002e-11
6.757e-10
-6.626e-11
6.954e-10
-7.264e-11
7.169e-10
-7.912e-11
7.401e-10
-8.567e-11
7.65e-10
-9.222e-11
7.917e-10
-9.87e-11
8.2e-10
-1.05e-10
8.5e-10
-1.111e-10
8.814e-10
-1.167e-10
9.141e-10
-1.218e-10
9.48e-10
-1.262e-10
9.828e-10
-1.297e-10
1.018e-09
-1.322e-10
1.054e-09
-1.334e-10
1.09e-09
-1.332e-10
1.125e-09
-1.314e-10
1.159e-09
-1.279e-10
1.192e-09
-1.224e-10
1.223e-09
-1.151e-10
1.251e-09
-1.058e-10
1.277e-09
-9.452e-11
1.299e-09
-8.149e-11
1.317e-09
-6.687e-11
1.33e-09
-5.095e-11
1.339e-09
-3.404e-11
1.344e-09
-1.656e-11
1.344e-09
1.115e-12
1.339e-09
1.856e-11
1.329e-09
3.541e-11
1.316e-09
5.134e-11
1.298e-09
6.608e-11
1.277e-09
7.942e-11
1.253e-09
9.121e-11
1.226e-09
1.014e-10
1.196e-09
1.099e-10
1.165e-09
1.167e-10
1.133e-09
1.218e-10
1.099e-09
1.255e-10
1.065e-09
1.276e-10
1.03e-09
1.284e-10
9.959e-10
1.28e-10
9.618e-10
1.264e-10
9.285e-10
1.239e-10
8.959e-10
1.206e-10
8.644e-10
1.166e-10
8.341e-10
1.121e-10
8.05e-10
1.071e-10
7.774e-10
1.018e-10
7.512e-10
9.64e-11
7.264e-10
9.084e-11
7.031e-10
8.527e-11
6.813e-10
7.974e-11
6.61e-10
7.431e-11
6.42e-10
6.903e-11
6.244e-10
6.394e-11
6.081e-10
5.906e-11
5.931e-10
5.441e-11
5.793e-10
5.001e-11
5.665e-10
4.585e-11
5.549e-10
4.196e-11
5.442e-10
3.832e-11
5.344e-10
3.493e-11
5.256e-10
3.178e-11
5.175e-10
2.887e-11
5.101e-10
2.618e-11
5.034e-10
2.37e-11
4.974e-10
2.143e-11
4.919e-10
1.934e-11
4.869e-10
1.744e-11
4.825e-10
1.57e-11
4.785e-10
1.411e-11
4.748e-10
1.267e-11
4.716e-10
1.137e-11
4.687e-10
1.019e-11
4.66e-10
9.125e-12
4.637e-10
8.168e-12
4.616e-10
7.312e-12
4.597e-10
6.551e-12
4.58e-10
5.88e-12
4.564e-10
5.294e-12
4.551e-10
4.79e-12
4.538e-10
4.365e-12
4.527e-10
4.018e-12
4.516e-10
3.748e-12
4.507e-10
3.552e-12
4.498e-10
3.428e-12
4.489e-10
3.37e-12
4.481e-10
3.368e-12
4.474e-10
3.401e-12
3.435e-12
9.536e-10
9.186e-11
9.794e-10
2.221e-10
9.995e-10
2.992e-10
1.007e-09
3.338e-10
1.002e-09
3.395e-10
9.873e-10
3.275e-10
9.649e-10
3.058e-10
9.38e-10
2.797e-10
9.089e-10
2.522e-10
8.792e-10
2.254e-10
8.502e-10
2.002e-10
8.226e-10
1.769e-10
7.968e-10
1.558e-10
7.731e-10
1.367e-10
7.516e-10
1.196e-10
7.322e-10
1.041e-10
7.151e-10
9.019e-11
7e-10
7.761e-11
6.869e-10
6.618e-11
6.758e-10
5.574e-11
6.665e-10
4.615e-11
6.589e-10
3.727e-11
6.531e-10
2.898e-11
6.488e-10
2.118e-11
6.462e-10
1.376e-11
6.451e-10
6.645e-12
6.455e-10
-2.558e-13
6.473e-10
-7.011e-12
6.507e-10
-1.369e-11
6.556e-10
-2.034e-11
6.619e-10
-2.703e-11
6.698e-10
-3.379e-11
6.793e-10
-4.068e-11
6.903e-10
-4.772e-11
7.03e-10
-5.495e-11
7.174e-10
-6.237e-11
7.334e-10
-7.001e-11
7.513e-10
-7.786e-11
7.709e-10
-8.591e-11
7.924e-10
-9.413e-11
8.158e-10
-1.025e-10
8.41e-10
-1.109e-10
8.682e-10
-1.193e-10
8.971e-10
-1.277e-10
9.279e-10
-1.358e-10
9.605e-10
-1.436e-10
9.946e-10
-1.509e-10
1.03e-09
-1.574e-10
1.067e-09
-1.631e-10
1.105e-09
-1.677e-10
1.144e-09
-1.708e-10
1.183e-09
-1.724e-10
1.222e-09
-1.722e-10
1.26e-09
-1.699e-10
1.298e-09
-1.653e-10
1.334e-09
-1.584e-10
1.367e-09
-1.489e-10
1.398e-09
-1.369e-10
1.426e-09
-1.224e-10
1.45e-09
-1.055e-10
1.47e-09
-8.664e-11
1.485e-09
-6.603e-11
1.495e-09
-4.415e-11
1.5e-09
-2.151e-11
1.5e-09
1.37e-12
1.495e-09
2.395e-11
1.484e-09
4.574e-11
1.469e-09
6.633e-11
1.45e-09
8.536e-11
1.427e-09
1.026e-10
1.4e-09
1.178e-10
1.371e-09
1.309e-10
1.339e-09
1.419e-10
1.305e-09
1.507e-10
1.269e-09
1.574e-10
1.233e-09
1.621e-10
1.195e-09
1.649e-10
1.158e-09
1.66e-10
1.12e-09
1.654e-10
1.083e-09
1.635e-10
1.047e-09
1.603e-10
1.011e-09
1.56e-10
9.77e-10
1.509e-10
9.439e-10
1.451e-10
9.123e-10
1.388e-10
8.821e-10
1.32e-10
8.535e-10
1.25e-10
8.265e-10
1.179e-10
8.011e-10
1.107e-10
7.772e-10
1.036e-10
7.55e-10
9.657e-11
7.342e-10
8.977e-11
7.15e-10
8.319e-11
6.972e-10
7.689e-11
6.807e-10
7.089e-11
6.655e-10
6.519e-11
6.515e-10
5.982e-11
6.387e-10
5.478e-11
6.27e-10
5.006e-11
6.162e-10
4.567e-11
6.064e-10
4.158e-11
5.975e-10
3.78e-11
5.894e-10
3.43e-11
5.82e-10
3.108e-11
5.753e-10
2.812e-11
5.692e-10
2.541e-11
5.637e-10
2.292e-11
5.588e-10
2.065e-11
5.543e-10
1.859e-11
5.503e-10
1.67e-11
5.466e-10
1.5e-11
5.434e-10
1.345e-11
5.404e-10
1.206e-11
5.378e-10
1.08e-11
5.355e-10
9.673e-12
5.333e-10
8.67e-12
5.314e-10
7.782e-12
5.297e-10
7.003e-12
5.282e-10
6.328e-12
5.268e-10
5.753e-12
5.255e-10
5.275e-12
5.244e-10
4.891e-12
5.234e-10
4.597e-12
5.224e-10
4.39e-12
5.215e-10
4.262e-12
5.207e-10
4.202e-12
5.199e-10
4.192e-12
4.202e-12
9.498e-10
7.96e-11
9.724e-10
1.994e-10
9.937e-10
2.778e-10
1.007e-09
3.201e-10
1.011e-09
3.355e-10
1.006e-09
3.327e-10
9.937e-10
3.183e-10
9.759e-10
2.974e-10
9.548e-10
2.734e-10
9.318e-10
2.484e-10
9.083e-10
2.237e-10
8.851e-10
2.002e-10
8.627e-10
1.781e-10
8.417e-10
1.578e-10
8.222e-10
1.39e-10
8.045e-10
1.219e-10
7.885e-10
1.062e-10
7.743e-10
9.178e-11
7.619e-10
7.856e-11
7.513e-10
6.636e-11
7.424e-10
5.505e-11
7.352e-10
4.448e-11
7.296e-10
3.456e-11
7.256e-10
2.515e-11
7.232e-10
1.616e-11
7.224e-10
7.496e-12
7.231e-10
-9.386e-13
7.253e-10
-9.221e-12
7.29e-10
-1.743e-11
7.343e-10
-2.562e-11
7.412e-10
-3.387e-11
7.496e-10
-4.223e-11
7.597e-10
-5.074e-11
7.714e-10
-5.945e-11
7.848e-10
-6.838e-11
8e-10
-7.757e-11
8.17e-10
-8.701e-11
8.359e-10
-9.672e-11
8.566e-10
-1.067e-10
8.793e-10
-1.168e-10
9.04e-10
-1.272e-10
9.307e-10
-1.376e-10
9.593e-10
-1.48e-10
9.899e-10
-1.583e-10
1.022e-09
-1.684e-10
1.057e-09
-1.78e-10
1.093e-09
-1.87e-10
1.131e-09
-1.951e-10
1.17e-09
-2.022e-10
1.21e-09
-2.079e-10
1.251e-09
-2.119e-10
1.293e-09
-2.139e-10
1.334e-09
-2.137e-10
1.375e-09
-2.109e-10
1.415e-09
-2.054e-10
1.454e-09
-1.968e-10
1.49e-09
-1.851e-10
1.523e-09
-1.703e-10
1.553e-09
-1.523e-10
1.579e-09
-1.314e-10
1.6e-09
-1.079e-10
1.616e-09
-8.226e-11
1.627e-09
-5.5e-11
1.633e-09
-2.679e-11
1.632e-09
1.698e-12
1.626e-09
2.98e-11
1.615e-09
5.689e-11
1.599e-09
8.245e-11
1.578e-09
1.061e-10
1.554e-09
1.274e-10
1.525e-09
1.462e-10
1.494e-09
1.625e-10
1.459e-09
1.76e-10
1.423e-09
1.869e-10
1.385e-09
1.952e-10
1.346e-09
2.011e-10
1.307e-09
2.045e-10
1.267e-09
2.058e-10
1.227e-09
2.052e-10
1.188e-09
2.028e-10
1.149e-09
1.989e-10
1.112e-09
1.936e-10
1.075e-09
1.873e-10
1.04e-09
1.801e-10
1.007e-09
1.723e-10
9.747e-10
1.64e-10
9.444e-10
1.553e-10
9.158e-10
1.465e-10
8.889e-10
1.376e-10
8.636e-10
1.288e-10
8.4e-10
1.202e-10
8.18e-10
1.118e-10
7.976e-10
1.036e-10
7.787e-10
9.582e-11
7.612e-10
8.839e-11
7.45e-10
8.133e-11
7.302e-10
7.468e-11
7.165e-10
6.842e-11
7.04e-10
6.257e-11
6.926e-10
5.711e-11
6.821e-10
5.203e-11
6.726e-10
4.733e-11
6.639e-10
4.298e-11
6.56e-10
3.898e-11
6.489e-10
3.529e-11
6.424e-10
3.191e-11
6.365e-10
2.881e-11
6.312e-10
2.597e-11
6.264e-10
2.339e-11
6.22e-10
2.104e-11
6.181e-10
1.89e-11
6.146e-10
1.697e-11
6.114e-10
1.521e-11
6.086e-10
1.364e-11
6.061e-10
1.222e-11
6.038e-10
1.096e-11
6.017e-10
9.834e-12
5.999e-10
8.844e-12
5.982e-10
7.982e-12
5.967e-10
7.241e-12
5.954e-10
6.617e-12
5.942e-10
6.104e-12
5.931e-10
5.699e-12
5.921e-10
5.395e-12
5.912e-10
5.186e-12
5.903e-10
5.059e-12
5.895e-10
5e-12
4.984e-12
9.471e-10
6.996e-11
9.668e-10
1.798e-10
9.877e-10
2.568e-10
1.004e-09
3.035e-10
1.014e-09
3.26e-10
1.016e-09
3.305e-10
1.011e-09
3.229e-10
1.002e-09
3.073e-10
9.878e-10
2.872e-10
9.714e-10
2.648e-10
9.535e-10
2.416e-10
9.351e-10
2.186e-10
9.167e-10
1.965e-10
8.99e-10
1.755e-10
8.822e-10
1.558e-10
8.667e-10
1.374e-10
8.525e-10
1.204e-10
8.397e-10
1.045e-10
8.285e-10
8.978e-11
8.188e-10
7.604e-11
8.107e-10
6.318e-11
8.041e-10
5.107e-11
7.99e-10
3.961e-11
7.955e-10
2.868e-11
7.935e-10
1.817e-11
7.93e-10
7.994e-12
7.94e-10
-1.95e-12
7.966e-10
-1.175e-11
8.006e-10
-2.148e-11
8.062e-10
-3.123e-11
8.134e-10
-4.105e-11
8.222e-10
-5.102e-11
8.326e-10
-6.118e-11
8.448e-10
-7.158e-11
8.586e-10
-8.226e-11
8.743e-10
-9.324e-11
8.918e-10
-1.045e-10
9.113e-10
-1.161e-10
9.326e-10
-1.28e-10
9.56e-10
-1.402e-10
9.814e-10
-1.526e-10
1.009e-09
-1.65e-10
1.038e-09
-1.775e-10
1.07e-09
-1.899e-10
1.104e-09
-2.02e-10
1.139e-09
-2.135e-10
1.176e-09
-2.244e-10
1.216e-09
-2.342e-10
1.256e-09
-2.427e-10
1.298e-09
-2.496e-10
1.34e-09
-2.545e-10
1.384e-09
-2.571e-10
1.427e-09
-2.57e-10
1.47e-09
-2.538e-10
1.512e-09
-2.473e-10
1.552e-09
-2.372e-10
1.59e-09
-2.233e-10
1.626e-09
-2.055e-10
1.657e-09
-1.839e-10
1.685e-09
-1.588e-10
1.707e-09
-1.304e-10
1.724e-09
-9.941e-11
1.736e-09
-6.644e-11
1.741e-09
-3.231e-11
1.741e-09
2.147e-12
1.734e-09
3.609e-11
1.723e-09
6.877e-11
1.705e-09
9.955e-11
1.684e-09
1.279e-10
1.657e-09
1.535e-10
1.628e-09
1.761e-10
1.594e-09
1.956e-10
1.559e-09
2.118e-10
1.521e-09
2.248e-10
1.481e-09
2.347e-10
1.441e-09
2.417e-10
1.4e-09
2.458e-10
1.358e-09
2.473e-10
1.317e-09
2.465e-10
1.276e-09
2.436e-10
1.236e-09
2.389e-10
1.197e-09
2.326e-10
1.159e-09
2.25e-10
1.123e-09
2.164e-10
1.088e-09
2.07e-10
1.055e-09
1.97e-10
1.024e-09
1.866e-10
9.942e-10
1.761e-10
9.664e-10
1.655e-10
9.403e-10
1.549e-10
9.159e-10
1.446e-10
8.932e-10
1.345e-10
8.721e-10
1.247e-10
8.525e-10
1.154e-10
8.344e-10
1.065e-10
8.177e-10
9.803e-11
8.024e-10
9.005e-11
7.882e-10
8.255e-11
7.753e-10
7.552e-11
7.634e-10
6.897e-11
7.526e-10
6.288e-11
7.427e-10
5.723e-11
7.337e-10
5.2e-11
7.255e-10
4.718e-11
7.18e-10
4.274e-11
7.113e-10
3.867e-11
7.051e-10
3.494e-11
6.996e-10
3.152e-11
6.946e-10
2.84e-11
6.9e-10
2.556e-11
6.86e-10
2.298e-11
6.823e-10
2.064e-11
6.79e-10
1.852e-11
6.76e-10
1.661e-11
6.733e-10
1.489e-11
6.709e-10
1.335e-11
6.688e-10
1.198e-11
6.669e-10
1.077e-11
6.651e-10
9.71e-12
6.636e-10
8.792e-12
6.622e-10
8.01e-12
6.609e-10
7.358e-12
6.598e-10
6.83e-12
6.588e-10
6.421e-12
6.578e-10
6.121e-12
6.57e-10
5.922e-12
6.562e-10
5.809e-12
5.767e-12
9.453e-10
6.214e-11
9.624e-10
1.628e-10
9.822e-10
2.37e-10
1e-09
2.857e-10
1.013e-09
3.129e-10
1.02e-09
3.233e-10
1.022e-09
3.213e-10
1.019e-09
3.108e-10
1.011e-09
2.946e-10
1.001e-09
2.752e-10
9.883e-10
2.54e-10
9.747e-10
2.323e-10
9.605e-10
2.106e-10
9.464e-10
1.896e-10
9.327e-10
1.695e-10
9.197e-10
1.504e-10
9.077e-10
1.324e-10
8.967e-10
1.155e-10
8.87e-10
9.95e-11
8.786e-10
8.447e-11
8.715e-10
7.027e-11
8.658e-10
5.679e-11
8.614e-10
4.394e-11
8.585e-10
3.161e-11
8.57e-10
1.969e-11
8.569e-10
8.081e-12
8.583e-10
-3.306e-12
8.611e-10
-1.457e-11
8.654e-10
-2.578e-11
8.712e-10
-3.704e-11
8.786e-10
-4.841e-11
8.875e-10
-5.997e-11
8.981e-10
-7.176e-11
9.104e-10
-8.384e-11
9.244e-10
-9.626e-11
9.402e-10
-1.09e-10
9.578e-10
-1.222e-10
9.773e-10
-1.357e-10
9.989e-10
-1.496e-10
1.022e-09
-1.637e-10
1.048e-09
-1.781e-10
1.076e-09
-1.927e-10
1.105e-09
-2.073e-10
1.137e-09
-2.218e-10
1.171e-09
-2.359e-10
1.207e-09
-2.495e-10
1.245e-09
-2.622e-10
1.285e-09
-2.738e-10
1.326e-09
-2.839e-10
1.368e-09
-2.922e-10
1.412e-09
-2.981e-10
1.456e-09
-3.014e-10
1.501e-09
-3.015e-10
1.545e-09
-2.98e-10
1.588e-09
-2.906e-10
1.63e-09
-2.79e-10
1.669e-09
-2.628e-10
1.706e-09
-2.421e-10
1.739e-09
-2.169e-10
1.768e-09
-1.873e-10
1.791e-09
-1.539e-10
1.809e-09
-1.173e-10
1.821e-09
-7.831e-11
1.826e-09
-3.794e-11
1.826e-09
2.781e-12
1.819e-09
4.283e-11
1.806e-09
8.132e-11
1.789e-09
1.175e-10
1.766e-09
1.507e-10
1.739e-09
1.807e-10
1.708e-09
2.071e-10
1.673e-09
2.297e-10
1.637e-09
2.486e-10
1.598e-09
2.637e-10
1.557e-09
2.752e-10
1.516e-09
2.832e-10
1.473e-09
2.88e-10
1.431e-09
2.897e-10
1.389e-09
2.887e-10
1.347e-09
2.852e-10
1.307e-09
2.796e-10
1.267e-09
2.722e-10
1.229e-09
2.633e-10
1.192e-09
2.532e-10
1.157e-09
2.422e-10
1.123e-09
2.305e-10
1.092e-09
2.183e-10
1.062e-09
2.06e-10
1.034e-09
1.936e-10
1.007e-09
1.813e-10
9.826e-10
1.692e-10
9.597e-10
1.574e-10
9.384e-10
1.46e-10
9.186e-10
1.351e-10
9.004e-10
1.247e-10
8.835e-10
1.149e-10
8.68e-10
1.056e-10
8.537e-10
9.681e-11
8.406e-10
8.861e-11
8.286e-10
8.096e-11
8.177e-10
7.384e-11
8.077e-10
6.724e-11
7.985e-10
6.113e-11
7.902e-10
5.549e-11
7.827e-10
5.03e-11
7.758e-10
4.553e-11
7.696e-10
4.116e-11
7.639e-10
3.716e-11
7.589e-10
3.35e-11
7.542e-10
3.017e-11
7.501e-10
2.714e-11
7.463e-10
2.439e-11
7.43e-10
2.189e-11
7.399e-10
1.964e-11
7.372e-10
1.761e-11
7.348e-10
1.58e-11
7.326e-10
1.417e-11
7.306e-10
1.273e-11
7.289e-10
1.147e-11
7.273e-10
1.037e-11
7.259e-10
9.42e-12
7.246e-10
8.622e-12
7.235e-10
7.965e-12
7.225e-10
7.443e-12
7.215e-10
7.049e-12
7.207e-10
6.773e-12
7.199e-10
6.605e-12
6.535e-12
9.44e-10
5.563e-11
9.59e-10
1.478e-10
9.775e-10
2.184e-10
9.956e-10
2.675e-10
1.011e-09
2.977e-10
1.022e-09
3.124e-10
1.028e-09
3.151e-10
1.029e-09
3.09e-10
1.027e-09
2.967e-10
1.022e-09
2.803e-10
1.015e-09
2.615e-10
1.006e-09
2.413e-10
9.957e-10
2.207e-10
9.852e-10
2.001e-10
9.747e-10
1.8e-10
9.645e-10
1.606e-10
9.549e-10
1.421e-10
9.46e-10
1.243e-10
9.38e-10
1.075e-10
9.311e-10
9.143e-11
9.252e-10
7.613e-11
9.205e-10
6.149e-11
9.17e-10
4.743e-11
9.148e-10
3.384e-11
9.138e-10
2.064e-11
9.142e-10
7.729e-12
9.159e-10
-4.997e-12
9.189e-10
-1.763e-11
9.234e-10
-3.025e-11
9.293e-10
-4.295e-11
9.367e-10
-5.58e-11
9.456e-10
-6.888e-11
9.561e-10
-8.225e-11
9.682e-10
-9.596e-11
9.82e-10
-1.101e-10
9.976e-10
-1.246e-10
1.015e-09
-1.395e-10
1.034e-09
-1.549e-10
1.055e-09
-1.707e-10
1.079e-09
-1.869e-10
1.104e-09
-2.034e-10
1.131e-09
-2.2e-10
1.16e-09
-2.367e-10
1.192e-09
-2.533e-10
1.225e-09
-2.695e-10
1.261e-09
-2.851e-10
1.299e-09
-2.998e-10
1.338e-09
-3.133e-10
1.379e-09
-3.251e-10
1.422e-09
-3.347e-10
1.466e-09
-3.418e-10
1.51e-09
-3.459e-10
1.555e-09
-3.463e-10
1.6e-09
-3.427e-10
1.644e-09
-3.346e-10
1.686e-09
-3.216e-10
1.727e-09
-3.033e-10
1.764e-09
-2.797e-10
1.798e-09
-2.507e-10
1.828e-09
-2.167e-10
1.852e-09
-1.781e-10
1.87e-09
-1.357e-10
1.882e-09
-9.043e-11
1.888e-09
-4.355e-11
1.887e-09
3.675e-12
1.88e-09
5.004e-11
1.867e-09
9.446e-11
1.848e-09
1.361e-10
1.825e-09
1.743e-10
1.797e-09
2.085e-10
1.765e-09
2.386e-10
1.731e-09
2.644e-10
1.693e-09
2.859e-10
1.654e-09
3.031e-10
1.613e-09
3.161e-10
1.571e-09
3.251e-10
1.529e-09
3.304e-10
1.486e-09
3.322e-10
1.444e-09
3.309e-10
1.402e-09
3.268e-10
1.362e-09
3.203e-10
1.322e-09
3.117e-10
1.284e-09
3.014e-10
1.247e-09
2.898e-10
1.212e-09
2.771e-10
1.179e-09
2.637e-10
1.148e-09
2.498e-10
1.118e-09
2.356e-10
1.09e-09
2.214e-10
1.064e-09
2.073e-10
1.04e-09
1.935e-10
1.017e-09
1.801e-10
9.964e-10
1.671e-10
9.769e-10
1.546e-10
9.589e-10
1.428e-10
9.423e-10
1.315e-10
9.27e-10
1.209e-10
9.129e-10
1.109e-10
9e-10
1.015e-10
8.882e-10
9.279e-11
8.773e-10
8.466e-11
8.675e-10
7.712e-11
8.584e-10
7.014e-11
8.502e-10
6.37e-11
8.428e-10
5.777e-11
8.36e-10
5.232e-11
8.298e-10
4.732e-11
8.242e-10
4.274e-11
8.192e-10
3.855e-11
8.146e-10
3.474e-11
8.105e-10
3.126e-11
8.068e-10
2.81e-11
8.034e-10
2.524e-11
8.004e-10
2.265e-11
7.977e-10
2.032e-11
7.953e-10
1.822e-11
7.931e-10
1.635e-11
7.912e-10
1.468e-11
7.894e-10
1.321e-11
7.879e-10
1.192e-11
7.865e-10
1.081e-11
7.852e-10
9.865e-12
7.841e-10
9.077e-12
7.831e-10
8.441e-12
7.822e-10
7.949e-12
7.814e-10
7.595e-12
7.806e-10
7.372e-12
7.273e-12
9.43e-10
5.009e-11
9.563e-10
1.346e-10
9.735e-10
2.012e-10
9.914e-10
2.496e-10
1.008e-09
2.815e-10
1.021e-09
2.992e-10
1.03e-09
3.056e-10
1.036e-09
3.033e-10
1.038e-09
2.944e-10
1.038e-09
2.81e-10
1.035e-09
2.645e-10
1.03e-09
2.462e-10
1.024e-09
2.268e-10
1.017e-09
2.07e-10
1.009e-09
1.873e-10
1.002e-09
1.68e-10
9.949e-10
1.492e-10
9.882e-10
1.311e-10
9.821e-10
1.136e-10
9.767e-10
9.681e-11
9.722e-10
8.065e-11
9.686e-10
6.507e-11
9.66e-10
4.999e-11
9.645e-10
3.534e-11
9.642e-10
2.102e-11
9.65e-10
6.939e-12
9.669e-10
-6.991e-12
9.702e-10
-2.087e-11
9.747e-10
-3.478e-11
9.806e-10
-4.881e-11
9.878e-10
-6.304e-11
9.965e-10
-7.755e-11
1.007e-09
-9.24e-11
1.018e-09
-1.077e-10
1.032e-09
-1.234e-10
1.047e-09
-1.396e-10
1.063e-09
-1.563e-10
1.082e-09
-1.734e-10
1.102e-09
-1.911e-10
1.125e-09
-2.092e-10
1.149e-09
-2.276e-10
1.175e-09
-2.463e-10
1.204e-09
-2.651e-10
1.234e-09
-2.837e-10
1.267e-09
-3.021e-10
1.301e-09
-3.197e-10
1.338e-09
-3.365e-10
1.376e-09
-3.518e-10
1.417e-09
-3.653e-10
1.459e-09
-3.766e-10
1.502e-09
-3.85e-10
1.546e-09
-3.899e-10
1.59e-09
-3.909e-10
1.635e-09
-3.873e-10
1.679e-09
-3.786e-10
1.722e-09
-3.644e-10