/*--------------------------------*- C++ -*----------------------------------*\
  =========                 |
  \\      /  F ield         | OpenFOAM: The Open Source CFD Toolbox
   \\    /   O peration     | Website:  https://openfoam.org
    \\  /    A nd           | Version:  7
     \\/     M anipulation  |
\*---------------------------------------------------------------------------*/
FoamFile
{
    version     2.0;
    format      ascii;
    class       volVectorField;
    location    "1979.99947343146641";
    object      U;
}
// * * * * * * * * * * * * * * * * * * * * * * * * * * * * * * * * * * * * * //

dimensions      [0 1 -1 0 0 0 0];

internalField   nonuniform List<vector> 
4096
(
(0.001039 0.0001611 0)
(0.0007463 0.0001314 0)
(0.0005302 8.473e-05 0)
(0.0003919 5.358e-05 0)
(0.0003036 3.467e-05 0)
(0.0002457 2.328e-05 0)
(0.0002061 1.633e-05 0)
(0.0001778 1.195e-05 0)
(0.0001568 9.063e-06 0)
(0.0001406 7.076e-06 0)
(0.0001279 5.65e-06 0)
(0.0001177 4.588e-06 0)
(0.0001093 3.773e-06 0)
(0.0001024 3.132e-06 0)
(9.666e-05 2.617e-06 0)
(9.185e-05 2.194e-06 0)
(8.781e-05 1.842e-06 0)
(8.443e-05 1.544e-06 0)
(8.159e-05 1.289e-06 0)
(7.924e-05 1.066e-06 0)
(7.73e-05 8.708e-07 0)
(7.573e-05 6.962e-07 0)
(7.45e-05 5.383e-07 0)
(7.357e-05 3.935e-07 0)
(7.292e-05 2.588e-07 0)
(7.252e-05 1.318e-07 0)
(7.238e-05 1.038e-08 0)
(7.248e-05 -1.074e-07 0)
(7.281e-05 -2.23e-07 0)
(7.337e-05 -3.379e-07 0)
(7.416e-05 -4.534e-07 0)
(7.519e-05 -5.705e-07 0)
(7.645e-05 -6.902e-07 0)
(7.795e-05 -8.133e-07 0)
(7.97e-05 -9.404e-07 0)
(8.172e-05 -1.072e-06 0)
(8.4e-05 -1.209e-06 0)
(8.656e-05 -1.351e-06 0)
(8.94e-05 -1.497e-06 0)
(9.255e-05 -1.649e-06 0)
(9.6e-05 -1.804e-06 0)
(9.977e-05 -1.963e-06 0)
(0.0001039 -2.123e-06 0)
(0.0001083 -2.283e-06 0)
(0.000113 -2.441e-06 0)
(0.000118 -2.595e-06 0)
(0.0001234 -2.74e-06 0)
(0.000129 -2.873e-06 0)
(0.0001348 -2.991e-06 0)
(0.0001409 -3.088e-06 0)
(0.0001472 -3.16e-06 0)
(0.0001535 -3.202e-06 0)
(0.0001599 -3.209e-06 0)
(0.0001663 -3.176e-06 0)
(0.0001726 -3.1e-06 0)
(0.0001787 -2.976e-06 0)
(0.0001844 -2.802e-06 0)
(0.0001898 -2.579e-06 0)
(0.0001947 -2.306e-06 0)
(0.000199 -1.987e-06 0)
(0.0002026 -1.627e-06 0)
(0.0002055 -1.234e-06 0)
(0.0002075 -8.154e-07 0)
(0.0002087 -3.823e-07 0)
(0.0002091 5.487e-08 0)
(0.0002085 4.856e-07 0)
(0.0002071 9e-07 0)
(0.0002049 1.29e-06 0)
(0.000202 1.648e-06 0)
(0.0001984 1.969e-06 0)
(0.0001942 2.25e-06 0)
(0.0001894 2.488e-06 0)
(0.0001843 2.684e-06 0)
(0.0001787 2.837e-06 0)
(0.000173 2.949e-06 0)
(0.000167 3.022e-06 0)
(0.0001609 3.059e-06 0)
(0.0001548 3.063e-06 0)
(0.0001487 3.037e-06 0)
(0.0001427 2.985e-06 0)
(0.0001368 2.911e-06 0)
(0.000131 2.818e-06 0)
(0.0001255 2.71e-06 0)
(0.0001202 2.591e-06 0)
(0.0001151 2.463e-06 0)
(0.0001104 2.329e-06 0)
(0.0001058 2.192e-06 0)
(0.0001016 2.054e-06 0)
(9.761e-05 1.917e-06 0)
(9.391e-05 1.783e-06 0)
(9.048e-05 1.652e-06 0)
(8.73e-05 1.526e-06 0)
(8.437e-05 1.405e-06 0)
(8.168e-05 1.29e-06 0)
(7.92e-05 1.182e-06 0)
(7.694e-05 1.08e-06 0)
(7.488e-05 9.844e-07 0)
(7.3e-05 8.954e-07 0)
(7.129e-05 8.129e-07 0)
(6.974e-05 7.365e-07 0)
(6.834e-05 6.661e-07 0)
(6.707e-05 6.013e-07 0)
(6.593e-05 5.419e-07 0)
(6.49e-05 4.876e-07 0)
(6.397e-05 4.38e-07 0)
(6.314e-05 3.928e-07 0)
(6.24e-05 3.517e-07 0)
(6.173e-05 3.145e-07 0)
(6.113e-05 2.808e-07 0)
(6.06e-05 2.503e-07 0)
(6.013e-05 2.229e-07 0)
(5.971e-05 1.982e-07 0)
(5.933e-05 1.761e-07 0)
(5.9e-05 1.564e-07 0)
(5.871e-05 1.39e-07 0)
(5.844e-05 1.237e-07 0)
(5.821e-05 1.104e-07 0)
(5.8e-05 9.913e-08 0)
(5.781e-05 8.986e-08 0)
(5.764e-05 8.269e-08 0)
(5.748e-05 7.781e-08 0)
(5.733e-05 7.557e-08 0)
(5.717e-05 7.664e-08 0)
(5.701e-05 8.23e-08 0)
(5.684e-05 9.492e-08 0)
(5.662e-05 1.185e-07 0)
(5.635e-05 1.574e-07 0)
(5.599e-05 2.045e-07 0)
(0.001209 0.0003128 0)
(0.001154 0.0003282 0)
(0.00101 0.000248 0)
(0.0008613 0.0001771 0)
(0.0007345 0.0001262 0)
(0.0006327 9.147e-05 0)
(0.0005525 6.792e-05 0)
(0.0004894 5.178e-05 0)
(0.0004392 4.043e-05 0)
(0.0003988 3.222e-05 0)
(0.0003659 2.611e-05 0)
(0.0003389 2.143e-05 0)
(0.0003164 1.777e-05 0)
(0.0002976 1.484e-05 0)
(0.0002818 1.246e-05 0)
(0.0002684 1.049e-05 0)
(0.0002572 8.836e-06 0)
(0.0002477 7.428e-06 0)
(0.0002397 6.214e-06 0)
(0.0002331 5.154e-06 0)
(0.0002276 4.217e-06 0)
(0.0002231 3.378e-06 0)
(0.0002196 2.617e-06 0)
(0.0002169 1.919e-06 0)
(0.000215 1.268e-06 0)
(0.0002139 6.537e-07 0)
(0.0002135 6.616e-08 0)
(0.0002137 -5.034e-07 0)
(0.0002146 -1.062e-06 0)
(0.0002162 -1.617e-06 0)
(0.0002184 -2.174e-06 0)
(0.0002212 -2.738e-06 0)
(0.0002248 -3.313e-06 0)
(0.000229 -3.904e-06 0)
(0.0002339 -4.512e-06 0)
(0.0002395 -5.142e-06 0)
(0.0002459 -5.793e-06 0)
(0.000253 -6.466e-06 0)
(0.000261 -7.161e-06 0)
(0.0002697 -7.877e-06 0)
(0.0002793 -8.61e-06 0)
(0.0002897 -9.354e-06 0)
(0.000301 -1.01e-05 0)
(0.0003131 -1.085e-05 0)
(0.0003261 -1.159e-05 0)
(0.0003399 -1.23e-05 0)
(0.0003545 -1.297e-05 0)
(0.0003699 -1.358e-05 0)
(0.0003858 -1.411e-05 0)
(0.0004023 -1.455e-05 0)
(0.0004193 -1.487e-05 0)
(0.0004364 -1.505e-05 0)
(0.0004537 -1.506e-05 0)
(0.0004709 -1.489e-05 0)
(0.0004877 -1.451e-05 0)
(0.000504 -1.391e-05 0)
(0.0005195 -1.309e-05 0)
(0.0005338 -1.204e-05 0)
(0.0005468 -1.076e-05 0)
(0.0005583 -9.268e-06 0)
(0.0005679 -7.592e-06 0)
(0.0005756 -5.763e-06 0)
(0.000581 -3.821e-06 0)
(0.0005843 -1.81e-06 0)
(0.0005852 2.2e-07 0)
(0.0005838 2.222e-06 0)
(0.0005802 4.152e-06 0)
(0.0005745 5.971e-06 0)
(0.0005668 7.646e-06 0)
(0.0005572 9.154e-06 0)
(0.000546 1.048e-05 0)
(0.0005334 1.161e-05 0)
(0.0005196 1.254e-05 0)
(0.0005048 1.328e-05 0)
(0.0004893 1.382e-05 0)
(0.0004732 1.418e-05 0)
(0.0004568 1.438e-05 0)
(0.0004403 1.442e-05 0)
(0.0004237 1.432e-05 0)
(0.0004074 1.409e-05 0)
(0.0003913 1.376e-05 0)
(0.0003756 1.335e-05 0)
(0.0003605 1.285e-05 0)
(0.0003459 1.231e-05 0)
(0.000332 1.172e-05 0)
(0.0003188 1.11e-05 0)
(0.0003063 1.046e-05 0)
(0.0002945 9.816e-06 0)
(0.0002835 9.175e-06 0)
(0.0002731 8.544e-06 0)
(0.0002635 7.929e-06 0)
(0.0002546 7.334e-06 0)
(0.0002464 6.764e-06 0)
(0.0002388 6.22e-06 0)
(0.0002318 5.706e-06 0)
(0.0002254 5.221e-06 0)
(0.0002196 4.766e-06 0)
(0.0002142 4.342e-06 0)
(0.0002093 3.947e-06 0)
(0.0002049 3.582e-06 0)
(0.0002009 3.244e-06 0)
(0.0001972 2.933e-06 0)
(0.0001939 2.647e-06 0)
(0.000191 2.385e-06 0)
(0.0001883 2.146e-06 0)
(0.0001859 1.928e-06 0)
(0.0001837 1.729e-06 0)
(0.0001818 1.549e-06 0)
(0.00018 1.385e-06 0)
(0.0001785 1.237e-06 0)
(0.0001771 1.104e-06 0)
(0.0001758 9.834e-07 0)
(0.0001747 8.757e-07 0)
(0.0001737 7.795e-07 0)
(0.0001728 6.942e-07 0)
(0.0001721 6.191e-07 0)
(0.0001713 5.539e-07 0)
(0.0001707 4.983e-07 0)
(0.0001701 4.523e-07 0)
(0.0001696 4.162e-07 0)
(0.0001691 3.906e-07 0)
(0.0001687 3.768e-07 0)
(0.0001682 3.767e-07 0)
(0.0001678 3.938e-07 0)
(0.0001673 4.336e-07 0)
(0.0001668 5.034e-07 0)
(0.0001662 6.072e-07 0)
(0.0001656 7.155e-07 0)
(0.001226 0.0002775 0)
(0.001243 0.0004026 0)
(0.001194 0.0003664 0)
(0.001102 0.0002982 0)
(0.0009997 0.0002345 0)
(0.0009016 0.0001831 0)
(0.0008142 0.0001438 0)
(0.0007391 0.0001142 0)
(0.0006754 9.191e-05 0)
(0.0006216 7.488e-05 0)
(0.0005762 6.168e-05 0)
(0.0005379 5.127e-05 0)
(0.0005054 4.292e-05 0)
(0.0004777 3.613e-05 0)
(0.0004542 3.051e-05 0)
(0.0004342 2.581e-05 0)
(0.0004171 2.183e-05 0)
(0.0004026 1.841e-05 0)
(0.0003904 1.545e-05 0)
(0.0003801 1.284e-05 0)
(0.0003716 1.053e-05 0)
(0.0003647 8.452e-06 0)
(0.0003592 6.561e-06 0)
(0.000355 4.818e-06 0)
(0.0003521 3.192e-06 0)
(0.0003503 1.655e-06 0)
(0.0003496 1.824e-07 0)
(0.00035 -1.245e-06 0)
(0.0003514 -2.647e-06 0)
(0.0003538 -4.037e-06 0)
(0.0003573 -5.432e-06 0)
(0.0003618 -6.842e-06 0)
(0.0003673 -8.279e-06 0)
(0.0003739 -9.751e-06 0)
(0.0003816 -1.127e-05 0)
(0.0003904 -1.283e-05 0)
(0.0004004 -1.444e-05 0)
(0.0004116 -1.611e-05 0)
(0.0004239 -1.783e-05 0)
(0.0004376 -1.959e-05 0)
(0.0004525 -2.139e-05 0)
(0.0004687 -2.322e-05 0)
(0.0004862 -2.506e-05 0)
(0.0005051 -2.688e-05 0)
(0.0005252 -2.867e-05 0)
(0.0005466 -3.039e-05 0)
(0.0005691 -3.201e-05 0)
(0.0005927 -3.348e-05 0)
(0.0006173 -3.476e-05 0)
(0.0006427 -3.58e-05 0)
(0.0006687 -3.655e-05 0)
(0.0006951 -3.694e-05 0)
(0.0007216 -3.694e-05 0)
(0.0007479 -3.648e-05 0)
(0.0007737 -3.553e-05 0)
(0.0007986 -3.404e-05 0)
(0.0008222 -3.201e-05 0)
(0.0008441 -2.942e-05 0)
(0.000864 -2.628e-05 0)
(0.0008815 -2.265e-05 0)
(0.0008962 -1.856e-05 0)
(0.0009079 -1.41e-05 0)
(0.0009163 -9.374e-06 0)
(0.0009213 -4.48e-06 0)
(0.0009227 4.637e-07 0)
(0.0009207 5.343e-06 0)
(0.0009153 1.005e-05 0)
(0.0009066 1.449e-05 0)
(0.0008949 1.86e-05 0)
(0.0008804 2.23e-05 0)
(0.0008634 2.556e-05 0)
(0.0008442 2.835e-05 0)
(0.0008231 3.066e-05 0)
(0.0008005 3.25e-05 0)
(0.0007768 3.387e-05 0)
(0.0007522 3.48e-05 0)
(0.000727 3.532e-05 0)
(0.0007016 3.546e-05 0)
(0.0006762 3.525e-05 0)
(0.000651 3.474e-05 0)
(0.0006262 3.397e-05 0)
(0.000602 3.297e-05 0)
(0.0005786 3.18e-05 0)
(0.000556 3.048e-05 0)
(0.0005344 2.905e-05 0)
(0.0005139 2.755e-05 0)
(0.0004944 2.6e-05 0)
(0.000476 2.443e-05 0)
(0.0004588 2.286e-05 0)
(0.0004426 2.132e-05 0)
(0.0004276 1.981e-05 0)
(0.0004136 1.834e-05 0)
(0.0004007 1.694e-05 0)
(0.0003887 1.56e-05 0)
(0.0003777 1.432e-05 0)
(0.0003676 1.312e-05 0)
(0.0003583 1.199e-05 0)
(0.0003498 1.094e-05 0)
(0.0003421 9.958e-06 0)
(0.000335 9.047e-06 0)
(0.0003286 8.204e-06 0)
(0.0003228 7.427e-06 0)
(0.0003176 6.712e-06 0)
(0.0003128 6.056e-06 0)
(0.0003085 5.456e-06 0)
(0.0003046 4.908e-06 0)
(0.0003011 4.408e-06 0)
(0.000298 3.954e-06 0)
(0.0002952 3.542e-06 0)
(0.0002926 3.168e-06 0)
(0.0002904 2.831e-06 0)
(0.0002884 2.527e-06 0)
(0.0002865 2.254e-06 0)
(0.0002849 2.01e-06 0)
(0.0002835 1.793e-06 0)
(0.0002822 1.602e-06 0)
(0.000281 1.435e-06 0)
(0.00028 1.293e-06 0)
(0.000279 1.174e-06 0)
(0.0002782 1.079e-06 0)
(0.0002774 1.009e-06 0)
(0.0002766 9.654e-07 0)
(0.0002759 9.519e-07 0)
(0.0002752 9.72e-07 0)
(0.0002745 1.031e-06 0)
(0.0002738 1.131e-06 0)
(0.0002731 1.266e-06 0)
(0.0002724 1.384e-06 0)
(0.001224 0.0002275 0)
(0.00126 0.0004003 0)
(0.001258 0.0004193 0)
(0.001216 0.0003789 0)
(0.001149 0.000323 0)
(0.001073 0.0002686 0)
(0.0009972 0.0002216 0)
(0.0009259 0.0001829 0)
(0.0008613 0.0001515 0)
(0.000804 0.0001263 0)
(0.0007538 0.0001059 0)
(0.00071 8.921e-05 0)
(0.000672 7.551e-05 0)
(0.0006391 6.411e-05 0)
(0.0006106 5.454e-05 0)
(0.000586 4.641e-05 0)
(0.0005649 3.944e-05 0)
(0.0005468 3.34e-05 0)
(0.0005314 2.811e-05 0)
(0.0005184 2.343e-05 0)
(0.0005076 1.926e-05 0)
(0.0004988 1.548e-05 0)
(0.0004918 1.203e-05 0)
(0.0004865 8.842e-06 0)
(0.0004827 5.856e-06 0)
(0.0004805 3.027e-06 0)
(0.0004796 3.128e-07 0)
(0.0004802 -2.322e-06 0)
(0.0004821 -4.911e-06 0)
(0.0004854 -7.48e-06 0)
(0.00049 -1.006e-05 0)
(0.0004959 -1.266e-05 0)
(0.0005032 -1.531e-05 0)
(0.0005119 -1.802e-05 0)
(0.0005221 -2.081e-05 0)
(0.0005336 -2.368e-05 0)
(0.0005467 -2.664e-05 0)
(0.0005614 -2.97e-05 0)
(0.0005776 -3.284e-05 0)
(0.0005954 -3.606e-05 0)
(0.0006149 -3.934e-05 0)
(0.0006361 -4.266e-05 0)
(0.0006589 -4.6e-05 0)
(0.0006834 -4.93e-05 0)
(0.0007096 -5.254e-05 0)
(0.0007373 -5.564e-05 0)
(0.0007666 -5.855e-05 0)
(0.0007972 -6.119e-05 0)
(0.0008291 -6.348e-05 0)
(0.0008619 -6.533e-05 0)
(0.0008955 -6.663e-05 0)
(0.0009296 -6.731e-05 0)
(0.0009638 -6.725e-05 0)
(0.0009977 -6.638e-05 0)
(0.001031 -6.461e-05 0)
(0.001063 -6.188e-05 0)
(0.001093 -5.816e-05 0)
(0.001122 -5.344e-05 0)
(0.001147 -4.775e-05 0)
(0.00117 -4.114e-05 0)
(0.001189 -3.373e-05 0)
(0.001204 -2.566e-05 0)
(0.001215 -1.709e-05 0)
(0.001221 -8.223e-06 0)
(0.001223 7.342e-07 0)
(0.00122 9.578e-06 0)
(0.001214 1.812e-05 0)
(0.001203 2.619e-05 0)
(0.001187 3.364e-05 0)
(0.001169 4.038e-05 0)
(0.001147 4.633e-05 0)
(0.001122 5.143e-05 0)
(0.001095 5.568e-05 0)
(0.001066 5.906e-05 0)
(0.001036 6.161e-05 0)
(0.001004 6.336e-05 0)
(0.0009716 6.436e-05 0)
(0.0009388 6.467e-05 0)
(0.0009059 6.435e-05 0)
(0.0008732 6.348e-05 0)
(0.0008411 6.213e-05 0)
(0.0008098 6.037e-05 0)
(0.0007793 5.827e-05 0)
(0.00075 5.591e-05 0)
(0.0007218 5.334e-05 0)
(0.000695 5.064e-05 0)
(0.0006696 4.784e-05 0)
(0.0006455 4.5e-05 0)
(0.0006229 4.216e-05 0)
(0.0006018 3.934e-05 0)
(0.000582 3.659e-05 0)
(0.0005636 3.393e-05 0)
(0.0005466 3.136e-05 0)
(0.0005308 2.89e-05 0)
(0.0005162 2.657e-05 0)
(0.0005029 2.437e-05 0)
(0.0004906 2.23e-05 0)
(0.0004793 2.036e-05 0)
(0.000469 1.855e-05 0)
(0.0004597 1.687e-05 0)
(0.0004511 1.532e-05 0)
(0.0004434 1.388e-05 0)
(0.0004363 1.256e-05 0)
(0.0004299 1.135e-05 0)
(0.0004242 1.023e-05 0)
(0.0004189 9.217e-06 0)
(0.0004143 8.289e-06 0)
(0.00041 7.444e-06 0)
(0.0004062 6.676e-06 0)
(0.0004028 5.98e-06 0)
(0.0003997 5.351e-06 0)
(0.000397 4.783e-06 0)
(0.0003945 4.272e-06 0)
(0.0003923 3.815e-06 0)
(0.0003903 3.408e-06 0)
(0.0003886 3.049e-06 0)
(0.000387 2.734e-06 0)
(0.0003856 2.463e-06 0)
(0.0003843 2.235e-06 0)
(0.0003831 2.049e-06 0)
(0.000382 1.908e-06 0)
(0.000381 1.811e-06 0)
(0.0003801 1.762e-06 0)
(0.0003792 1.764e-06 0)
(0.0003783 1.817e-06 0)
(0.0003774 1.919e-06 0)
(0.0003766 2.05e-06 0)
(0.0003758 2.154e-06 0)
(0.001219 0.0001846 0)
(0.001255 0.0003713 0)
(0.001275 0.0004301 0)
(0.001264 0.0004211 0)
(0.001229 0.0003829 0)
(0.001178 0.0003356 0)
(0.00112 0.0002889 0)
(0.00106 0.0002467 0)
(0.001002 0.0002101 0)
(0.0009484 0.000179 0)
(0.0008991 0.0001527 0)
(0.0008548 0.0001305 0)
(0.0008153 0.0001117 0)
(0.0007804 9.577e-05 0)
(0.0007496 8.21e-05 0)
(0.0007227 7.032e-05 0)
(0.0006993 6.007e-05 0)
(0.000679 5.11e-05 0)
(0.0006617 4.316e-05 0)
(0.0006469 3.609e-05 0)
(0.0006346 2.972e-05 0)
(0.0006245 2.393e-05 0)
(0.0006165 1.862e-05 0)
(0.0006104 1.367e-05 0)
(0.0006061 9.032e-06 0)
(0.0006036 4.619e-06 0)
(0.0006028 3.754e-07 0)
(0.0006036 -3.752e-06 0)
(0.000606 -7.812e-06 0)
(0.00061 -1.184e-05 0)
(0.0006156 -1.589e-05 0)
(0.0006228 -1.997e-05 0)
(0.0006316 -2.413e-05 0)
(0.0006421 -2.838e-05 0)
(0.0006543 -3.275e-05 0)
(0.0006682 -3.724e-05 0)
(0.0006839 -4.187e-05 0)
(0.0007015 -4.664e-05 0)
(0.0007209 -5.153e-05 0)
(0.0007423 -5.654e-05 0)
(0.0007656 -6.165e-05 0)
(0.0007909 -6.68e-05 0)
(0.0008181 -7.197e-05 0)
(0.0008474 -7.709e-05 0)
(0.0008786 -8.209e-05 0)
(0.0009116 -8.688e-05 0)
(0.0009464 -9.136e-05 0)
(0.0009828 -9.541e-05 0)
(0.001021 -9.892e-05 0)
(0.00106 -0.0001017 0)
(0.001099 -0.0001037 0)
(0.00114 -0.0001047 0)
(0.00118 -0.0001046 0)
(0.001221 -0.0001032 0)
(0.00126 -0.0001004 0)
(0.001298 -9.614e-05 0)
(0.001334 -9.035e-05 0)
(0.001368 -8.301e-05 0)
(0.001398 -7.417e-05 0)
(0.001425 -6.392e-05 0)
(0.001447 -5.243e-05 0)
(0.001465 -3.991e-05 0)
(0.001478 -2.662e-05 0)
(0.001486 -1.288e-05 0)
(0.001488 1.007e-06 0)
(0.001485 1.472e-05 0)
(0.001477 2.797e-05 0)
(0.001464 4.049e-05 0)
(0.001446 5.207e-05 0)
(0.001424 6.255e-05 0)
(0.001399 7.181e-05 0)
(0.001369 7.977e-05 0)
(0.001337 8.64e-05 0)
(0.001303 9.172e-05 0)
(0.001267 9.574e-05 0)
(0.001229 9.852e-05 0)
(0.001191 0.0001001 0)
(0.001152 0.0001007 0)
(0.001113 0.0001003 0)
(0.001074 9.898e-05 0)
(0.001036 9.695e-05 0)
(0.0009984 9.427e-05 0)
(0.0009621 9.107e-05 0)
(0.0009271 8.745e-05 0)
(0.0008935 8.351e-05 0)
(0.0008615 7.934e-05 0)
(0.0008311 7.502e-05 0)
(0.0008023 7.063e-05 0)
(0.0007752 6.622e-05 0)
(0.0007498 6.186e-05 0)
(0.000726 5.759e-05 0)
(0.0007039 5.344e-05 0)
(0.0006834 4.944e-05 0)
(0.0006644 4.562e-05 0)
(0.0006468 4.198e-05 0)
(0.0006306 3.853e-05 0)
(0.0006157 3.529e-05 0)
(0.0006021 3.226e-05 0)
(0.0005896 2.942e-05 0)
(0.0005782 2.678e-05 0)
(0.0005678 2.434e-05 0)
(0.0005584 2.208e-05 0)
(0.0005498 2e-05 0)
(0.000542 1.808e-05 0)
(0.0005349 1.633e-05 0)
(0.0005285 1.472e-05 0)
(0.0005228 1.325e-05 0)
(0.0005176 1.191e-05 0)
(0.0005129 1.07e-05 0)
(0.0005087 9.593e-06 0)
(0.0005049 8.593e-06 0)
(0.0005015 7.69e-06 0)
(0.0004984 6.877e-06 0)
(0.0004957 6.148e-06 0)
(0.0004933 5.498e-06 0)
(0.0004911 4.922e-06 0)
(0.0004891 4.416e-06 0)
(0.0004873 3.978e-06 0)
(0.0004857 3.606e-06 0)
(0.0004843 3.298e-06 0)
(0.000483 3.056e-06 0)
(0.0004817 2.878e-06 0)
(0.0004806 2.767e-06 0)
(0.0004795 2.723e-06 0)
(0.0004785 2.743e-06 0)
(0.0004776 2.819e-06 0)
(0.0004766 2.925e-06 0)
(0.0004757 3.007e-06 0)
(0.001214 0.000152 0)
(0.001246 0.0003355 0)
(0.001274 0.0004183 0)
(0.001282 0.0004355 0)
(0.001269 0.000417 0)
(0.001239 0.0003818 0)
(0.001199 0.0003408 0)
(0.001154 0.0003 0)
(0.001107 0.0002619 0)
(0.00106 0.0002277 0)
(0.001015 0.0001976 0)
(0.0009741 0.0001713 0)
(0.0009362 0.0001484 0)
(0.0009019 0.0001284 0)
(0.0008711 0.000111 0)
(0.0008438 9.568e-05 0)
(0.0008197 8.221e-05 0)
(0.0007987 7.025e-05 0)
(0.0007805 5.957e-05 0)
(0.0007649 4.996e-05 0)
(0.0007519 4.123e-05 0)
(0.0007411 3.325e-05 0)
(0.0007326 2.587e-05 0)
(0.0007261 1.897e-05 0)
(0.0007217 1.247e-05 0)
(0.0007191 6.263e-06 0)
(0.0007184 2.765e-07 0)
(0.0007195 -5.56e-06 0)
(0.0007224 -1.131e-05 0)
(0.0007271 -1.703e-05 0)
(0.0007335 -2.276e-05 0)
(0.0007418 -2.856e-05 0)
(0.0007519 -3.447e-05 0)
(0.0007639 -4.05e-05 0)
(0.0007777 -4.669e-05 0)
(0.0007936 -5.306e-05 0)
(0.0008114 -5.961e-05 0)
(0.0008313 -6.635e-05 0)
(0.0008533 -7.327e-05 0)
(0.0008775 -8.034e-05 0)
(0.0009039 -8.753e-05 0)
(0.0009325 -9.48e-05 0)
(0.0009633 -0.0001021 0)
(0.0009963 -0.0001093 0)
(0.001032 -0.0001163 0)
(0.001069 -0.000123 0)
(0.001108 -0.0001293 0)
(0.001149 -0.000135 0)
(0.001192 -0.0001399 0)
(0.001236 -0.0001438 0)
(0.001281 -0.0001465 0)
(0.001326 -0.0001479 0)
(0.001372 -0.0001477 0)
(0.001417 -0.0001457 0)
(0.001462 -0.0001417 0)
(0.001505 -0.0001357 0)
(0.001546 -0.0001276 0)
(0.001583 -0.0001172 0)
(0.001618 -0.0001047 0)
(0.001648 -9.03e-05 0)
(0.001674 -7.409e-05 0)
(0.001694 -5.643e-05 0)
(0.001709 -3.769e-05 0)
(0.001717 -1.83e-05 0)
(0.00172 1.285e-06 0)
(0.001717 2.063e-05 0)
(0.001708 3.932e-05 0)
(0.001693 5.698e-05 0)
(0.001673 7.332e-05 0)
(0.001648 8.81e-05 0)
(0.001619 0.0001012 0)
(0.001586 0.0001124 0)
(0.00155 0.0001218 0)
(0.001511 0.0001294 0)
(0.00147 0.0001351 0)
(0.001428 0.0001391 0)
(0.001385 0.0001415 0)
(0.001341 0.0001423 0)
(0.001297 0.0001418 0)
(0.001253 0.00014 0)
(0.00121 0.0001372 0)
(0.001168 0.0001335 0)
(0.001127 0.0001291 0)
(0.001087 0.000124 0)
(0.001049 0.0001185 0)
(0.001013 0.0001127 0)
(0.0009783 0.0001066 0)
(0.0009457 0.0001004 0)
(0.0009149 9.425e-05 0)
(0.0008861 8.811e-05 0)
(0.0008591 8.209e-05 0)
(0.0008339 7.623e-05 0)
(0.0008105 7.058e-05 0)
(0.0007888 6.517e-05 0)
(0.0007688 6.002e-05 0)
(0.0007503 5.515e-05 0)
(0.0007333 5.055e-05 0)
(0.0007177 4.624e-05 0)
(0.0007034 4.221e-05 0)
(0.0006903 3.847e-05 0)
(0.0006784 3.499e-05 0)
(0.0006675 3.177e-05 0)
(0.0006576 2.88e-05 0)
(0.0006486 2.606e-05 0)
(0.0006405 2.355e-05 0)
(0.0006331 2.126e-05 0)
(0.0006265 1.915e-05 0)
(0.0006204 1.724e-05 0)
(0.000615 1.549e-05 0)
(0.0006101 1.391e-05 0)
(0.0006057 1.247e-05 0)
(0.0006018 1.117e-05 0)
(0.0005982 9.999e-06 0)
(0.000595 8.947e-06 0)
(0.0005921 8.008e-06 0)
(0.0005896 7.173e-06 0)
(0.0005873 6.438e-06 0)
(0.0005852 5.797e-06 0)
(0.0005834 5.248e-06 0)
(0.0005817 4.788e-06 0)
(0.0005801 4.415e-06 0)
(0.0005787 4.13e-06 0)
(0.0005775 3.93e-06 0)
(0.0005763 3.813e-06 0)
(0.0005752 3.775e-06 0)
(0.0005741 3.802e-06 0)
(0.0005731 3.867e-06 0)
(0.0005722 3.924e-06 0)
(0.00121 0.0001279 0)
(0.001237 0.0003008 0)
(0.001266 0.0003957 0)
(0.001284 0.0004322 0)
(0.001286 0.0004314 0)
(0.001273 0.0004095 0)
(0.001249 0.0003771 0)
(0.001218 0.0003408 0)
(0.001182 0.0003042 0)
(0.001144 0.0002696 0)
(0.001107 0.0002377 0)
(0.001071 0.0002088 0)
(0.001036 0.0001829 0)
(0.001005 0.0001598 0)
(0.0009758 0.0001393 0)
(0.0009496 0.0001209 0)
(0.0009263 0.0001045 0)
(0.0009056 8.968e-05 0)
(0.0008876 7.634e-05 0)
(0.0008721 6.422e-05 0)
(0.000859 5.312e-05 0)
(0.0008482 4.288e-05 0)
(0.0008397 3.335e-05 0)
(0.0008332 2.44e-05 0)
(0.0008288 1.592e-05 0)
(0.0008264 7.791e-06 0)
(0.0008259 -7.639e-08 0)
(0.0008274 -7.767e-06 0)
(0.0008308 -1.536e-05 0)
(0.000836 -2.292e-05 0)
(0.0008432 -3.052e-05 0)
(0.0008523 -3.82e-05 0)
(0.0008634 -4.602e-05 0)
(0.0008766 -5.402e-05 0)
(0.0008917 -6.222e-05 0)
(0.000909 -7.065e-05 0)
(0.0009285 -7.933e-05 0)
(0.0009502 -8.824e-05 0)
(0.0009742 -9.739e-05 0)
(0.001001 -0.0001067 0)
(0.001029 -0.0001162 0)
(0.00106 -0.0001258 0)
(0.001094 -0.0001354 0)
(0.00113 -0.0001449 0)
(0.001168 -0.0001541 0)
(0.001209 -0.000163 0)
(0.001251 -0.0001712 0)
(0.001296 -0.0001787 0)
(0.001342 -0.0001852 0)
(0.00139 -0.0001903 0)
(0.001439 -0.000194 0)
(0.001489 -0.0001958 0)
(0.001539 -0.0001955 0)
(0.001588 -0.0001928 0)
(0.001637 -0.0001877 0)
(0.001684 -0.0001797 0)
(0.001729 -0.0001689 0)
(0.00177 -0.0001553 0)
(0.001808 -0.0001388 0)
(0.001841 -0.0001197 0)
(0.001869 -9.825e-05 0)
(0.001891 -7.487e-05 0)
(0.001908 -5.005e-05 0)
(0.001917 -2.436e-05 0)
(0.00192 1.59e-06 0)
(0.001917 2.721e-05 0)
(0.001907 5.194e-05 0)
(0.00189 7.531e-05 0)
(0.001868 9.692e-05 0)
(0.001841 0.0001165 0)
(0.001809 0.0001338 0)
(0.001773 0.0001487 0)
(0.001734 0.0001611 0)
(0.001692 0.0001711 0)
(0.001647 0.0001787 0)
(0.001601 0.000184 0)
(0.001554 0.0001872 0)
(0.001506 0.0001884 0)
(0.001458 0.0001878 0)
(0.00141 0.0001855 0)
(0.001363 0.0001819 0)
(0.001317 0.000177 0)
(0.001273 0.0001712 0)
(0.001229 0.0001646 0)
(0.001188 0.0001573 0)
(0.001148 0.0001497 0)
(0.001111 0.0001417 0)
(0.001075 0.0001336 0)
(0.001042 0.0001254 0)
(0.00101 0.0001173 0)
(0.0009806 0.0001094 0)
(0.0009531 0.0001016 0)
(0.0009275 9.417e-05 0)
(0.0009038 8.701e-05 0)
(0.0008818 8.019e-05 0)
(0.0008615 7.373e-05 0)
(0.0008429 6.763e-05 0)
(0.0008257 6.191e-05 0)
(0.00081 5.656e-05 0)
(0.0007956 5.158e-05 0)
(0.0007825 4.695e-05 0)
(0.0007705 4.266e-05 0)
(0.0007596 3.871e-05 0)
(0.0007496 3.506e-05 0)
(0.0007406 3.171e-05 0)
(0.0007325 2.864e-05 0)
(0.0007251 2.583e-05 0)
(0.0007184 2.327e-05 0)
(0.0007124 2.093e-05 0)
(0.0007069 1.88e-05 0)
(0.000702 1.687e-05 0)
(0.0006976 1.513e-05 0)
(0.0006936 1.356e-05 0)
(0.0006901 1.214e-05 0)
(0.0006869 1.087e-05 0)
(0.000684 9.742e-06 0)
(0.0006815 8.744e-06 0)
(0.0006791 7.87e-06 0)
(0.0006771 7.115e-06 0)
(0.0006752 6.476e-06 0)
(0.0006735 5.948e-06 0)
(0.000672 5.528e-06 0)
(0.0006706 5.215e-06 0)
(0.0006693 5.003e-06 0)
(0.0006681 4.885e-06 0)
(0.000667 4.845e-06 0)
(0.0006659 4.86e-06 0)
(0.0006649 4.888e-06 0)
(0.001208 0.0001097 0)
(0.00123 0.0002698 0)
(0.001258 0.0003693 0)
(0.001281 0.0004185 0)
(0.001292 0.000432 0)
(0.001291 0.0004225 0)
(0.00128 0.0003995 0)
(0.001261 0.0003693 0)
(0.001236 0.0003364 0)
(0.001207 0.0003032 0)
(0.001178 0.0002713 0)
(0.001148 0.0002414 0)
(0.001119 0.0002137 0)
(0.001091 0.0001885 0)
(0.001065 0.0001655 0)
(0.001041 0.0001446 0)
(0.001019 0.0001257 0)
(0.001 0.0001084 0)
(0.0009832 9.263e-05 0)
(0.0009685 7.814e-05 0)
(0.000956 6.476e-05 0)
(0.0009457 5.232e-05 0)
(0.0009375 4.067e-05 0)
(0.0009314 2.965e-05 0)
(0.0009273 1.915e-05 0)
(0.0009252 9.05e-06 0)
(0.0009251 -7.644e-07 0)
(0.000927 -1.039e-05 0)
(0.0009308 -1.991e-05 0)
(0.0009365 -2.942e-05 0)
(0.0009443 -3.897e-05 0)
(0.0009541 -4.865e-05 0)
(0.0009659 -5.851e-05 0)
(0.0009799 -6.859e-05 0)
(0.000996 -7.893e-05 0)
(0.001014 -8.956e-05 0)
(0.001035 -0.0001005 0)
(0.001058 -0.0001117 0)
(0.001083 -0.0001232 0)
(0.001111 -0.000135 0)
(0.001141 -0.000147 0)
(0.001174 -0.000159 0)
(0.00121 -0.0001711 0)
(0.001248 -0.000183 0)
(0.001288 -0.0001947 0)
(0.001331 -0.0002058 0)
(0.001376 -0.0002162 0)
(0.001423 -0.0002257 0)
(0.001472 -0.0002338 0)
(0.001523 -0.0002403 0)
(0.001575 -0.0002449 0)
(0.001628 -0.0002473 0)
(0.001681 -0.000247 0)
(0.001734 -0.0002437 0)
(0.001786 -0.0002373 0)
(0.001836 -0.0002273 0)
(0.001884 -0.0002138 0)
(0.001928 -0.0001966 0)
(0.001969 -0.0001758 0)
(0.002004 -0.0001516 0)
(0.002035 -0.0001245 0)
(0.002059 -9.49e-05 0)
(0.002076 -6.346e-05 0)
(0.002086 -3.091e-05 0)
(0.002089 1.963e-06 0)
(0.002086 3.44e-05 0)
(0.002075 6.568e-05 0)
(0.002057 9.522e-05 0)
(0.002034 0.0001225 0)
(0.002004 0.0001472 0)
(0.00197 0.000169 0)
(0.001932 0.0001878 0)
(0.00189 0.0002035 0)
(0.001845 0.0002161 0)
(0.001798 0.0002257 0)
(0.001748 0.0002324 0)
(0.001698 0.0002364 0)
(0.001647 0.000238 0)
(0.001596 0.0002372 0)
(0.001546 0.0002344 0)
(0.001496 0.0002299 0)
(0.001447 0.0002238 0)
(0.0014 0.0002165 0)
(0.001354 0.0002082 0)
(0.00131 0.0001991 0)
(0.001268 0.0001894 0)
(0.001228 0.0001794 0)
(0.001191 0.0001692 0)
(0.001155 0.0001589 0)
(0.001122 0.0001487 0)
(0.00109 0.0001387 0)
(0.001061 0.000129 0)
(0.001034 0.0001196 0)
(0.001009 0.0001105 0)
(0.0009855 0.0001019 0)
(0.000964 9.378e-05 0)
(0.0009441 8.608e-05 0)
(0.0009259 7.885e-05 0)
(0.0009092 7.208e-05 0)
(0.0008938 6.578e-05 0)
(0.0008798 5.991e-05 0)
(0.000867 5.448e-05 0)
(0.0008554 4.946e-05 0)
(0.0008448 4.484e-05 0)
(0.0008351 4.058e-05 0)
(0.0008264 3.668e-05 0)
(0.0008185 3.311e-05 0)
(0.0008113 2.984e-05 0)
(0.0008048 2.687e-05 0)
(0.000799 2.416e-05 0)
(0.0007937 2.17e-05 0)
(0.0007889 1.947e-05 0)
(0.0007847 1.745e-05 0)
(0.0007808 1.564e-05 0)
(0.0007774 1.401e-05 0)
(0.0007743 1.256e-05 0)
(0.0007715 1.127e-05 0)
(0.000769 1.014e-05 0)
(0.0007668 9.158e-06 0)
(0.0007648 8.316e-06 0)
(0.000763 7.61e-06 0)
(0.0007613 7.036e-06 0)
(0.0007598 6.589e-06 0)
(0.0007585 6.262e-06 0)
(0.0007573 6.047e-06 0)
(0.0007561 5.927e-06 0)
(0.0007551 5.883e-06 0)
(0.000754 5.879e-06 0)
(0.001206 9.572e-05 0)
(0.001225 0.0002427 0)
(0.001251 0.0003422 0)
(0.001275 0.0003991 0)
(0.001292 0.0004234 0)
(0.001299 0.0004245 0)
(0.001298 0.0004104 0)
(0.001288 0.000387 0)
(0.001273 0.0003588 0)
(0.001254 0.0003284 0)
(0.001232 0.0002978 0)
(0.001209 0.000268 0)
(0.001185 0.0002398 0)
(0.001162 0.0002133 0)
(0.00114 0.0001887 0)
(0.001119 0.000166 0)
(0.0011 0.000145 0)
(0.001083 0.0001256 0)
(0.001068 0.0001077 0)
(0.001054 9.114e-05 0)
(0.001043 7.566e-05 0)
(0.001033 6.116e-05 0)
(0.001026 4.747e-05 0)
(0.001021 3.445e-05 0)
(0.001017 2.197e-05 0)
(0.001015 9.914e-06 0)
(0.001016 -1.849e-06 0)
(0.001018 -1.342e-05 0)
(0.001022 -2.49e-05 0)
(0.001028 -3.638e-05 0)
(0.001037 -4.795e-05 0)
(0.001047 -5.968e-05 0)
(0.001059 -7.163e-05 0)
(0.001074 -8.386e-05 0)
(0.00109 -9.641e-05 0)
(0.001109 -0.0001093 0)
(0.00113 -0.0001226 0)
(0.001154 -0.0001362 0)
(0.00118 -0.0001502 0)
(0.001209 -0.0001645 0)
(0.00124 -0.000179 0)
(0.001274 -0.0001937 0)
(0.00131 -0.0002083 0)
(0.001349 -0.0002229 0)
(0.001391 -0.000237 0)
(0.001435 -0.0002506 0)
(0.001482 -0.0002633 0)
(0.001531 -0.0002748 0)
(0.001582 -0.0002847 0)
(0.001634 -0.0002928 0)
(0.001688 -0.0002985 0)
(0.001743 -0.0003015 0)
(0.001799 -0.0003012 0)
(0.001854 -0.0002974 0)
(0.001908 -0.0002897 0)
(0.001961 -0.0002778 0)
(0.002011 -0.0002614 0)
(0.002058 -0.0002405 0)
(0.002101 -0.0002152 0)
(0.002139 -0.0001857 0)
(0.002171 -0.0001525 0)
(0.002196 -0.0001163 0)
(0.002214 -7.772e-05 0)
(0.002225 -3.782e-05 0)
(0.002228 2.46e-06 0)
(0.002224 4.217e-05 0)
(0.002212 8.042e-05 0)
(0.002194 0.0001165 0)
(0.002169 0.0001498 0)
(0.002138 0.0001798 0)
(0.002102 0.0002063 0)
(0.002062 0.0002291 0)
(0.002018 0.0002482 0)
(0.001971 0.0002635 0)
(0.001921 0.0002752 0)
(0.00187 0.0002833 0)
(0.001818 0.0002882 0)
(0.001765 0.00029 0)
(0.001712 0.0002891 0)
(0.001659 0.0002857 0)
(0.001608 0.0002802 0)
(0.001557 0.0002728 0)
(0.001508 0.0002639 0)
(0.001461 0.0002538 0)
(0.001415 0.0002427 0)
(0.001372 0.000231 0)
(0.001331 0.0002188 0)
(0.001292 0.0002064 0)
(0.001255 0.000194 0)
(0.00122 0.0001816 0)
(0.001188 0.0001694 0)
(0.001158 0.0001576 0)
(0.00113 0.0001462 0)
(0.001104 0.0001352 0)
(0.00108 0.0001247 0)
(0.001057 0.0001148 0)
(0.001037 0.0001054 0)
(0.001018 9.662e-05 0)
(0.001001 8.838e-05 0)
(0.0009848 8.069e-05 0)
(0.0009703 7.354e-05 0)
(0.000957 6.692e-05 0)
(0.0009449 6.079e-05 0)
(0.0009339 5.514e-05 0)
(0.0009238 4.994e-05 0)
(0.0009147 4.517e-05 0)
(0.0009065 4.08e-05 0)
(0.000899 3.68e-05 0)
(0.0008923 3.315e-05 0)
(0.0008861 2.983e-05 0)
(0.0008806 2.681e-05 0)
(0.0008757 2.407e-05 0)
(0.0008712 2.159e-05 0)
(0.0008672 1.936e-05 0)
(0.0008636 1.735e-05 0)
(0.0008603 1.556e-05 0)
(0.0008574 1.396e-05 0)
(0.0008548 1.255e-05 0)
(0.0008525 1.132e-05 0)
(0.0008504 1.026e-05 0)
(0.0008485 9.361e-06 0)
(0.0008468 8.616e-06 0)
(0.0008453 8.018e-06 0)
(0.0008439 7.562e-06 0)
(0.0008426 7.236e-06 0)
(0.0008415 7.028e-06 0)
(0.0008404 6.918e-06 0)
(0.0008394 6.881e-06 0)
(0.001205 8.454e-05 0)
(0.001221 0.0002192 0)
(0.001245 0.000316 0)
(0.001269 0.0003771 0)
(0.001288 0.0004088 0)
(0.001302 0.0004184 0)
(0.001307 0.0004123 0)
(0.001306 0.0003956 0)
(0.001299 0.0003724 0)
(0.001288 0.0003456 0)
(0.001273 0.0003172 0)
(0.001256 0.0002886 0)
(0.001239 0.0002606 0)
(0.00122 0.0002337 0)
(0.001203 0.0002082 0)
(0.001186 0.0001842 0)
(0.00117 0.0001618 0)
(0.001155 0.0001408 0)
(0.001142 0.0001211 0)
(0.00113 0.0001027 0)
(0.00112 8.54e-05 0)
(0.001112 6.903e-05 0)
(0.001105 5.347e-05 0)
(0.001101 3.858e-05 0)
(0.001098 2.423e-05 0)
(0.001097 1.029e-05 0)
(0.001098 -3.364e-06 0)
(0.0011 -1.684e-05 0)
(0.001105 -3.025e-05 0)
(0.001111 -4.369e-05 0)
(0.00112 -5.726e-05 0)
(0.00113 -7.103e-05 0)
(0.001143 -8.508e-05 0)
(0.001157 -9.947e-05 0)
(0.001174 -0.0001143 0)
(0.001193 -0.0001295 0)
(0.001215 -0.0001451 0)
(0.001238 -0.0001612 0)
(0.001265 -0.0001777 0)
(0.001294 -0.0001945 0)
(0.001325 -0.0002117 0)
(0.001359 -0.000229 0)
(0.001396 -0.0002463 0)
(0.001435 -0.0002635 0)
(0.001477 -0.0002802 0)
(0.001522 -0.0002963 0)
(0.001569 -0.0003114 0)
(0.001619 -0.0003251 0)
(0.001671 -0.000337 0)
(0.001724 -0.0003467 0)
(0.001779 -0.0003537 0)
(0.001836 -0.0003574 0)
(0.001892 -0.0003574 0)
(0.001949 -0.0003532 0)
(0.002005 -0.0003443 0)
(0.002059 -0.0003303 0)
(0.002112 -0.0003111 0)
(0.00216 -0.0002865 0)
(0.002205 -0.0002565 0)
(0.002244 -0.0002215 0)
(0.002277 -0.000182 0)
(0.002304 -0.0001387 0)
(0.002323 -9.264e-05 0)
(0.002334 -4.495e-05 0)
(0.002337 3.154e-06 0)
(0.002333 5.051e-05 0)
(0.00232 9.605e-05 0)
(0.002301 0.0001389 0)
(0.002275 0.0001783 0)
(0.002243 0.0002139 0)
(0.002206 0.0002452 0)
(0.002164 0.0002722 0)
(0.002118 0.0002946 0)
(0.00207 0.0003126 0)
(0.002019 0.0003264 0)
(0.001967 0.0003359 0)
(0.001913 0.0003416 0)
(0.001859 0.0003437 0)
(0.001805 0.0003425 0)
(0.001751 0.0003385 0)
(0.001699 0.0003318 0)
(0.001647 0.0003231 0)
(0.001597 0.0003125 0)
(0.001549 0.0003005 0)