/*--------------------------------*- C++ -*----------------------------------*\
  =========                 |
  \\      /  F ield         | OpenFOAM: The Open Source CFD Toolbox
   \\    /   O peration     | Website:  https://openfoam.org
    \\  /    A nd           | Version:  7
     \\/     M anipulation  |
\*---------------------------------------------------------------------------*/
FoamFile
{
    version     2.0;
    format      ascii;
    class       volScalarField;
    location    "1979.99947343146641";
    object      Y.K;
}
// * * * * * * * * * * * * * * * * * * * * * * * * * * * * * * * * * * * * * //

dimensions      [0 0 0 0 0 0 0];

internalField   nonuniform List<scalar> 
4096
(
1.199e-73
1.091e-71
-4.119e-72
1.668e-71
-1.798e-72
-7.621e-72
3.909e-72
3.606e-72
-1.1e-72
-2.36e-71
3.227e-70
-4.748e-69
7.307e-68
-1.005e-66
1.358e-65
-1.706e-64
2.036e-63
-2.332e-62
2.48e-61
-2.558e-60
2.516e-59
-2.36e-58
2.136e-57
-1.856e-56
1.56e-55
-1.26e-54
9.943e-54
-7.356e-53
5.559e-52
-4.302e-51
3.398e-50
-2.722e-49
2.197e-48
-1.77e-47
1.413e-46
-1.11e-45
8.511e-45
-6.342e-44
4.566e-43
-3.171e-42
2.09e-41
-1.325e-40
8.121e-40
-4.702e-39
2.586e-38
-1.351e-37
6.698e-37
-3.149e-36
1.385e-35
-5.751e-35
2.261e-34
-7.95e-34
2.557e-33
-5.966e-33
7.706e-33
1.025e-31
-3.862e-31
5.495e-30
-7.434e-30
1.684e-28
1.299e-28
3.269e-27
1.546e-26
3.236e-26
2.623e-25
1.1e-24
2.02e-24
1.795e-23
4.85e-23
1.308e-22
9.818e-22
2.565e-21
8.274e-21
1.133e-19
1.686e-18
4.562e-18
9.118e-18
1.62e-17
2.706e-17
4.344e-17
6.772e-17
1.031e-16
1.537e-16
2.252e-16
3.244e-16
4.604e-16
6.441e-16
8.893e-16
1.213e-15
1.635e-15
2.182e-15
2.881e-15
3.77e-15
4.889e-15
6.288e-15
8.027e-15
1.017e-14
1.28e-14
1.601e-14
1.991e-14
2.462e-14
3.028e-14
3.706e-14
4.514e-14
5.475e-14
6.613e-14
7.956e-14
9.535e-14
1.139e-13
1.355e-13
1.608e-13
1.902e-13
2.244e-13
2.639e-13
3.095e-13
3.621e-13
4.225e-13
4.919e-13
5.714e-13
6.622e-13
7.657e-13
8.833e-13
1.016e-12
1.166e-12
1.331e-12
1.509e-12
1.686e-12
1.826e-12
-3.604e-71
1.925e-70
-2.663e-70
3.746e-71
2.703e-70
-2.963e-70
-3.217e-72
2.558e-70
3.693e-71
-1.441e-69
1.795e-68
-2.684e-67
4.045e-66
-5.748e-65
7.685e-64
-9.681e-63
1.151e-61
-1.295e-60
1.385e-59
-1.412e-58
1.376e-57
-1.287e-56
1.157e-55
-1.001e-54
8.355e-54
-6.72e-53
5.257e-52
-3.877e-51
2.921e-50
-2.253e-49
1.772e-48
-1.414e-47
1.137e-46
-9.126e-46
7.259e-45
-5.678e-44
4.339e-43
-3.22e-42
2.31e-41
-1.595e-40
1.057e-39
-6.694e-39
4.046e-38
-2.329e-37
1.275e-36
-6.629e-36
3.271e-35
-1.529e-34
6.758e-34
-2.806e-33
1.092e-32
-3.831e-32
1.257e-31
-2.932e-31
4.255e-31
4.678e-30
-1.14e-29
2.548e-28
-1.045e-28
8.183e-27
1.238e-26
1.76e-25
7.637e-25
1.937e-24
1.324e-23
5.161e-23
1.112e-22
7.974e-22
2.198e-21
5.721e-21
3.645e-20
9.545e-20
2.328e-19
1.437e-18
3.781e-18
7.588e-18
1.359e-17
2.282e-17
3.676e-17
5.741e-17
8.748e-17
1.305e-16
1.913e-16
2.756e-16
3.912e-16
5.476e-16
7.566e-16
1.033e-15
1.394e-15
1.862e-15
2.463e-15
3.227e-15
4.192e-15
5.403e-15
6.91e-15
8.774e-15
1.107e-14
1.387e-14
1.729e-14
2.142e-14
2.641e-14
3.239e-14
3.955e-14
4.807e-14
5.819e-14
7.015e-14
8.426e-14
1.008e-13
1.203e-13
1.43e-13
1.695e-13
2.002e-13
2.359e-13
2.772e-13
3.249e-13
3.799e-13
4.43e-13
5.154e-13
5.983e-13
6.93e-13
8.01e-13
9.237e-13
1.063e-12
1.22e-12
1.396e-12
1.589e-12
1.795e-12
1.993e-12
7.975e-70
-5.622e-69
1.529e-68
-2.399e-68
2.075e-68
-3.977e-69
-1.262e-68
1.288e-68
8.7e-69
-8.438e-68
9.804e-67
-1.447e-65
2.184e-64
-3.105e-63
4.144e-62
-5.202e-61
6.156e-60
-6.89e-59
7.321e-58
-7.415e-57
7.181e-56
-6.669e-55
5.953e-54
-5.116e-53
4.238e-52
-3.383e-51
2.622e-50
-1.923e-49
1.441e-48
-1.104e-47
8.634e-47
-6.849e-46
5.474e-45
-4.372e-44
3.462e-43
-2.697e-42
2.053e-41
-1.519e-40
1.086e-39
-7.477e-39
4.937e-38
-3.118e-37
1.878e-36
-1.077e-35
5.874e-35
-3.043e-34
1.496e-33
-6.969e-33
3.072e-32
-1.275e-31
4.98e-31
-1.752e-30
5.956e-30
-1.379e-29
2.448e-29
1.96e-28
-1.824e-31
1.122e-26
1.493e-26
3.824e-25
1.022e-24
9.766e-24
3.999e-23
1.103e-22
6.68e-22
2.419e-21
5.736e-21
3.307e-20
9.162e-20
2.228e-19
1.053e-18
2.674e-18
5.255e-18
9.45e-18
1.611e-17
2.637e-17
4.179e-17
6.443e-17
9.697e-17
1.429e-16
2.067e-16
2.938e-16
4.113e-16
5.677e-16
7.737e-16
1.042e-15
1.389e-15
1.832e-15
2.396e-15
3.107e-15
3.997e-15
5.106e-15
6.48e-15
8.171e-15
1.024e-14
1.277e-14
1.584e-14
1.956e-14
2.403e-14
2.94e-14
3.582e-14
4.347e-14
5.255e-14
6.331e-14
7.601e-14
9.095e-14
1.085e-13
1.29e-13
1.53e-13
1.809e-13
2.133e-13
2.509e-13
2.943e-13
3.445e-13
4.022e-13
4.685e-13
5.446e-13
6.317e-13
7.311e-13
8.445e-13
9.734e-13
1.12e-12
1.286e-12
1.473e-12
1.684e-12
1.92e-12
2.184e-12
2.483e-12
-1.26e-68
1.011e-67
-3.873e-67
9.851e-67
-1.735e-66
2.08e-66
-1.516e-66
3.6e-67
7.219e-67
-4.661e-66
5.139e-65
-7.408e-64
1.118e-62
-1.585e-61
2.107e-60
-2.629e-59
3.087e-58
-3.426e-57
3.608e-56
-3.621e-55
3.474e-54
-3.196e-53
2.827e-52
-2.406e-51
1.974e-50
-1.56e-49
1.195e-48
-8.69e-48
6.454e-47
-4.898e-46
3.791e-45
-2.979e-44
2.361e-43
-1.873e-42
1.475e-41
-1.144e-40
8.675e-40
-6.397e-39
4.562e-38
-3.133e-37
2.064e-36
-1.301e-35
7.819e-35
-4.473e-34
2.433e-33
-1.256e-32
6.159e-32
-2.863e-31
1.261e-30
-5.238e-30
2.062e-29
-7.276e-29
2.605e-28
-5.921e-28
1.308e-27
7.771e-27
2.423e-26
4.677e-25
1.532e-24
1.638e-23
7.224e-23
5.237e-22
1.993e-21
5.847e-21
3.065e-20
9.959e-20
2.487e-19
1.044e-18
2.751e-18
5.658e-18
1.057e-17
1.861e-17
3.131e-17
5.073e-17
7.961e-17
1.214e-16
1.806e-16
2.624e-16
3.735e-16
5.216e-16
7.16e-16
9.677e-16
1.29e-15
1.698e-15
2.21e-15
2.847e-15
3.635e-15
4.605e-15
5.792e-15
7.238e-15
8.993e-15
1.112e-14
1.367e-14
1.675e-14
2.043e-14
2.484e-14
3.009e-14
3.634e-14
4.375e-14
5.252e-14
6.287e-14
7.506e-14
8.939e-14
1.062e-13
1.258e-13
1.488e-13
1.755e-13
2.066e-13
2.426e-13
2.843e-13
3.324e-13
3.88e-13
4.518e-13
5.252e-13
6.093e-13
7.054e-13
8.153e-13
9.404e-13
1.083e-12
1.245e-12
1.428e-12
1.635e-12
1.869e-12
2.133e-12
2.429e-12
2.761e-12
3.138e-12
3.619e-12
1.655e-67
-1.436e-66
6.855e-66
-2.365e-65
6.076e-65
-1.165e-64
1.64e-64
-1.623e-64
1.052e-64
-2.466e-64
2.624e-63
-3.625e-62
5.441e-61
-7.665e-60
1.009e-58
-1.246e-57
1.445e-56
-1.582e-55
1.644e-54
-1.628e-53
1.542e-52
-1.401e-51
1.223e-50
-1.028e-49
8.328e-49
-6.5e-48
4.904e-47
-3.524e-46
2.583e-45
-1.931e-44
1.472e-43
-1.141e-42
8.929e-42
-7.011e-41
5.477e-40
-4.223e-39
3.19e-38
-2.345e-37
1.67e-36
-1.145e-35
7.538e-35
-4.749e-34
2.853e-33
-1.63e-32
8.854e-32
-4.564e-31
2.234e-30
-1.036e-29
4.567e-29
-1.902e-28
7.574e-28
-2.657e-27
1.024e-26
-2.025e-26
6.03e-26
3.885e-25
2.33e-24
1.972e-23
1.177e-22
8.718e-22
4.051e-21
2.528e-20
8.829e-20
2.606e-19
1.09e-18
3.069e-18
6.808e-18
1.365e-17
2.565e-17
4.574e-17
7.802e-17
1.279e-16
2.023e-16
3.097e-16
4.6e-16
6.65e-16
9.375e-16
1.292e-15
1.745e-15
2.313e-15
3.017e-15
3.878e-15
4.922e-15
6.176e-15
7.674e-15
9.455e-15
1.157e-14
1.406e-14
1.7e-14
2.046e-14
2.453e-14
2.932e-14
3.493e-14
4.152e-14
4.925e-14
5.83e-14
6.889e-14
8.127e-14
9.573e-14
1.126e-13
1.323e-13
1.551e-13
1.817e-13
2.126e-13
2.483e-13
2.896e-13
3.374e-13
3.925e-13
4.559e-13
5.288e-13
6.124e-13
7.083e-13
8.179e-13
9.43e-13
1.086e-12
1.248e-12
1.433e-12
1.642e-12
1.879e-12
2.146e-12
2.448e-12
2.788e-12
3.17e-12
3.599e-12
4.079e-12
4.615e-12
5.22e-12
6.052e-12
-1.873e-66
1.701e-65
-9.552e-65
4.162e-64
-1.417e-63
3.745e-63
-7.619e-63
1.172e-62
-1.301e-62
-3.891e-63
1.294e-61
-1.698e-60
2.521e-59
-3.502e-58
4.538e-57
-5.499e-56
6.259e-55
-6.724e-54
6.855e-53
-6.663e-52
6.2e-51
-5.538e-50
4.759e-49
-3.938e-48
3.139e-47
-2.411e-46
1.787e-45
-1.264e-44
9.097e-44
-6.66e-43
4.965e-42
-3.765e-41
2.891e-40
-2.235e-39
1.725e-38
-1.319e-37
9.91e-37
-7.266e-36
5.167e-35
-3.546e-34
2.338e-33
-1.476e-32
8.885e-32
-5.085e-31
2.764e-30
-1.424e-29
6.965e-29
-3.227e-28
1.424e-27
-5.941e-27
2.403e-26
-8.125e-26
3.511e-25
-3.708e-25
3.116e-24
2.282e-23
1.561e-22
1.18e-21
6.98e-21
4.321e-20
1.971e-19
9.393e-19
2.976e-18
7.47e-18
1.682e-17
3.519e-17
6.92e-17
1.289e-16
2.283e-16
3.863e-16
6.263e-16
9.762e-16
1.467e-15
2.132e-15
3.005e-15
4.118e-15
5.503e-15
7.189e-15
9.202e-15
1.157e-14
1.432e-14
1.749e-14
2.112e-14
2.524e-14
2.992e-14
3.523e-14
4.126e-14
4.811e-14
5.591e-14
6.48e-14
7.496e-14
8.659e-14
9.993e-14
1.153e-13
1.329e-13
1.532e-13
1.765e-13
2.034e-13
2.344e-13
2.701e-13
3.113e-13
3.586e-13
4.131e-13
4.757e-13
5.476e-13
6.301e-13
7.246e-13
8.328e-13
9.566e-13
1.098e-12
1.259e-12
1.442e-12
1.651e-12
1.888e-12
2.156e-12
2.46e-12
2.804e-12
3.192e-12
3.628e-12
4.12e-12
4.671e-12
5.29e-12
5.981e-12
6.753e-12
7.614e-12
8.572e-12
9.642e-12
1.118e-11
1.778e-65
-1.656e-64
1.059e-63
-5.718e-63
2.498e-62
-8.646e-62
2.346e-61
-4.968e-61
8.127e-61
-1.464e-60
6.666e-60
-7.652e-59
1.108e-57
-1.504e-56
1.899e-55
-2.24e-54
2.481e-53
-2.595e-52
2.578e-51
-2.445e-50
2.224e-49
-1.945e-48
1.639e-47
-1.331e-46
1.042e-45
-7.859e-45
5.707e-44
-3.968e-43
2.79e-42
-1.985e-41
1.434e-40
-1.053e-39
7.843e-39
-5.906e-38
4.467e-37
-3.367e-36
2.508e-35
-1.832e-34
1.303e-33
-8.964e-33
5.941e-32
-3.782e-31
2.292e-30
-1.319e-29
7.2e-29
-3.717e-28
1.82e-27
-8.417e-27
3.727e-26
-1.553e-25
6.417e-25
-1.884e-24
1.019e-23
5.418e-24
1.373e-22
1.294e-21
9.301e-21
6.431e-20
3.329e-19
1.695e-18
5.836e-18
1.606e-17
3.961e-17
9.026e-17
1.922e-16
3.842e-16
7.244e-16
1.293e-15
2.192e-15
3.542e-15
5.472e-15
8.113e-15
1.158e-14
1.596e-14
2.132e-14
2.767e-14
3.5e-14
4.329e-14
5.247e-14
6.251e-14
7.338e-14
8.508e-14
9.762e-14
1.111e-13
1.256e-13
1.413e-13
1.584e-13
1.772e-13
1.978e-13
2.208e-13
2.464e-13
2.752e-13
3.076e-13
3.442e-13
3.857e-13
4.329e-13
4.866e-13
5.478e-13
6.176e-13
6.973e-13
7.882e-13
8.92e-13
1.01e-12
1.145e-12
1.299e-12
1.475e-12
1.674e-12
1.901e-12
2.159e-12
2.452e-12
2.783e-12
3.159e-12
3.583e-12
4.063e-12
4.604e-12
5.213e-12
5.898e-12
6.668e-12
7.531e-12
8.497e-12
9.576e-12
1.078e-11
1.212e-11
1.361e-11
1.527e-11
1.71e-11
1.913e-11
2.215e-11
-1.211e-64
1.083e-63
-8.512e-63
5.944e-62
-3.424e-61
1.544e-60
-5.457e-60
1.505e-59
-3.199e-59
1.901e-59
2.191e-58
-3.218e-57
4.578e-56
-5.999e-55
7.302e-54
-8.293e-53
8.847e-52
-8.927e-51
8.577e-50
-7.891e-49
6.979e-48
-5.953e-47
4.904e-46
-3.902e-45
2.998e-44
-2.221e-43
1.581e-42
-1.081e-41
7.412e-41
-5.103e-40
3.539e-39
-2.48e-38
1.761e-37
-1.268e-36
9.227e-36
-6.754e-35
4.936e-34
-3.57e-33
2.535e-32
-1.756e-31
1.18e-30
-7.66e-30
4.728e-29
-2.763e-28
1.523e-27
-7.891e-27
3.879e-26
-1.784e-25
7.992e-25
-3.302e-24
1.408e-23
-1.874e-23
2.412e-22
1.087e-21
7.632e-21
7.498e-20
4.539e-19
2.564e-18
9.831e-18
3.04e-17
8.42e-17
2.146e-16
5.075e-16
1.118e-15
2.301e-15
4.438e-15
8.048e-15
1.377e-14
2.232e-14
3.44e-14
5.056e-14
7.119e-14
9.634e-14
1.258e-13
1.589e-13
1.951e-13
2.335e-13
2.73e-13
3.131e-13
3.533e-13
3.931e-13
4.325e-13
4.718e-13
5.113e-13
5.514e-13
5.93e-13
6.366e-13
6.831e-13
7.334e-13
7.885e-13
8.495e-13
9.175e-13
9.936e-13
1.079e-12
1.176e-12
1.286e-12
1.41e-12
1.551e-12
1.712e-12
1.894e-12
2.1e-12
2.335e-12
2.601e-12
2.903e-12
3.246e-12
3.634e-12
4.073e-12
4.57e-12
5.131e-12
5.765e-12
6.479e-12
7.284e-12
8.189e-12
9.207e-12
1.035e-11
1.163e-11
1.306e-11
1.467e-11
1.645e-11
1.845e-11
2.067e-11
2.313e-11
2.586e-11
2.889e-11
3.223e-11
3.592e-11
3.995e-11
4.611e-11
-3.478e-65
1.696e-63
1.263e-62
-3.077e-61
3.273e-60
-2.137e-59
9.991e-59
-3.624e-58
1.04e-57
-3.007e-57
1.308e-56
-1.326e-55
1.753e-54
-2.183e-53
2.524e-52
-2.725e-51
2.767e-50
-2.668e-49
2.458e-48
-2.179e-47
1.866e-46
-1.547e-45
1.244e-44
-9.703e-44
7.328e-43
-5.349e-42
3.755e-41
-2.54e-40
1.708e-39
-1.141e-38
7.586e-38
-5.034e-37
3.347e-36
-2.24e-35
1.514e-34
-1.036e-33
7.175e-33
-5.003e-32
3.493e-31
-2.429e-30
1.674e-29
-1.136e-28
7.377e-28
-4.516e-27
2.553e-26
-1.319e-25
6.524e-25
-2.933e-24
1.398e-23
-5.66e-23
2.467e-22
3.259e-22
8.064e-21
6.105e-20
4.557e-19
2.987e-18
1.305e-17
4.647e-17
1.483e-16
4.34e-16
1.17e-15
2.916e-15
6.728e-15
1.44e-14
2.868e-14
5.331e-14
9.282e-14
1.52e-13
2.35e-13
3.445e-13
4.809e-13
6.418e-13
8.221e-13
1.015e-12
1.212e-12
1.406e-12
1.589e-12
1.757e-12
1.905e-12
2.035e-12
2.147e-12
2.243e-12
2.327e-12
2.404e-12
2.476e-12
2.547e-12
2.621e-12
2.701e-12
2.791e-12
2.894e-12
3.012e-12
3.149e-12
3.307e-12
3.491e-12
3.702e-12
3.946e-12
4.225e-12
4.545e-12
4.91e-12
5.326e-12
5.799e-12
6.337e-12
6.946e-12
7.635e-12
8.415e-12
9.295e-12
1.029e-11
1.141e-11
1.267e-11
1.408e-11
1.567e-11
1.745e-11
1.945e-11
2.168e-11
2.418e-11
2.696e-11
3.007e-11
3.352e-11
3.736e-11
4.162e-11
4.635e-11
5.157e-11
5.734e-11
6.371e-11
7.071e-11
7.841e-11
8.674e-11
9.969e-11
2.126e-62
-2.312e-61
1.372e-60
-4.345e-60
-9.183e-60
1.933e-58
-1.416e-57
6.741e-57
-2.386e-56
2.358e-56
2.743e-55
-4.614e-54
6.043e-53
-7.039e-52
7.593e-51
-7.66e-50
7.305e-49
-6.65e-48
5.827e-47
-4.946e-46
4.082e-45
-3.285e-44
2.579e-43
-1.975e-42
1.473e-41
-1.067e-40
7.466e-40
-5.063e-39
3.393e-38
-2.241e-37
1.456e-36
-9.304e-36
5.846e-35
-3.613e-34
2.204e-33
-1.334e-32
8.087e-32
-4.953e-31
3.09e-30
-1.962e-29
1.264e-28
-8.606e-28
5.539e-27
-3.238e-26
1.87e-25
-1.051e-24
5.91e-24
-2.439e-23
1.827e-22
-7.107e-22
3.413e-21
3.275e-20
3.193e-19
2.49e-18
1.267e-17
5.301e-17
1.994e-16
6.857e-16
2.162e-15
6.254e-15
1.662e-14
4.059e-14
9.133e-14
1.897e-13
3.647e-13
6.515e-13
1.086e-12
1.697e-12
2.497e-12
3.476e-12
4.597e-12
5.806e-12
7.028e-12
8.199e-12
9.235e-12
1.012e-11
1.079e-11
1.126e-11
1.155e-11
1.171e-11
1.169e-11
1.162e-11
1.149e-11
1.133e-11
1.116e-11
1.099e-11
1.086e-11
1.076e-11
1.072e-11
1.074e-11
1.081e-11
1.096e-11
1.117e-11
1.147e-11
1.186e-11
1.234e-11
1.291e-11
1.36e-11
1.44e-11
1.532e-11
1.639e-11
1.762e-11
1.901e-11
2.06e-11
2.239e-11
2.442e-11
2.67e-11
2.926e-11
3.214e-11
3.537e-11
3.898e-11
4.302e-11
4.752e-11
5.254e-11
5.813e-11
6.435e-11
7.125e-11
7.89e-11
8.736e-11
9.672e-11
1.071e-10
1.184e-10
1.31e-10
1.447e-10
1.598e-10
1.764e-10
1.941e-10
2.22e-10
-5.104e-61
5.387e-60
-3.636e-59
1.805e-58
-5.837e-58
-2.345e-58
1.161e-56
-1.043e-55
5.696e-55
-2.913e-54
1.768e-53
-1.644e-52
1.817e-51
-1.912e-50
1.878e-49
-1.733e-48
1.524e-47
-1.292e-46
1.066e-45
-8.612e-45
6.83e-44
-5.33e-43
4.094e-42
-3.092e-41
2.292e-40
-1.663e-39
1.177e-38
-8.153e-38
5.573e-37
-3.748e-36
2.474e-35
-1.598e-34
1.007e-33
-6.153e-33
3.625e-32
-2.05e-31
1.106e-30
-5.656e-30
2.73e-29
-1.213e-28
5.682e-28
-2.819e-27
1.442e-26
-4e-26
6.267e-26
2.327e-25
5.528e-25
1.099e-22
7.436e-22
-3.817e-22
1.291e-19
1.364e-18
8.358e-18
4.203e-17
1.899e-16
7.825e-16
2.946e-15
1.013e-14
3.178e-14
9.103e-14
2.381e-13
5.691e-13
1.246e-12
2.504e-12
4.634e-12
7.934e-12
1.263e-11
1.878e-11
2.622e-11
3.457e-11
4.322e-11
5.159e-11
5.89e-11
6.485e-11
6.872e-11
7.132e-11
7.126e-11
7.04e-11
6.853e-11
6.587e-11
6.27e-11
5.931e-11
5.591e-11
5.265e-11
4.965e-11
4.696e-11
4.461e-11
4.262e-11
4.099e-11
3.971e-11
3.877e-11
3.816e-11
3.784e-11
3.793e-11
3.825e-11
3.888e-11
3.983e-11
4.11e-11
4.271e-11
4.466e-11
4.699e-11
4.971e-11
5.287e-11
5.648e-11
6.061e-11
6.528e-11
7.056e-11
7.649e-11
8.316e-11
9.061e-11
9.894e-11
1.082e-10
1.186e-10
1.301e-10
1.428e-10
1.569e-10
1.726e-10
1.898e-10
2.089e-10
2.298e-10
2.529e-10
2.782e-10
3.06e-10
3.364e-10
3.696e-10
4.059e-10
4.443e-10
5.056e-10
8.696e-60
-9.057e-59
6.5e-58
-3.79e-57
1.743e-56
-5.828e-56
2.947e-56
5.538e-55
-5.189e-54
4.09e-54
2.421e-52
-3.891e-51
4.313e-50
-3.994e-49
3.418e-48
-2.783e-47
2.2e-46
-1.707e-45
1.311e-44
-1e-43
7.605e-43
-5.763e-42
4.349e-41
-3.264e-40
2.429e-39
-1.787e-38
1.303e-37
-9.421e-37
6.738e-36
-4.757e-35
3.31e-34
-2.266e-33
1.524e-32
-9.963e-32
6.325e-31
-3.87e-30
2.273e-29
-1.282e-28
6.885e-28
-3.408e-27
1.826e-26
-6.548e-26
1.936e-25
-1.778e-25
-3.661e-24
4.448e-23
-3.237e-22
4.174e-21
-1.334e-21
2.826e-19
3.222e-18
2.155e-17
1.199e-16
6.013e-16
2.748e-15
1.144e-14
4.33e-14
1.489e-13
4.646e-13
1.315e-12
3.379e-12
7.889e-12
1.676e-11
3.25e-11
5.769e-11
9.435e-11
1.429e-10
2.016e-10
2.664e-10
3.32e-10
3.914e-10
4.415e-10
4.737e-10
4.917e-10
4.886e-10
4.765e-10
4.546e-10
4.255e-10
3.924e-10
3.58e-10
3.243e-10
2.925e-10
2.636e-10
2.378e-10
2.152e-10
1.958e-10
1.794e-10
1.656e-10
1.542e-10
1.448e-10
1.374e-10
1.317e-10
1.274e-10
1.245e-10
1.226e-10
1.223e-10
1.229e-10
1.245e-10
1.271e-10
1.307e-10
1.355e-10
1.412e-10
1.482e-10
1.563e-10
1.657e-10
1.764e-10
1.886e-10
2.024e-10
2.179e-10
2.352e-10
2.546e-10
2.762e-10
3.002e-10
3.267e-10
3.562e-10
3.887e-10
4.246e-10
4.641e-10
5.075e-10
5.552e-10
6.075e-10
6.647e-10
7.272e-10
7.954e-10
8.696e-10
9.504e-10
1.036e-09
1.172e-09
-1.193e-58
1.229e-57
-9.171e-57
5.903e-56
-3.245e-55
1.476e-54
-5.035e-54
-2.007e-54
1.279e-52
-1.495e-51
1.297e-50
-9.951e-50
7.294e-49
-4.943e-48
3.327e-47
-2.214e-46
1.475e-45
-9.936e-45
6.83e-44
-4.824e-43
3.509e-42
-2.622e-41
2e-40
-1.545e-39
1.2e-38
-9.306e-38
7.17e-37
-5.438e-36
4.054e-35
-2.974e-34
2.146e-33
-1.526e-32
1.069e-31
-7.33e-31
4.965e-30
-3.284e-29
2.14e-28
-1.363e-27
8.472e-27
-5.127e-26
3.017e-25
-1.721e-24
9.53e-24
-5.064e-23
2.615e-22
-1.253e-21
7.465e-21
2.464e-20
5.7e-19
6.543e-18
4.763e-17
2.942e-16
1.646e-15
8.397e-15
3.894e-14
1.637e-13
6.229e-13
2.14e-12
6.631e-12
1.852e-11
4.666e-11
1.061e-10
2.18e-10
4.064e-10
6.895e-10
1.073e-09
1.541e-09
2.056e-09
2.566e-09
3.015e-09
3.344e-09
3.569e-09
3.559e-09
3.472e-09
3.289e-09
3.034e-09
2.738e-09
2.429e-09
2.128e-09
1.848e-09
1.596e-09
1.377e-09
1.189e-09
1.03e-09
8.981e-10
7.886e-10
6.985e-10
6.247e-10
5.647e-10
5.161e-10
4.77e-10
4.46e-10
4.217e-10
4.033e-10
3.898e-10
3.81e-10
3.749e-10
3.749e-10
3.768e-10
3.819e-10
3.901e-10
4.014e-10
4.158e-10
4.335e-10
4.544e-10
4.788e-10
5.068e-10
5.387e-10
5.747e-10
6.152e-10
6.604e-10
7.108e-10
7.668e-10
8.287e-10
8.972e-10
9.727e-10
1.056e-09
1.147e-09
1.247e-09
1.357e-09
1.476e-09
1.607e-09
1.749e-09
1.904e-09
2.072e-09
2.254e-09
2.445e-09
2.752e-09
1.341e-57
-1.344e-56
1.029e-55
-7.172e-55
4.559e-54
-2.663e-53
1.439e-52
-7.259e-52
3.432e-51
-1.516e-50
5.957e-50
-1.855e-49
-6.086e-49
8.45e-48
-1.03e-46
1.014e-45
-8.841e-45
7.151e-44
-5.466e-43
3.988e-42
-2.79e-41
1.877e-40
-1.215e-39
7.547e-39
-4.477e-38
2.51e-37
-1.297e-36
6.217e-36
-2.699e-35
9.725e-35
-2.7e-34
-9.541e-34
2.873e-32
-3.325e-31
3.039e-30
-2.513e-29
1.925e-28
-1.403e-27
9.812e-27
-6.608e-26
4.3e-25
-2.696e-24
1.662e-23
-9.186e-23
5.519e-22
-2.082e-21
8.865e-20
1.34e-18
1.177e-17
8.829e-17
6.045e-16
3.792e-15
2.17e-14
1.128e-13
5.31e-13
2.254e-12
8.609e-12
2.951e-11
9.065e-11
2.494e-10
6.142e-10
1.356e-09
2.686e-09
4.794e-09
7.74e-09
1.141e-08
1.548e-08
1.948e-08
2.293e-08
2.531e-08
2.643e-08
2.605e-08
2.486e-08
2.293e-08
2.052e-08
1.79e-08
1.532e-08
1.291e-08
1.077e-08
8.933e-09
7.387e-09
6.114e-09
5.077e-09
4.242e-09
3.572e-09
3.037e-09
2.61e-09
2.27e-09
1.998e-09
1.782e-09
1.609e-09
1.472e-09
1.365e-09
1.28e-09
1.216e-09
1.168e-09
1.134e-09
1.114e-09
1.103e-09
1.106e-09
1.116e-09
1.135e-09
1.162e-09
1.199e-09
1.244e-09
1.299e-09
1.362e-09
1.436e-09
1.519e-09
1.613e-09
1.719e-09
1.837e-09
1.968e-09
2.113e-09
2.273e-09
2.449e-09
2.642e-09
2.854e-09
3.086e-09
3.34e-09
3.616e-09
3.916e-09
4.243e-09
4.596e-09
4.979e-09
5.394e-09
5.824e-09
6.522e-09
-9.903e-57
9.828e-56
-7.625e-55
5.507e-54
-3.699e-53
2.323e-52
-1.373e-51
7.72e-51
-4.218e-50
2.311e-49
-1.356e-48
8.627e-48
-5.558e-47
4.186e-46
-3.213e-45
2.455e-44
-1.841e-43
1.346e-42
-9.59e-42
6.656e-41
-4.505e-40
2.976e-39
-1.922e-38
1.214e-37
-7.505e-37
4.552e-36
-2.712e-35
1.625e-34
-9.829e-34
6.01e-33
-3.747e-32
2.345e-31
-1.454e-30
9.053e-30
-5.65e-29
3.524e-28
-2.191e-27
1.352e-26
-8.26e-26
4.976e-25
-2.945e-24
1.719e-23
-9.452e-23
6.244e-22
-2.57e-21
9.717e-20
1.614e-18
1.568e-17
1.318e-16
1.014e-15
7.161e-15
4.616e-14
2.704e-13
1.432e-12
6.834e-12
2.925e-11
1.12e-10
3.823e-10
1.162e-09
3.14e-09
7.539e-09
1.61e-08
3.061e-08
5.206e-08
7.961e-08
1.108e-07
1.414e-07
1.677e-07
1.857e-07
1.907e-07
1.862e-07
1.747e-07
1.576e-07
1.374e-07
1.164e-07
9.638e-08
7.845e-08
6.308e-08
5.032e-08
4e-08
3.179e-08
2.535e-08
2.033e-08
1.644e-08
1.343e-08
1.11e-08
9.292e-09
7.884e-09
6.784e-09
5.922e-09
5.244e-09
4.71e-09
4.29e-09
3.96e-09
3.704e-09
3.508e-09
3.362e-09
3.258e-09
3.192e-09
3.152e-09
3.155e-09
3.176e-09
3.223e-09
3.293e-09
3.387e-09
3.506e-09
3.648e-09
3.814e-09
4.006e-09
4.225e-09
4.471e-09
4.746e-09
5.052e-09
5.392e-09
5.766e-09
6.178e-09
6.63e-09
7.124e-09
7.664e-09
8.252e-09
8.891e-09
9.585e-09
1.034e-08
1.115e-08
1.203e-08
1.297e-08
1.395e-08
1.554e-08
5.864e-56
-5.772e-55
4.52e-54
-3.374e-53
2.389e-52
-1.598e-51
9.989e-51
-5.742e-50
2.931e-49
-1.237e-48
6.942e-49
2.601e-47
-3.735e-46
3.866e-45
-3.388e-44
2.701e-43
-2.026e-42
1.455e-41
-1.01e-40
6.811e-40
-4.481e-39
2.879e-38
-1.806e-37
1.105e-36
-6.561e-36
3.751e-35
-2.072e-34
1.107e-33
-5.651e-33
2.689e-32
-1.134e-31
3.629e-31
-1.567e-31
-1.156e-29
1.445e-28
-1.301e-27
1.021e-26
-7.378e-26
5.029e-25
-3.271e-24
2.047e-23
-1.224e-22
7.45e-22
-2.707e-21
8.304e-20
1.556e-18
1.681e-17
1.58e-16
1.365e-15
1.084e-14
7.882e-14
5.214e-13
3.121e-12
1.682e-11
8.119e-11
3.497e-10
1.339e-09
4.542e-09
1.362e-08
3.604e-08
8.405e-08
1.728e-07
3.138e-07
5.058e-07
7.291e-07
9.53e-07
1.144e-06
1.281e-06
1.304e-06
1.265e-06
1.172e-06
1.04e-06
8.871e-07
7.333e-07
5.908e-07
4.666e-07
3.631e-07
2.798e-07
2.145e-07
1.643e-07
1.261e-07
9.733e-08
7.575e-08
5.958e-08
4.743e-08
3.827e-08
3.133e-08
2.605e-08
2.199e-08
1.886e-08
1.643e-08
1.453e-08
1.305e-08
1.188e-08
1.098e-08
1.027e-08
9.737e-09
9.338e-09
9.054e-09
8.873e-09
8.76e-09
8.768e-09
8.826e-09
8.947e-09
9.134e-09
9.384e-09
9.696e-09
1.007e-08
1.051e-08
1.101e-08
1.158e-08
1.222e-08
1.294e-08
1.373e-08
1.461e-08
1.557e-08
1.663e-08
1.778e-08
1.904e-08
2.04e-08
2.188e-08
2.349e-08
2.523e-08
2.71e-08
2.911e-08
3.128e-08
3.351e-08
3.715e-08
-2.688e-55
2.273e-54
-1.693e-53
1.34e-52
-1.098e-51
9.055e-51
-7.366e-50
5.841e-49
-4.494e-48
3.354e-47
-2.435e-46
1.725e-45
-1.198e-44
8.172e-44
-5.495e-43
3.652e-42
-2.403e-41
1.568e-40
-1.017e-39
6.557e-39
-4.206e-38
2.687e-37
-1.709e-36
1.083e-35
-6.83e-35
4.29e-34
-2.681e-33
1.666e-32
-1.029e-31
6.307e-31
-3.839e-30
2.317e-29
-1.387e-28
8.218e-28
-4.819e-27
2.794e-26
-1.599e-25
9.033e-25
-5.026e-24
2.753e-23
-1.474e-22
8.003e-22
-3.612e-21
3.926e-20
1.139e-18
1.418e-17
1.495e-16
1.446e-15
1.291e-14
1.057e-13
7.899e-13
5.35e-12
3.265e-11
1.784e-10
8.691e-10
3.754e-09
1.432e-08
4.81e-08
1.417e-07
3.655e-07
8.236e-07
1.621e-06
2.795e-06
4.248e-06
5.744e-06
7.035e-06
7.99e-06
8.177e-06
7.91e-06
7.28e-06
6.383e-06
5.366e-06
4.356e-06
3.435e-06
2.648e-06
2.007e-06
1.502e-06
1.116e-06
8.274e-07
6.14e-07
4.578e-07
3.44e-07
2.612e-07
2.008e-07
1.565e-07
1.239e-07
9.965e-08
8.149e-08
6.777e-08
5.732e-08
4.929e-08
4.308e-08
3.825e-08
3.448e-08
3.153e-08
2.924e-08
2.747e-08
2.613e-08
2.513e-08
2.444e-08
2.4e-08
2.376e-08
2.38e-08
2.398e-08
2.432e-08
2.484e-08
2.551e-08
2.634e-08
2.734e-08
2.849e-08
2.981e-08
3.13e-08
3.297e-08
3.482e-08
3.686e-08
3.911e-08
4.157e-08
4.425e-08
4.718e-08
5.035e-08
5.379e-08
5.75e-08
6.151e-08
6.582e-08
7.044e-08
7.543e-08
8.051e-08
8.883e-08
-2.335e-54
2.281e-53
-1.808e-52
1.383e-51
-1.017e-50
7.211e-50
-4.941e-49
3.289e-48
-2.137e-47
1.363e-46
-8.576e-46
5.35e-45
-3.323e-44
2.061e-43
-1.279e-42
7.948e-42
-4.952e-41
3.092e-40
-1.935e-39
1.213e-38
-7.624e-38
4.804e-37
-3.038e-36
1.929e-35
-1.232e-34
7.906e-34
-5.057e-33
3.224e-32
-2.048e-31
1.295e-30
-8.145e-30
5.096e-29
-3.168e-28
1.955e-27
-1.198e-26
7.273e-26
-4.374e-25
2.604e-24
-1.532e-23
8.927e-23
-5.041e-22
3.128e-21
-1.302e-20
4.328e-19
8.996e-18
1.102e-16
1.192e-15
1.19e-14
1.095e-13
9.226e-13
7.064e-12
4.882e-11
3.025e-10
1.67e-09
8.164e-09
3.517e-08
1.329e-07
4.39e-07
1.262e-06
3.151e-06
6.805e-06
1.273e-05
2.073e-05
2.956e-05
3.74e-05
4.326e-05
4.518e-05
4.377e-05
4.026e-05
3.517e-05
2.936e-05
2.359e-05
1.836e-05
1.393e-05
1.036e-05
7.592e-06
5.509e-06
3.978e-06
2.87e-06
2.078e-06
1.514e-06
1.114e-06
8.301e-07
6.271e-07
4.812e-07
3.754e-07
2.98e-07
2.408e-07
1.981e-07
1.659e-07
1.413e-07
1.225e-07
1.079e-07
9.649e-08
8.763e-08
8.072e-08
7.535e-08
7.122e-08
6.811e-08
6.585e-08
6.431e-08
6.337e-08
6.301e-08
6.322e-08
6.383e-08
6.485e-08
6.629e-08
6.813e-08
7.037e-08
7.3e-08
7.604e-08
7.949e-08
8.336e-08
8.766e-08
9.242e-08
9.765e-08
1.034e-07
1.096e-07
1.164e-07
1.238e-07
1.317e-07
1.403e-07
1.495e-07
1.594e-07
1.701e-07
1.815e-07
1.931e-07
2.12e-07
6.812e-54
-6.691e-53
5.331e-52
-4.1e-51
3.034e-50
-2.161e-49
1.483e-48
-9.826e-48
6.291e-47
-3.9e-46
2.348e-45
-1.376e-44
7.881e-44
-4.431e-43
2.46e-42
-1.359e-41
7.555e-41
-4.275e-40
2.494e-39
-1.516e-38
9.633e-38
-6.385e-37
4.377e-36
-3.069e-35
2.182e-34
-1.548e-33
1.072e-32
-7.295e-32
4.883e-31
-3.222e-30
2.1e-29
-1.352e-28
8.617e-28
-5.434e-27
3.393e-26
-2.098e-25
1.285e-24
-7.796e-24
4.687e-23
-2.772e-22
1.71e-21
-6.304e-21
2.079e-19
4.736e-18
6.342e-17
7.585e-16
8.429e-15
8.671e-14
8.201e-13
7.077e-12
5.529e-11
3.88e-10
2.428e-09
1.345e-08
6.553e-08
2.792e-07
1.035e-06
3.328e-06
9.233e-06
2.205e-05
4.517e-05
7.974e-05
0.000122
0.0001625
0.0001939
0.0002096
0.0002045
0.0001895
0.0001664
0.0001393
0.0001119
8.695e-05
6.565e-05
4.843e-05
3.51e-05
2.511e-05
1.782e-05
1.26e-05
8.919e-06
6.344e-06
4.55e-06
3.3e-06
2.426e-06
1.811e-06
1.375e-06
1.063e-06
8.369e-07
6.712e-07
5.484e-07
4.563e-07
3.866e-07
3.332e-07
2.921e-07
2.601e-07
2.352e-07
2.157e-07
2.006e-07
1.888e-07
1.799e-07
1.732e-07
1.685e-07
1.656e-07
1.636e-07
1.638e-07
1.648e-07
1.668e-07
1.698e-07
1.739e-07
1.789e-07
1.849e-07
1.919e-07
1.999e-07
2.088e-07
2.188e-07
2.298e-07
2.42e-07
2.553e-07
2.697e-07
2.854e-07
3.024e-07
3.208e-07
3.406e-07
3.618e-07
3.845e-07
4.088e-07
4.348e-07
4.611e-07
5.042e-07
-2.574e-53
2.361e-52
-1.814e-51
1.395e-50
-1.065e-49
8.037e-49
-5.981e-48
4.377e-47
-3.146e-46
2.219e-45
-1.536e-44
1.044e-43
-6.974e-43
4.588e-42
-2.975e-41
1.906e-40
-1.207e-39
7.572e-39
-4.711e-38
2.911e-37
-1.787e-36
1.092e-35
-6.639e-35
4.021e-34
-2.427e-33
1.458e-32
-8.711e-32
5.18e-31
-3.066e-30
1.808e-29
-1.061e-28
6.209e-28
-3.619e-27
2.102e-26
-1.217e-25
7.027e-25
-4.044e-24
2.321e-23
-1.324e-22
7.774e-22
-3.389e-21
5.847e-20
1.875e-18
2.818e-17
3.718e-16
4.569e-15
5.222e-14
5.515e-13
5.339e-12
4.699e-11
3.727e-10
2.641e-09
1.657e-08
9.133e-08
4.388e-07
1.826e-06
6.555e-06
2.019e-05
5.318e-05
0.0001195
0.0002295
0.0003795
0.0005427
0.0006775
0.0007731
0.0007651
0.0007218
0.0006442
0.000547
0.0004452
0.0003496
0.0002663
0.0001976
0.0001435
0.0001025
7.235e-05
5.069e-05
3.542e-05
2.479e-05
1.746e-05
1.241e-05
8.926e-06
6.517e-06
4.837e-06
3.654e-06
2.812e-06
2.205e-06
1.763e-06
1.437e-06
1.193e-06
1.008e-06
8.676e-07
7.592e-07
6.749e-07
6.092e-07
5.579e-07
5.177e-07
4.865e-07
4.625e-07
4.446e-07
4.315e-07
4.23e-07
4.174e-07
4.163e-07
4.179e-07
4.218e-07
4.284e-07
4.374e-07
4.488e-07
4.625e-07
4.785e-07
4.969e-07
5.176e-07
5.407e-07
5.663e-07
5.943e-07
6.25e-07
6.584e-07
6.947e-07
7.338e-07
7.759e-07
8.212e-07
8.697e-07
9.215e-07
9.766e-07
1.036e-06
1.095e-06
1.192e-06
-5.571e-53
5.509e-52
-4.452e-51
3.5e-50
-2.663e-49
1.963e-48
-1.403e-47
9.737e-47
-6.572e-46
4.325e-45
-2.784e-44
1.757e-43
-1.092e-42
6.699e-42
-4.076e-41
2.468e-40
-1.492e-39
9.043e-39
-5.504e-38
3.373e-37
-2.083e-36
1.297e-35
-8.14e-35
5.148e-34
-3.281e-33
2.091e-32
-1.325e-31
8.342e-31
-5.219e-30
3.248e-29
-2.012e-28
1.242e-27
-7.635e-27
4.682e-26
-2.865e-25
1.75e-24
-1.067e-23
6.506e-23
-3.938e-22
2.527e-21
-8.703e-21
3.697e-19
9.382e-18
1.407e-16
1.901e-15
2.397e-14
2.808e-13
3.032e-12
2.992e-11
2.672e-10
2.14e-09
1.52e-08
9.488e-08
5.149e-07
2.409e-06
9.648e-06
3.292e-05
9.524e-05
0.0002334
0.0004848
0.0008647
0.001327
0.001775
0.002103
0.002204
0.002127
0.001946
0.001694
0.001415
0.00114
0.00089
0.0006755
0.0005001
0.0003625
0.0002583
0.0001818
0.0001269
8.841e-05
6.17e-05
4.333e-05
3.073e-05
2.207e-05
1.61e-05
1.195e-05
9.026e-06
6.951e-06
5.457e-06
4.369e-06
3.565e-06
2.964e-06
2.509e-06
2.162e-06
1.894e-06
1.686e-06
1.523e-06
1.395e-06
1.296e-06
1.218e-06
1.158e-06
1.112e-06
1.079e-06
1.057e-06
1.043e-06
1.037e-06
1.04e-06
1.049e-06
1.063e-06
1.083e-06
1.109e-06
1.141e-06
1.178e-06
1.22e-06
1.268e-06
1.322e-06
1.381e-06
1.445e-06
1.516e-06
1.593e-06
1.676e-06
1.765e-06
1.861e-06
1.964e-06
2.074e-06
2.191e-06
2.315e-06
2.447e-06
2.579e-06
2.795e-06
1.731e-52
-1.606e-51
1.243e-50
-9.598e-50
7.324e-49
-5.512e-48
4.082e-47
-2.971e-46
2.123e-45
-1.489e-44
1.025e-43
-6.934e-43
4.609e-42
-3.015e-41
1.943e-40
-1.235e-39
7.752e-39
-4.813e-38
2.959e-37
-1.804e-36
1.091e-35
-6.558e-35
3.919e-34
-2.331e-33
1.381e-32
-8.141e-32
4.778e-31
-2.796e-30
1.632e-29
-9.505e-29
5.532e-28
-3.219e-27
1.874e-26
-1.092e-25
6.379e-25
-3.736e-24
2.196e-23
-1.293e-22
7.899e-22
-3.546e-21
7.438e-20
2.52e-18
4.155e-17
6.117e-16
8.441e-15
1.089e-13
1.302e-12
1.432e-11
1.434e-10
1.294e-09
1.04e-08
7.359e-08
4.528e-07
2.393e-06
1.075e-05
4.075e-05
0.0001296
0.0003446
0.0007688
0.001453
0.00241
0.00339
0.00434
0.00479
0.004715
0.00444
0.003988
0.003448
0.00289
0.002352
0.001859
0.001429
0.001071
0.0007843
0.0005639
0.0003998
0.0002809
0.0001967
0.0001379
9.728e-05
6.93e-05
5.002e-05
3.667e-05
2.735e-05
2.078e-05
1.609e-05
1.27e-05
1.022e-05
8.385e-06
7.007e-06
5.961e-06
5.159e-06
4.539e-06
4.055e-06
3.676e-06
3.378e-06
3.144e-06
2.961e-06
2.82e-06
2.713e-06
2.635e-06
2.582e-06
2.549e-06
2.535e-06
2.542e-06
2.561e-06
2.595e-06
2.642e-06
2.702e-06
2.775e-06
2.861e-06
2.959e-06
3.069e-06
3.192e-06
3.328e-06
3.476e-06
3.637e-06
3.812e-06
4e-06
4.202e-06
4.419e-06
4.649e-06
4.894e-06
5.154e-06
5.428e-06
5.719e-06
6.008e-06
6.478e-06
2.681e-52
-2.63e-51
2.126e-50
-1.687e-49
1.304e-48
-9.83e-48
7.219e-47
-5.169e-46
3.613e-45
-2.469e-44
1.652e-43
-1.085e-42
7.011e-42
-4.466e-41
2.81e-40
-1.752e-39
1.083e-38
-6.662e-38
4.08e-37
-2.493e-36
1.521e-35
-9.281e-35
5.668e-34
-3.467e-33
2.126e-32
-1.303e-31
7.962e-31
-4.846e-30
2.943e-29
-1.785e-28
1.082e-27
-6.567e-27
3.991e-26
-2.432e-25
1.488e-24
-9.15e-24
5.663e-23
-3.511e-22
2.313e-21
-8.855e-21
3.338e-19
9.316e-18
1.536e-16
2.305e-15
3.246e-14
4.268e-13
5.194e-12
5.797e-11
5.868e-10
5.325e-09
4.275e-08
2.994e-07
1.802e-06
9.184e-06
3.911e-05
0.000138
0.000401
0.0009605
0.001919
0.003285
0.005152
0.006529
0.008624
0.009959
0.009568
0.00795
0.006534
0.00563
0.004844
0.004038
0.003271
0.002575
0.001972
0.001473
0.001078
0.0007762
0.000553
0.0003921
0.0002781
0.0001984
0.0001429
0.0001042
7.722e-05
5.82e-05
4.468e-05
3.495e-05
2.786e-05
2.264e-05
1.874e-05
1.579e-05
1.355e-05
1.181e-05