/*--------------------------------*- C++ -*----------------------------------*\
  =========                 |
  \\      /  F ield         | OpenFOAM: The Open Source CFD Toolbox
   \\    /   O peration     | Website:  https://openfoam.org
    \\  /    A nd           | Version:  7
     \\/     M anipulation  |
\*---------------------------------------------------------------------------*/
FoamFile
{
    version     2.0;
    format      ascii;
    class       volScalarField;
    location    "1799.9994734275374";
    object      p;
}
// * * * * * * * * * * * * * * * * * * * * * * * * * * * * * * * * * * * * * //

dimensions      [0 2 -2 0 0 0 0];

internalField   nonuniform List<scalar> 
4096
(
0.0005821
0.0004112
0.0003269
0.0002848
0.0002614
0.0002475
0.0002386
0.0002325
0.0002281
0.0002248
0.0002223
0.0002203
0.0002186
0.0002172
0.0002161
0.000215
0.0002142
0.0002134
0.0002127
0.000212
0.0002114
0.0002108
0.0002103
0.0002098
0.0002093
0.0002088
0.0002083
0.0002078
0.0002073
0.0002069
0.0002064
0.0002059
0.0002054
0.0002048
0.0002043
0.0002037
0.0002031
0.0002024
0.0002017
0.0002009
0.0002
0.000199
0.0001979
0.0001967
0.0001953
0.0001937
0.000192
0.00019
0.0001877
0.0001852
0.0001824
0.0001793
0.0001758
0.000172
0.0001678
0.0001633
0.0001584
0.0001532
0.0001476
0.0001418
0.0001356
0.0001293
0.0001229
0.0001163
0.0001097
0.0001031
9.665e-05
9.031e-05
8.416e-05
7.825e-05
7.26e-05
6.724e-05
6.219e-05
5.747e-05
5.308e-05
4.902e-05
4.528e-05
4.187e-05
3.876e-05
3.594e-05
3.339e-05
3.11e-05
2.905e-05
2.721e-05
2.556e-05
2.409e-05
2.278e-05
2.16e-05
2.054e-05
1.958e-05
1.872e-05
1.793e-05
1.721e-05
1.654e-05
1.591e-05
1.533e-05
1.477e-05
1.424e-05
1.373e-05
1.323e-05
1.275e-05
1.227e-05
1.18e-05
1.134e-05
1.088e-05
1.042e-05
9.961e-06
9.503e-06
9.043e-06
8.582e-06
8.119e-06
7.654e-06
7.187e-06
6.717e-06
6.244e-06
5.768e-06
5.289e-06
4.807e-06
4.322e-06
3.834e-06
3.344e-06
2.851e-06
2.357e-06
1.864e-06
1.375e-06
8.963e-07
4.407e-07
8.433e-08
0.0004376
0.0003739
0.0003241
0.000292
0.0002711
0.0002568
0.0002468
0.0002394
0.0002339
0.0002297
0.0002264
0.0002237
0.0002215
0.0002197
0.0002182
0.0002168
0.0002157
0.0002147
0.0002137
0.0002129
0.0002121
0.0002114
0.0002107
0.0002101
0.0002095
0.0002088
0.0002083
0.0002077
0.0002071
0.0002065
0.0002059
0.0002053
0.0002047
0.0002041
0.0002034
0.0002027
0.000202
0.0002012
0.0002003
0.0001994
0.0001984
0.0001973
0.000196
0.0001947
0.0001932
0.0001915
0.0001896
0.0001875
0.0001852
0.0001827
0.0001798
0.0001767
0.0001732
0.0001695
0.0001654
0.000161
0.0001562
0.0001512
0.0001459
0.0001402
0.0001344
0.0001284
0.0001222
0.000116
0.0001097
0.0001035
9.734e-05
9.13e-05
8.543e-05
7.978e-05
7.435e-05
6.919e-05
6.432e-05
5.973e-05
5.544e-05
5.146e-05
4.777e-05
4.438e-05
4.126e-05
3.842e-05
3.583e-05
3.348e-05
3.135e-05
2.943e-05
2.769e-05
2.612e-05
2.47e-05
2.341e-05
2.224e-05
2.118e-05
2.021e-05
1.932e-05
1.849e-05
1.772e-05
1.701e-05
1.633e-05
1.569e-05
1.508e-05
1.45e-05
1.393e-05
1.338e-05
1.285e-05
1.233e-05
1.181e-05
1.131e-05
1.08e-05
1.031e-05
9.813e-06
9.321e-06
8.831e-06
8.342e-06
7.854e-06
7.365e-06
6.876e-06
6.386e-06
5.895e-06
5.403e-06
4.91e-06
4.416e-06
3.92e-06
3.423e-06
2.926e-06
2.43e-06
1.935e-06
1.444e-06
9.621e-07
4.953e-07
1.07e-07
0.0003541
0.0003325
0.000307
0.0002863
0.0002707
0.000259
0.00025
0.000243
0.0002374
0.000233
0.0002293
0.0002263
0.0002239
0.0002217
0.0002199
0.0002184
0.000217
0.0002158
0.0002147
0.0002137
0.0002128
0.0002119
0.0002111
0.0002104
0.0002096
0.0002089
0.0002082
0.0002075
0.0002068
0.0002062
0.0002055
0.0002048
0.0002041
0.0002033
0.0002025
0.0002017
0.0002009
0.0002
0.000199
0.000198
0.0001968
0.0001956
0.0001943
0.0001928
0.0001912
0.0001894
0.0001875
0.0001853
0.0001829
0.0001803
0.0001775
0.0001744
0.0001709
0.0001672
0.0001632
0.0001589
0.0001543
0.0001495
0.0001443
0.0001389
0.0001333
0.0001276
0.0001217
0.0001157
0.0001098
0.0001038
9.791e-05
9.214e-05
8.652e-05
8.109e-05
7.588e-05
7.09e-05
6.618e-05
6.173e-05
5.755e-05
5.364e-05
5e-05
4.664e-05
4.354e-05
4.068e-05
3.806e-05
3.567e-05
3.348e-05
3.149e-05
2.967e-05
2.802e-05
2.651e-05
2.513e-05
2.386e-05
2.27e-05
2.164e-05
2.065e-05
1.973e-05
1.887e-05
1.807e-05
1.731e-05
1.659e-05
1.591e-05
1.525e-05
1.462e-05
1.402e-05
1.342e-05
1.285e-05
1.229e-05
1.173e-05
1.119e-05
1.066e-05
1.013e-05
9.604e-06
9.085e-06
8.57e-06
8.058e-06
7.548e-06
7.039e-06
6.533e-06
6.027e-06
5.522e-06
5.017e-06
4.512e-06
4.008e-06
3.504e-06
3.001e-06
2.498e-06
1.998e-06
1.501e-06
1.008e-06
5.241e-07
1.106e-07
0.0003094
0.0003023
0.000289
0.0002758
0.0002649
0.0002562
0.0002491
0.0002432
0.0002383
0.0002342
0.0002307
0.0002277
0.0002252
0.000223
0.0002211
0.0002194
0.000218
0.0002166
0.0002154
0.0002143
0.0002133
0.0002123
0.0002114
0.0002106
0.0002097
0.0002089
0.0002082
0.0002074
0.0002066
0.0002058
0.0002051
0.0002043
0.0002035
0.0002026
0.0002018
0.0002009
0.0001999
0.0001989
0.0001979
0.0001967
0.0001955
0.0001942
0.0001927
0.0001912
0.0001895
0.0001877
0.0001857
0.0001835
0.0001811
0.0001784
0.0001756
0.0001725
0.0001691
0.0001655
0.0001615
0.0001573
0.0001529
0.0001481
0.0001431
0.0001379
0.0001325
0.0001269
0.0001213
0.0001155
0.0001097
0.000104
9.833e-05
9.277e-05
8.735e-05
8.21e-05
7.706e-05
7.223e-05
6.765e-05
6.331e-05
5.922e-05
5.538e-05
5.18e-05
4.848e-05
4.539e-05
4.254e-05
3.991e-05
3.749e-05
3.527e-05
3.323e-05
3.135e-05
2.964e-05
2.806e-05
2.661e-05
2.527e-05
2.403e-05
2.289e-05
2.182e-05
2.083e-05
1.99e-05
1.902e-05
1.819e-05
1.741e-05
1.666e-05
1.594e-05
1.526e-05
1.459e-05
1.395e-05
1.333e-05
1.272e-05
1.213e-05
1.155e-05
1.098e-05
1.042e-05
9.868e-06
9.323e-06
8.784e-06
8.25e-06
7.72e-06
7.194e-06
6.671e-06
6.151e-06
5.634e-06
5.118e-06
4.603e-06
4.09e-06
3.578e-06
3.067e-06
2.557e-06
2.049e-06
1.542e-06
1.038e-06
5.371e-07
1.076e-07
0.0002825
0.0002815
0.0002746
0.000266
0.0002582
0.0002516
0.0002461
0.0002414
0.0002374
0.0002338
0.0002308
0.0002281
0.0002257
0.0002236
0.0002217
0.00022
0.0002185
0.0002171
0.0002159
0.0002147
0.0002136
0.0002126
0.0002116
0.0002107
0.0002098
0.0002089
0.0002081
0.0002072
0.0002064
0.0002055
0.0002047
0.0002038
0.000203
0.000202
0.0002011
0.0002001
0.0001991
0.000198
0.0001969
0.0001957
0.0001944
0.000193
0.0001915
0.0001899
0.0001881
0.0001862
0.0001842
0.000182
0.0001795
0.0001769
0.0001741
0.000171
0.0001677
0.0001641
0.0001602
0.0001561
0.0001517
0.0001471
0.0001422
0.0001371
0.0001318
0.0001264
0.0001209
0.0001153
0.0001097
0.0001041
9.862e-05
9.321e-05
8.795e-05
8.285e-05
7.794e-05
7.324e-05
6.877e-05
6.452e-05
6.052e-05
5.675e-05
5.322e-05
4.993e-05
4.687e-05
4.403e-05
4.14e-05
3.897e-05
3.672e-05
3.465e-05
3.275e-05
3.098e-05
2.936e-05
2.785e-05
2.646e-05
2.516e-05
2.396e-05
2.283e-05
2.177e-05
2.078e-05
1.985e-05
1.896e-05
1.812e-05
1.732e-05
1.655e-05
1.581e-05
1.511e-05
1.442e-05
1.376e-05
1.311e-05
1.248e-05
1.187e-05
1.127e-05
1.068e-05
1.011e-05
9.538e-06
8.977e-06
8.424e-06
7.877e-06
7.335e-06
6.798e-06
6.265e-06
5.736e-06
5.21e-06
4.686e-06
4.164e-06
3.644e-06
3.125e-06
2.608e-06
2.091e-06
1.575e-06
1.06e-06
5.451e-07
1.042e-07
0.0002651
0.0002667
0.0002633
0.0002576
0.0002519
0.0002469
0.0002426
0.0002388
0.0002355
0.0002326
0.00023
0.0002276
0.0002255
0.0002235
0.0002218
0.0002202
0.0002187
0.0002173
0.0002161
0.0002149
0.0002138
0.0002127
0.0002117
0.0002107
0.0002098
0.0002089
0.000208
0.0002071
0.0002062
0.0002053
0.0002044
0.0002034
0.0002025
0.0002015
0.0002005
0.0001995
0.0001984
0.0001973
0.0001961
0.0001948
0.0001934
0.000192
0.0001905
0.0001888
0.000187
0.0001851
0.000183
0.0001808
0.0001784
0.0001757
0.0001729
0.0001698
0.0001666
0.000163
0.0001592
0.0001552
0.0001509
0.0001463
0.0001415
0.0001365
0.0001314
0.000126
0.0001206
0.0001151
0.0001097
0.0001042
9.879e-05
9.35e-05
8.835e-05
8.337e-05
7.857e-05
7.397e-05
6.959e-05
6.542e-05
6.149e-05
5.778e-05
5.43e-05
5.105e-05
4.801e-05
4.519e-05
4.257e-05
4.013e-05
3.788e-05
3.58e-05
3.386e-05
3.207e-05
3.041e-05
2.887e-05
2.744e-05
2.61e-05
2.485e-05
2.367e-05
2.257e-05
2.153e-05
2.055e-05
1.961e-05
1.873e-05
1.788e-05
1.707e-05
1.629e-05
1.555e-05
1.482e-05
1.413e-05
1.345e-05
1.279e-05
1.215e-05
1.153e-05
1.091e-05
1.031e-05
9.725e-06
9.146e-06
8.576e-06
8.014e-06
7.458e-06
6.909e-06
6.365e-06
5.825e-06
5.29e-06
4.757e-06
4.228e-06
3.701e-06
3.175e-06
2.65e-06
2.126e-06
1.602e-06
1.078e-06
5.515e-07
1.017e-07
0.0002532
0.0002557
0.0002544
0.0002508
0.0002466
0.0002426
0.0002391
0.000236
0.0002333
0.0002309
0.0002287
0.0002267
0.0002248
0.0002231
0.0002215
0.00022
0.0002186
0.0002173
0.000216
0.0002149
0.0002138
0.0002127
0.0002117
0.0002107
0.0002097
0.0002088
0.0002078
0.0002069
0.000206
0.000205
0.0002041
0.0002031
0.0002021
0.0002011
0.0002001
0.000199
0.0001979
0.0001967
0.0001954
0.0001941
0.0001927
0.0001912
0.0001897
0.000188
0.0001862
0.0001842
0.0001821
0.0001799
0.0001775
0.0001749
0.0001721
0.000169
0.0001658
0.0001623
0.0001585
0.0001545
0.0001503
0.0001458
0.000141
0.0001361
0.000131
0.0001258
0.0001204
0.000115
0.0001096
0.0001042
9.886e-05
9.366e-05
8.859e-05
8.369e-05
7.898e-05
7.446e-05
7.014e-05
6.604e-05
6.216e-05
5.851e-05
5.507e-05
5.185e-05
4.884e-05
4.604e-05
4.343e-05
4.101e-05
3.875e-05
3.666e-05
3.472e-05
3.292e-05
3.124e-05
2.967e-05
2.821e-05
2.684e-05
2.555e-05
2.435e-05
2.321e-05
2.213e-05
2.111e-05
2.014e-05
1.922e-05
1.834e-05
1.75e-05
1.669e-05
1.591e-05
1.516e-05
1.443e-05
1.373e-05
1.304e-05
1.238e-05
1.173e-05
1.11e-05
1.049e-05
9.88e-06
9.286e-06
8.702e-06
8.127e-06
7.56e-06
7.001e-06
6.447e-06
5.899e-06
5.356e-06
4.817e-06
4.281e-06
3.747e-06
3.216e-06
2.685e-06
2.155e-06
1.625e-06
1.093e-06
5.576e-07
1.007e-07
0.0002446
0.0002474
0.0002473
0.000245
0.000242
0.0002388
0.000236
0.0002334
0.0002311
0.0002291
0.0002272
0.0002255
0.0002238
0.0002223
0.0002209
0.0002195
0.0002182
0.000217
0.0002158
0.0002147
0.0002136
0.0002126
0.0002116
0.0002106
0.0002096
0.0002087
0.0002077
0.0002068
0.0002058
0.0002048
0.0002039
0.0002029
0.0002018
0.0002008
0.0001997
0.0001986
0.0001974
0.0001962
0.0001949
0.0001936
0.0001922
0.0001907
0.0001891
0.0001874
0.0001856
0.0001836
0.0001815
0.0001793
0.0001769
0.0001743
0.0001715
0.0001685
0.0001653
0.0001618
0.0001581
0.0001541
0.0001499
0.0001454
0.0001408
0.0001359
0.0001308
0.0001256
0.0001202
0.0001148
0.0001095
0.0001041
9.884e-05
9.369e-05
8.868e-05
8.384e-05
7.918e-05
7.472e-05
7.045e-05
6.64e-05
6.257e-05
5.895e-05
5.555e-05
5.236e-05
4.938e-05
4.66e-05
4.401e-05
4.16e-05
3.936e-05
3.727e-05
3.533e-05
3.352e-05
3.183e-05
3.025e-05
2.878e-05
2.739e-05
2.608e-05
2.485e-05
2.369e-05
2.259e-05
2.154e-05
2.055e-05
1.96e-05
1.869e-05
1.782e-05
1.699e-05
1.619e-05
1.541e-05
1.467e-05
1.394e-05
1.324e-05
1.256e-05
1.19e-05
1.125e-05
1.062e-05
1e-05
9.394e-06
8.799e-06
8.215e-06
7.639e-06
7.071e-06
6.511e-06
5.956e-06
5.407e-06
4.863e-06
4.322e-06
3.784e-06
3.248e-06
2.713e-06
2.178e-06
1.643e-06
1.106e-06
5.641e-07
1.013e-07
0.0002381
0.0002408
0.0002414
0.0002402
0.000238
0.0002356
0.0002332
0.000231
0.0002291
0.0002273
0.0002257
0.0002242
0.0002228
0.0002214
0.0002201
0.0002189
0.0002177
0.0002166
0.0002155
0.0002144
0.0002134
0.0002124
0.0002114
0.0002104
0.0002095
0.0002085
0.0002076
0.0002066
0.0002056
0.0002047
0.0002037
0.0002027
0.0002016
0.0002006
0.0001995
0.0001983
0.0001971
0.0001959
0.0001946
0.0001933
0.0001918
0.0001903
0.0001887
0.000187
0.0001852
0.0001833
0.0001812
0.0001789
0.0001765
0.000174
0.0001712
0.0001682
0.000165
0.0001616
0.0001579
0.0001539
0.0001498
0.0001453
0.0001406
0.0001357
0.0001307
0.0001254
0.0001201
0.0001147
0.0001093
0.000104
9.872e-05
9.36e-05
8.862e-05
8.382e-05
7.919e-05
7.476e-05
7.054e-05
6.652e-05
6.272e-05
5.913e-05
5.575e-05
5.259e-05
4.964e-05
4.688e-05
4.431e-05
4.192e-05
3.97e-05
3.763e-05
3.569e-05
3.389e-05
3.221e-05
3.063e-05
2.914e-05
2.775e-05
2.644e-05
2.519e-05
2.402e-05
2.29e-05
2.184e-05
2.083e-05
1.986e-05
1.894e-05
1.805e-05
1.72e-05
1.638e-05
1.559e-05
1.483e-05
1.409e-05
1.338e-05
1.268e-05
1.201e-05
1.135e-05
1.071e-05
1.008e-05
9.468e-06
8.865e-06
8.274e-06
7.692e-06
7.119e-06
6.554e-06
5.995e-06
5.442e-06
4.894e-06
4.35e-06
3.809e-06
3.27e-06
2.733e-06
2.196e-06
1.658e-06
1.117e-06
5.713e-07
1.038e-07
0.0002331
0.0002356
0.0002366
0.000236
0.0002345
0.0002326
0.0002307
0.0002289
0.0002272
0.0002256
0.0002242
0.0002229
0.0002216
0.0002205
0.0002193
0.0002182
0.0002172
0.0002161
0.0002151
0.0002141
0.0002131
0.0002122
0.0002112
0.0002103
0.0002093
0.0002084
0.0002074
0.0002065
0.0002055
0.0002045
0.0002035
0.0002025
0.0002015
0.0002004
0.0001993
0.0001982
0.000197
0.0001957
0.0001944
0.0001931
0.0001917
0.0001902
0.0001886
0.0001869
0.0001851
0.0001831
0.0001811
0.0001789
0.0001765
0.0001739
0.0001712
0.0001682
0.000165
0.0001616
0.0001579
0.000154
0.0001498
0.0001454
0.0001407
0.0001358
0.0001307
0.0001254
0.00012
0.0001146
0.0001091
0.0001038
9.852e-05
9.34e-05
8.843e-05
8.363e-05
7.902e-05
7.461e-05
7.04e-05
6.64e-05
6.261e-05
5.904e-05
5.569e-05
5.255e-05
4.962e-05
4.689e-05
4.435e-05
4.198e-05
3.978e-05
3.773e-05
3.582e-05
3.404e-05
3.236e-05
3.079e-05
2.932e-05
2.793e-05
2.661e-05
2.537e-05
2.419e-05
2.307e-05
2.2e-05
2.098e-05
2e-05
1.907e-05
1.818e-05
1.732e-05
1.649e-05
1.569e-05
1.492e-05
1.417e-05
1.345e-05
1.275e-05
1.207e-05
1.14e-05
1.076e-05
1.012e-05
9.505e-06
8.899e-06
8.304e-06
7.719e-06
7.143e-06
6.575e-06
6.014e-06
5.46e-06
4.91e-06
4.365e-06
3.823e-06
3.284e-06
2.746e-06
2.208e-06
1.669e-06
1.127e-06
5.795e-07
1.082e-07
0.000229
0.0002314
0.0002325
0.0002324
0.0002315
0.0002301
0.0002285
0.000227
0.0002255
0.0002241
0.0002229
0.0002217
0.0002206
0.0002195
0.0002185
0.0002175
0.0002165
0.0002156
0.0002146
0.0002137
0.0002128
0.0002119
0.000211
0.0002101
0.0002091
0.0002082
0.0002073
0.0002064
0.0002054
0.0002045
0.0002035
0.0002025
0.0002014
0.0002004
0.0001993
0.0001981
0.000197
0.0001957
0.0001944
0.0001931
0.0001917
0.0001902
0.0001886
0.0001869
0.0001851
0.0001832
0.0001812
0.000179
0.0001767
0.0001742
0.0001714
0.0001685
0.0001653
0.0001619
0.0001583
0.0001543
0.0001501
0.0001456
0.0001409
0.0001359
0.0001307
0.0001254
0.0001199
0.0001144
0.0001089
0.0001035
9.823e-05
9.308e-05
8.809e-05
8.328e-05
7.867e-05
7.425e-05
7.003e-05
6.603e-05
6.225e-05
5.869e-05
5.535e-05
5.223e-05
4.932e-05
4.662e-05
4.411e-05
4.178e-05
3.962e-05
3.76e-05
3.572e-05
3.396e-05
3.231e-05
3.076e-05
2.93e-05
2.792e-05
2.662e-05
2.539e-05
2.421e-05
2.309e-05
2.203e-05
2.101e-05
2.003e-05
1.91e-05
1.82e-05
1.734e-05
1.651e-05
1.571e-05
1.494e-05
1.419e-05
1.346e-05
1.276e-05
1.208e-05
1.141e-05
1.076e-05
1.013e-05
9.507e-06
8.9e-06
8.304e-06
7.719e-06
7.143e-06
6.575e-06
6.014e-06
5.46e-06
4.912e-06
4.367e-06
3.827e-06
3.288e-06
2.751e-06
2.215e-06
1.677e-06
1.136e-06
5.887e-07
1.147e-07
0.0002257
0.0002279
0.0002291
0.0002293
0.0002288
0.0002278
0.0002265
0.0002252
0.000224
0.0002228
0.0002216
0.0002206
0.0002196
0.0002186
0.0002177
0.0002168
0.0002159
0.000215
0.0002142
0.0002133
0.0002125
0.0002116
0.0002107
0.0002099
0.000209
0.0002081
0.0002072
0.0002063
0.0002054
0.0002044
0.0002035
0.0002025
0.0002015
0.0002004
0.0001993
0.0001982
0.0001971
0.0001959
0.0001946
0.0001933
0.0001919
0.0001904
0.0001888
0.0001872
0.0001855
0.0001836
0.0001816
0.0001795
0.0001771
0.0001747
0.000172
0.0001691
0.0001659
0.0001625
0.0001588
0.0001549
0.0001506
0.0001461
0.0001413
0.0001363
0.000131
0.0001255
0.0001199
0.0001143
0.0001087
0.0001032
9.784e-05
9.263e-05
8.76e-05
8.276e-05
7.811e-05
7.366e-05
6.942e-05
6.54e-05
6.161e-05
5.805e-05
5.472e-05
5.162e-05
4.875e-05
4.608e-05
4.361e-05
4.132e-05
3.92e-05
3.722e-05
3.538e-05
3.366e-05
3.205e-05
3.053e-05
2.91e-05
2.774e-05
2.646e-05
2.524e-05
2.409e-05
2.298e-05
2.192e-05
2.092e-05
1.995e-05
1.902e-05
1.813e-05
1.727e-05
1.645e-05
1.565e-05
1.488e-05
1.413e-05
1.341e-05
1.271e-05
1.203e-05
1.137e-05
1.072e-05
1.009e-05
9.472e-06
8.867e-06
8.274e-06
7.691e-06
7.118e-06
6.553e-06
5.995e-06
5.443e-06
4.898e-06
4.356e-06
3.818e-06
3.283e-06
2.75e-06
2.216e-06
1.681e-06
1.143e-06
5.991e-07
1.232e-07
0.0002229
0.0002249
0.0002262
0.0002267
0.0002264
0.0002257
0.0002248
0.0002237
0.0002226
0.0002216
0.0002206
0.0002196
0.0002187
0.0002178
0.000217
0.0002161
0.0002153
0.0002145
0.0002137
0.0002129
0.0002121
0.0002113
0.0002105
0.0002097
0.0002088
0.000208
0.0002071
0.0002063
0.0002054
0.0002045
0.0002035
0.0002026
0.0002016
0.0002006
0.0001995
0.0001984
0.0001973
0.0001961
0.0001949
0.0001936
0.0001922
0.0001908
0.0001893
0.0001877
0.000186
0.0001842
0.0001822
0.0001801
0.0001779
0.0001755
0.0001728
0.0001699
0.0001668
0.0001634
0.0001597
0.0001557
0.0001514
0.0001468
0.0001419
0.0001367
0.0001313
0.0001257
0.00012
0.0001142
0.0001084
0.0001028
9.735e-05
9.206e-05
8.695e-05
8.204e-05
7.734e-05
7.283e-05
6.855e-05
6.45e-05
6.068e-05
5.711e-05
5.379e-05
5.071e-05
4.787e-05
4.525e-05
4.283e-05
4.059e-05
3.852e-05
3.66e-05
3.482e-05
3.314e-05
3.158e-05
3.01e-05
2.871e-05
2.739e-05
2.614e-05
2.495e-05
2.382e-05
2.273e-05
2.17e-05
2.07e-05
1.975e-05
1.884e-05
1.796e-05
1.712e-05
1.63e-05
1.551e-05
1.475e-05
1.402e-05
1.33e-05
1.261e-05
1.194e-05
1.128e-05
1.064e-05
1.001e-05
9.402e-06
8.803e-06
8.215e-06
7.637e-06
7.069e-06
6.509e-06
5.956e-06
5.41e-06
4.869e-06
4.332e-06
3.8e-06
3.269e-06
2.741e-06
2.212e-06
1.682e-06
1.149e-06
6.107e-07
1.337e-07
0.0002206
0.0002225
0.0002238
0.0002243
0.0002243
0.0002239
0.0002232
0.0002223
0.0002214
0.0002205
0.0002196
0.0002187
0.0002179
0.0002171
0.0002163
0.0002155
0.0002148
0.0002141
0.0002133
0.0002126
0.0002118
0.0002111
0.0002103
0.0002095
0.0002087
0.0002079
0.0002071
0.0002063
0.0002054
0.0002046
0.0002037
0.0002027
0.0002018
0.0002008
0.0001998
0.0001987
0.0001976
0.0001965
0.0001953
0.0001941
0.0001928
0.0001914
0.0001899
0.0001884
0.0001868
0.000185
0.0001831
0.0001811
0.0001789
0.0001766
0.000174
0.0001711
0.000168
0.0001646
0.0001609
0.0001569
0.0001525
0.0001478
0.0001428
0.0001375
0.0001318
0.000126
0.00012
0.000114
0.0001081
0.0001023
9.673e-05
9.132e-05
8.611e-05
8.11e-05
7.63e-05
7.172e-05
6.737e-05
6.327e-05
5.942e-05
5.584e-05
5.253e-05
4.948e-05
4.668e-05
4.411e-05
4.175e-05
3.959e-05
3.759e-05
3.574e-05
3.402e-05
3.242e-05
3.091e-05
2.949e-05
2.815e-05
2.687e-05
2.566e-05
2.451e-05
2.341e-05
2.236e-05
2.135e-05
2.038e-05
1.945e-05
1.856e-05
1.77e-05
1.687e-05
1.608e-05
1.531e-05
1.456e-05
1.384e-05
1.314e-05
1.245e-05
1.179e-05
1.115e-05
1.052e-05
9.9e-06
9.298e-06
8.707e-06
8.128e-06
7.558e-06
6.998e-06
6.445e-06
5.899e-06
5.36e-06
4.826e-06
4.296e-06
3.77e-06
3.247e-06
2.725e-06
2.203e-06
1.68e-06
1.154e-06
6.234e-07
1.463e-07
0.0002187
0.0002204
0.0002217
0.0002223
0.0002225
0.0002223
0.0002217
0.0002211
0.0002203
0.0002195
0.0002187
0.0002179
0.0002172
0.0002164
0.0002157
0.000215
0.0002143
0.0002136
0.0002129
0.0002123
0.0002116
0.0002109
0.0002101
0.0002094
0.0002087
0.0002079
0.0002071
0.0002063
0.0002055
0.0002047
0.0002039
0.000203
0.0002021
0.0002011
0.0002002
0.0001992
0.0001981
0.000197
0.0001959
0.0001947
0.0001935
0.0001922
0.0001908
0.0001893
0.0001878
0.0001861
0.0001843
0.0001824
0.0001803
0.000178
0.0001755
0.0001727
0.0001696
0.0001663
0.0001625
0.0001585
0.000154
0.0001492
0.000144
0.0001384
0.0001326
0.0001265
0.0001202
0.0001139
0.0001078
0.0001018
9.596e-05
9.038e-05
8.503e-05
7.988e-05
7.496e-05
7.026e-05
6.583e-05
6.166e-05
5.778e-05
5.419e-05
5.09e-05
4.789e-05
4.515e-05
4.266e-05
4.039e-05
3.831e-05
3.64e-05
3.464e-05
3.301e-05
3.148e-05
3.005e-05
2.869e-05
2.741e-05
2.619e-05
2.503e-05
2.393e-05
2.287e-05
2.186e-05
2.088e-05
1.995e-05
1.905e-05
1.819e-05
1.736e-05
1.655e-05
1.578e-05
1.503e-05
1.43e-05
1.36e-05
1.291e-05
1.225e-05
1.16e-05
1.097e-05
1.035e-05
9.752e-06
9.162e-06
8.583e-06
8.014e-06
7.455e-06
6.905e-06
6.362e-06
5.825e-06
5.295e-06
4.77e-06
4.249e-06
3.731e-06
3.216e-06
2.702e-06
2.189e-06
1.675e-06
1.158e-06
6.371e-07
1.607e-07
0.000217
0.0002186
0.0002198
0.0002206
0.0002209
0.0002208
0.0002205
0.0002199
0.0002193
0.0002186
0.0002179
0.0002172
0.0002165
0.0002159
0.0002152
0.0002146
0.0002139
0.0002133
0.0002126
0.000212
0.0002113
0.0002107
0.00021
0.0002093
0.0002086
0.0002079
0.0002072
0.0002065
0.0002057
0.0002049
0.0002041
0.0002033
0.0002024
0.0002016
0.0002006
0.0001997
0.0001987
0.0001977
0.0001966
0.0001955
0.0001943
0.0001931
0.0001918
0.0001904
0.000189
0.0001874
0.0001857
0.0001839
0.0001819
0.0001798
0.0001774
0.0001747
0.0001717
0.0001684
0.0001646
0.0001605
0.000156
0.000151
0.0001456
0.0001398
0.0001336
0.0001272
0.0001205
0.0001139
0.0001073
0.000101
9.499e-05
8.918e-05
8.361e-05
7.829e-05
7.32e-05
6.838e-05
6.384e-05
5.961e-05
5.57e-05
5.212e-05
4.886e-05
4.592e-05
4.326e-05
4.087e-05
3.871e-05
3.675e-05
3.496e-05
3.33e-05
3.177e-05
3.034e-05
2.899e-05
2.772e-05
2.651e-05
2.536e-05
2.427e-05
2.322e-05
2.221e-05
2.124e-05
2.031e-05
1.942e-05
1.856e-05
1.773e-05
1.693e-05
1.616e-05
1.541e-05
1.469e-05
1.399e-05
1.331e-05
1.264e-05
1.2e-05
1.137e-05
1.076e-05
1.016e-05
9.572e-06
8.997e-06
8.432e-06
7.877e-06
7.331e-06
6.792e-06
6.261e-06
5.736e-06
5.216e-06
4.701e-06
4.191e-06
3.683e-06
3.178e-06
2.674e-06
2.171e-06
1.668e-06
1.162e-06
6.519e-07
1.767e-07
0.0002156
0.0002171
0.0002183
0.0002191
0.0002194
0.0002195
0.0002193
0.0002189
0.0002184
0.0002178
0.0002172
0.0002166
0.000216
0.0002154
0.0002148
0.0002142
0.0002136
0.000213
0.0002124
0.0002118
0.0002112
0.0002106
0.0002099
0.0002093
0.0002087
0.000208
0.0002073
0.0002066
0.0002059
0.0002052
0.0002044
0.0002037
0.0002029
0.000202
0.0002012
0.0002003
0.0001994
0.0001984
0.0001975
0.0001964
0.0001953
0.0001942
0.000193
0.0001918
0.0001904
0.000189
0.0001874
0.0001858
0.0001839
0.0001819
0.0001797
0.0001771
0.0001743
0.000171
0.0001673
0.0001632
0.0001586
0.0001535
0.0001478
0.0001417
0.0001351
0.0001282
0.000121
0.0001138
0.0001068
0.0001001
9.37e-05
8.758e-05
8.174e-05
7.618e-05
7.091e-05
6.594e-05
6.13e-05
5.702e-05
5.31e-05
4.956e-05
4.637e-05
4.353e-05
4.1e-05
3.874e-05
3.673e-05
3.491e-05
3.326e-05
3.174e-05
3.033e-05
2.901e-05
2.777e-05
2.659e-05
2.547e-05
2.439e-05
2.337e-05
2.238e-05
2.144e-05
2.052e-05
1.965e-05
1.88e-05
1.798e-05
1.72e-05
1.643e-05
1.57e-05
1.498e-05
1.429e-05
1.362e-05
1.297e-05
1.233e-05
1.171e-05
1.11e-05
1.051e-05
9.932e-06
9.364e-06
8.806e-06
8.258e-06
7.719e-06
7.187e-06
6.663e-06
6.145e-06
5.633e-06
5.125e-06
4.622e-06
4.123e-06
3.627e-06
3.133e-06
2.641e-06
2.15e-06
1.658e-06
1.164e-06
6.674e-07
1.942e-07
0.0002143
0.0002157
0.0002169
0.0002177
0.0002182
0.0002183
0.0002183
0.000218
0.0002176
0.0002171
0.0002166
0.0002161
0.0002155
0.0002149
0.0002144
0.0002138
0.0002133
0.0002127
0.0002122
0.0002116
0.000211
0.0002105
0.0002099
0.0002093
0.0002087
0.0002081
0.0002075
0.0002068
0.0002062
0.0002055
0.0002048
0.0002041
0.0002034
0.0002026
0.0002018
0.000201
0.0002002
0.0001993
0.0001984
0.0001975
0.0001965
0.0001954
0.0001944
0.0001932
0.000192
0.0001908
0.0001894
0.0001879
0.0001863
0.0001844
0.0001824
0.0001801
0.0001774
0.0001743
0.0001707
0.0001667
0.000162
0.0001568
0.0001509
0.0001444
0.0001373
0.0001297
0.0001218
0.0001139
0.0001062
9.887e-05
9.191e-05
8.535e-05
7.917e-05
7.335e-05
6.789e-05
6.279e-05
5.809e-05
5.38e-05
4.993e-05
4.646e-05
4.339e-05
4.07e-05
3.834e-05
3.627e-05
3.443e-05
3.28e-05
3.131e-05
2.995e-05
2.869e-05
2.75e-05
2.638e-05
2.531e-05
2.428e-05
2.33e-05
2.235e-05
2.144e-05
2.056e-05
1.971e-05
1.889e-05
1.81e-05
1.733e-05
1.659e-05
1.587e-05
1.518e-05
1.45e-05
1.385e-05
1.321e-05
1.258e-05
1.198e-05
1.138e-05
1.08e-05
1.024e-05
9.678e-06
9.131e-06
8.594e-06
8.064e-06
7.542e-06
7.027e-06
6.519e-06
6.016e-06
5.518e-06
5.024e-06
4.534e-06
4.048e-06
3.564e-06
3.083e-06
2.603e-06
2.125e-06
1.646e-06
1.166e-06
6.837e-07
2.129e-07
0.0002133
0.0002146
0.0002158
0.0002166
0.0002171
0.0002173
0.0002173
0.0002172
0.0002169
0.0002165
0.0002161
0.0002156
0.0002151
0.0002146
0.0002141
0.0002136
0.000213
0.0002125
0.000212
0.0002115
0.000211
0.0002104
0.0002099
0.0002094
0.0002088
0.0002082
0.0002077
0.0002071
0.0002065
0.0002059
0.0002052
0.0002046
0.0002039
0.0002032
0.0002025
0.0002018
0.000201
0.0002003
0.0001994
0.0001986
0.0001977
0.0001968
0.0001959
0.0001949
0.0001938
0.0001927
0.0001916
0.0001903
0.0001889
0.0001873
0.0001855
0.0001835
0.0001811
0.0001783
0.0001749
0.000171
0.0001665
0.0001612
0.0001552
0.0001483
0.0001407
0.0001322
0.0001232
0.000114
0.0001052
9.696e-05
8.921e-05
8.208e-05
7.553e-05
6.949e-05
6.39e-05
5.875e-05
5.408e-05
4.986e-05
4.61e-05
4.279e-05
3.991e-05
3.742e-05
3.529e-05
3.345e-05
3.185e-05
3.043e-05
2.915e-05
2.797e-05
2.687e-05
2.583e-05
2.484e-05
2.389e-05
2.298e-05
2.209e-05
2.124e-05
2.041e-05
1.96e-05
1.882e-05
1.807e-05
1.733e-05
1.662e-05
1.593e-05
1.526e-05
1.461e-05
1.398e-05
1.336e-05
1.276e-05
1.217e-05
1.159e-05
1.103e-05
1.048e-05
9.936e-06
9.404e-06
8.88e-06
8.363e-06
7.854e-06
7.351e-06
6.855e-06
6.363e-06
5.876e-06
5.393e-06
4.914e-06
4.439e-06
3.966e-06
3.497e-06
3.029e-06
2.562e-06
2.097e-06
1.632e-06
1.167e-06
7.004e-07
2.326e-07
0.0002124
0.0002136
0.0002147
0.0002156
0.0002161
0.0002164
0.0002165
0.0002165
0.0002163
0.000216
0.0002156
0.0002152
0.0002147
0.0002143
0.0002138
0.0002133
0.0002129
0.0002124
0.0002119
0.0002114
0.0002109
0.0002104
0.00021
0.0002095
0.0002089
0.0002084
0.0002079
0.0002074
0.0002068
0.0002063
0.0002057
0.0002051
0.0002045
0.0002039
0.0002033
0.0002026
0.000202
0.0002013
0.0002006
0.0001998
0.0001991
0.0001983
0.0001975
0.0001967
0.0001958
0.0001949
0.0001939
0.0001929
0.0001918
0.0001905
0.0001891
0.0001874
0.0001854
0.000183
0.00018
0.0001765
0.0001722
0.0001672
0.0001613
0.0001543
0.0001461
0.0001366
0.0001258
0.0001145
0.0001036
9.366e-05
8.475e-05
7.702e-05
7.024e-05
6.42e-05
5.866e-05
5.364e-05
4.914e-05
4.513e-05
4.159e-05
3.852e-05
3.591e-05
3.371e-05
3.187e-05
3.033e-05
2.9e-05
2.784e-05
2.679e-05
2.582e-05
2.491e-05
2.403e-05
2.319e-05
2.237e-05
2.157e-05
2.08e-05
2.004e-05
1.929e-05
1.857e-05
1.787e-05
1.718e-05
1.651e-05
1.586e-05
1.523e-05
1.461e-05
1.401e-05
1.342e-05
1.284e-05
1.228e-05
1.173e-05
1.119e-05
1.066e-05
1.013e-05
9.62e-06
9.113e-06
8.614e-06
8.12e-06
7.633e-06
7.15e-06
6.672e-06
6.198e-06
5.729e-06
5.262e-06
4.799e-06
4.338e-06
3.88e-06
3.425e-06
2.971e-06
2.518e-06
2.067e-06
1.617e-06
1.167e-06
7.173e-07
2.528e-07
0.0002116
0.0002128
0.0002139
0.0002147
0.0002153
0.0002156
0.0002158
0.0002158
0.0002157
0.0002155
0.0002152
0.0002148
0.0002144
0.000214
0.0002136
0.0002132
0.0002127
0.0002123
0.0002118
0.0002114
0.0002109
0.0002105
0.00021
0.0002096
0.0002091
0.0002086
0.0002082
0.0002077
0.0002072
0.0002067
0.0002062
0.0002057
0.0002052
0.0002046
0.0002041
0.0002035
0.0002029
0.0002023
0.0002017
0.0002011
0.0002005
0.0001998
0.0001992
0.0001985
0.0001978
0.0001971
0.0001964
0.0001957
0.0001949
0.000194
0.000193
0.0001917
0.0001902
0.0001883
0.0001859
0.000183
0.0001794
0.000175
0.0001698
0.0001633
0.0001554
0.0001453
0.0001312
0.0001152
9.991e-05
8.716e-05
7.687e-05
6.906e-05
6.254e-05
5.698e-05
5.191e-05
4.734e-05
4.325e-05
3.961e-05
3.642e-05
3.371e-05
3.145e-05
2.962e-05
2.814e-05
2.694e-05
2.594e-05
2.506e-05
2.428e-05
2.354e-05
2.283e-05
2.213e-05
2.145e-05
2.077e-05
2.01e-05
1.943e-05
1.877e-05
1.813e-05
1.749e-05
1.687e-05
1.625e-05
1.565e-05
1.507e-05
1.449e-05
1.393e-05
1.338e-05
1.284e-05
1.23e-05
1.178e-05
1.127e-05
1.076e-05
1.027e-05
9.777e-06
9.292e-06
8.813e-06
8.338e-06
7.869e-06
7.404e-06
6.942e-06
6.484e-06
6.029e-06
5.576e-06
5.127e-06
4.679e-06
4.234e-06
3.791e-06
3.35e-06
2.911e-06
2.473e-06
2.037e-06
1.601e-06
1.167e-06
7.342e-07
2.733e-07
0.0002109
0.0002121
0.0002131
0.000214
0.0002146
0.000215
0.0002152
0.0002153
0.0002152
0.000215
0.0002148
0.0002145
0.0002142
0.0002138
0.0002134
0.000213
0.0002126
0.0002122
0.0002118
0.0002114
0.000211
0.0002106
0.0002101
0.0002097
0.0002093
0.0002089
0.0002085
0.000208
0.0002076
0.0002072
0.0002067
0.0002063
0.0002058
0.0002053
0.0002049
0.0002044
0.0002039
0.0002034
0.0002029
0.0002024
0.0002019
0.0002014
0.0002009
0.0002004
0.0001999
0.0001995
0.000199
0.0001985
0.0001981
0.0001976
0.000197
0.0001963
0.0001954
0.0001941
0.0001925
0.0001903
0.0001877
0.0001847
0.0001811
0.0001766
0.0001693
0.0001599
0.0001426
0.0001164
9.17e-05
7.612e-05
6.571e-05
5.837e-05
5.19e-05
4.757e-05
4.358e-05
3.987e-05
3.652e-05
3.344e-05
3.072e-05
2.844e-05
2.662e-05
2.522e-05
2.416e-05
2.336e-05
2.272e-05
2.217e-05
2.167e-05
2.118e-05
2.068e-05
2.017e-05
1.965e-05
1.911e-05
1.857e-05
1.802e-05
1.747e-05
1.692e-05
1.638e-05
1.584e-05
1.53e-05
1.477e-05
1.425e-05
1.374e-05
1.323e-05
1.273e-05
1.224e-05
1.176e-05
1.128e-05
1.08e-05
1.034e-05
9.873e-06
9.414e-06
8.959e-06
8.508e-06
8.06e-06
7.614e-06
7.172e-06
6.731e-06
6.293e-06
5.857e-06
5.423e-06
4.99e-06
4.559e-06
4.129e-06
3.701e-06
3.275e-06
2.85e-06
2.427e-06
2.005e-06
1.585e-06
1.167e-06
7.509e-07
2.938e-07
0.0002103
0.0002115
0.0002125
0.0002133
0.0002139
0.0002144
0.0002146
0.0002148
0.0002148
0.0002147
0.0002145
0.0002142
0.0002139
0.0002136
0.0002133
0.0002129
0.0002125
0.0002122
0.0002118
0.0002114
0.000211
0.0002107
0.0002103
0.0002099
0.0002095
0.0002091
0.0002088
0.0002084
0.000208
0.0002076
0.0002072
0.0002069
0.0002065
0.0002061
0.0002057
0.0002053
0.0002049
0.0002045
0.0002041
0.0002037
0.0002034
0.000203
0.0002027
0.0002023
0.000202
0.0002018
0.0002016
0.0002014
0.0002013
0.0002012
0.0002011
0.0002009
0.0002006
0.0002001
0.0001992
0.0001979
0.0001964
0.000195
0.0001935
0.0001914
0.0001903
0.0001747
0.0001212
0.0001066
0.0001008
9.173e-05
5.738e-05
4.226e-05
3.969e-05
3.85e-05
3.424e-05
3.162e-05
2.926e-05
2.689e-05
2.472e-05
2.291e-05
2.156e-05
2.064e-05
2.006e-05
1.969e-05
1.944e-05
1.924e-05
1.903e-05
1.878e-05
1.85e-05
1.818e-05
1.782e-05
1.744e-05
1.702e-05
1.66e-05
1.616e-05
1.571e-05
1.525e-05
1.48e-05
1.434e-05
1.389e-05
1.343e-05
1.298e-05
1.253e-05
1.209e-05
1.165e-05
1.121e-05
1.077e-05
1.034e-05
9.909e-06
9.481e-06
9.054e-06
8.629e-06
8.205e-06
7.783e-06
7.362e-06
6.942e-06
6.523e-06
6.105e-06
5.687e-06
5.27e-06
4.854e-06
4.439e-06
4.025e-06
3.612e-06
3.2e-06
2.79e-06
2.381e-06
1.974e-06
1.569e-06
1.166e-06
7.672e-07
3.138e-07
0.0002099
0.0002109
0.0002119
0.0002128
0.0002134
0.0002139
0.0002142
0.0002143
0.0002144
0.0002143
0.0002142
0.000214
0.0002138
0.0002135
0.0002132
0.0002128
0.0002125