/*--------------------------------*- C++ -*----------------------------------*\
  =========                 |
  \\      /  F ield         | OpenFOAM: The Open Source CFD Toolbox
   \\    /   O peration     | Website:  https://openfoam.org
    \\  /    A nd           | Version:  7
     \\/     M anipulation  |
\*---------------------------------------------------------------------------*/
FoamFile
{
    version     2.0;
    format      ascii;
    class       surfaceScalarField;
    location    "1799.9994734275374";
    object      phi;
}
// * * * * * * * * * * * * * * * * * * * * * * * * * * * * * * * * * * * * * //

dimensions      [0 3 -1 0 0 0 0];

internalField   nonuniform List<scalar> 
8032
(
6.857e-10
2.518e-10
4.804e-10
2.053e-10
3.48e-10
1.324e-10
2.643e-10
8.372e-11
2.101e-10
5.416e-11
1.738e-10
3.638e-11
1.482e-10
2.552e-11
1.296e-10
1.866e-11
1.154e-10
1.415e-11
1.044e-10
1.105e-11
9.555e-11
8.818e-12
8.84e-11
7.158e-12
8.251e-11
5.884e-12
7.763e-11
4.881e-12
7.356e-11
4.074e-12
7.014e-11
3.412e-12
6.728e-11
2.86e-12
6.489e-11
2.393e-12
6.29e-11
1.992e-12
6.126e-11
1.642e-12
5.992e-11
1.334e-12
5.886e-11
1.058e-12
5.806e-11
8.082e-13
5.748e-11
5.783e-13
5.711e-11
3.638e-13
5.695e-11
1.61e-13
5.699e-11
-3.367e-14
5.721e-11
-2.23e-13
5.762e-11
-4.095e-13
5.822e-11
-5.955e-13
5.9e-11
-7.828e-13
5.997e-11
-9.733e-13
6.114e-11
-1.168e-12
6.251e-11
-1.369e-12
6.409e-11
-1.577e-12
6.588e-11
-1.793e-12
6.79e-11
-2.017e-12
7.015e-11
-2.249e-12
7.264e-11
-2.49e-12
7.537e-11
-2.738e-12
7.837e-11
-2.992e-12
8.162e-11
-3.251e-12
8.513e-11
-3.513e-12
8.89e-11
-3.774e-12
9.294e-11
-4.031e-12
9.722e-11
-4.279e-12
1.017e-10
-4.514e-12
1.065e-10
-4.728e-12
1.114e-10
-4.915e-12
1.164e-10
-5.068e-12
1.216e-10
-5.179e-12
1.269e-10
-5.239e-12
1.321e-10
-5.241e-12
1.373e-10
-5.178e-12
1.423e-10
-5.042e-12
1.471e-10
-4.829e-12
1.517e-10
-4.535e-12
1.558e-10
-4.16e-12
1.595e-10
-3.706e-12
1.627e-10
-3.179e-12
1.653e-10
-2.587e-12
1.673e-10
-1.942e-12
1.685e-10
-1.259e-12
1.691e-10
-5.535e-13
1.689e-10
1.568e-13
1.681e-10
8.553e-13
1.665e-10
1.527e-12
1.644e-10
2.157e-12
1.616e-10
2.737e-12
1.584e-10
3.256e-12
1.547e-10
3.709e-12
1.506e-10
4.094e-12
1.462e-10
4.409e-12
1.415e-10
4.655e-12
1.367e-10
4.835e-12
1.317e-10
4.95e-12
1.267e-10
5.007e-12
1.217e-10
5.01e-12
1.167e-10
4.965e-12
1.119e-10
4.878e-12
1.071e-10
4.754e-12
1.025e-10
4.601e-12
9.809e-11
4.423e-12
9.386e-11
4.226e-12
8.985e-11
4.016e-12
8.605e-11
3.796e-12
8.248e-11
3.572e-12
7.913e-11
3.347e-12
7.601e-11
3.123e-12
7.31e-11
2.903e-12
7.042e-11
2.689e-12
6.793e-11
2.483e-12
6.565e-11
2.286e-12
6.355e-11
2.099e-12
6.163e-11
1.922e-12
5.987e-11
1.756e-12
5.827e-11
1.6e-12
5.681e-11
1.456e-12
5.549e-11
1.321e-12
5.43e-11
1.197e-12
5.321e-11
1.082e-12
5.224e-11
9.768e-13
5.136e-11
8.802e-13
5.056e-11
7.918e-13
4.985e-11
7.112e-13
4.922e-11
6.377e-13
4.864e-11
5.71e-13
4.813e-11
5.105e-13
4.768e-11
4.557e-13
4.727e-11
4.062e-13
4.691e-11
3.616e-13
4.659e-11
3.216e-13
4.63e-11
2.857e-13
4.605e-11
2.538e-13
4.582e-11
2.254e-13
4.562e-11
2.006e-13
4.544e-11
1.79e-13
4.528e-11
1.607e-13
4.514e-11
1.457e-13
4.5e-11
1.34e-13
4.488e-11
1.261e-13
4.476e-11
1.224e-13
4.463e-11
1.242e-13
4.45e-11
1.333e-13
4.434e-11
1.537e-13
4.415e-11
1.919e-13
4.39e-11
2.549e-13
3.312e-13
9.523e-10
2.37e-10
8.501e-10
3.075e-10
7.275e-10
2.55e-10
6.183e-10
1.929e-10
5.294e-10
1.431e-10
4.592e-10
1.065e-10
4.041e-10
8.059e-11
3.606e-10
6.221e-11
3.258e-10
4.898e-11
2.975e-10
3.926e-11
2.744e-10
3.193e-11
2.553e-10
2.628e-11
2.394e-10
2.182e-11
2.26e-10
1.825e-11
2.148e-10
1.533e-11
2.053e-10
1.29e-11
1.973e-10
1.086e-11
1.906e-10
9.117e-12
1.849e-10
7.611e-12
1.803e-10
6.293e-12
1.765e-10
5.124e-12
1.735e-10
4.075e-12
1.712e-10
3.121e-12
1.695e-10
2.241e-12
1.684e-10
1.42e-12
1.68e-10
6.415e-13
1.68e-10
-1.054e-13
1.686e-10
-8.315e-13
1.698e-10
-1.546e-12
1.714e-10
-2.258e-12
1.736e-10
-2.974e-12
1.764e-10
-3.7e-12
1.796e-10
-4.442e-12
1.835e-10
-5.205e-12
1.879e-10
-5.991e-12
1.929e-10
-6.804e-12
1.985e-10
-7.646e-12
2.048e-10
-8.516e-12
2.117e-10
-9.414e-12
2.193e-10
-1.034e-11
2.276e-10
-1.128e-11
2.366e-10
-1.224e-11
2.463e-10
-1.32e-11
2.567e-10
-1.416e-11
2.677e-10
-1.509e-11
2.794e-10
-1.599e-11
2.918e-10
-1.684e-11
3.046e-10
-1.76e-11
3.18e-10
-1.827e-11
3.317e-10
-1.88e-11
3.457e-10
-1.917e-11
3.598e-10
-1.936e-11
3.739e-10
-1.934e-11
3.878e-10
-1.907e-11
4.013e-10
-1.854e-11
4.142e-10
-1.774e-11
4.263e-10
-1.664e-11
4.374e-10
-1.525e-11
4.473e-10
-1.358e-11
4.558e-10
-1.164e-11
4.627e-10
-9.479e-12
4.678e-10
-7.128e-12
4.712e-10
-4.64e-12
4.727e-10
-2.072e-12
4.724e-10
5.155e-13
4.702e-10
3.064e-12
4.662e-10
5.518e-12
4.605e-10
7.83e-12
4.533e-10
9.961e-12
4.447e-10
1.188e-11
4.348e-10
1.356e-11
4.239e-10
1.5e-11
4.121e-10
1.619e-11
3.997e-10
1.712e-11
3.867e-10
1.781e-11
3.734e-10
1.828e-11
3.598e-10
1.852e-11
3.463e-10
1.857e-11
3.328e-10
1.843e-11
3.196e-10
1.814e-11
3.066e-10
1.772e-11
2.94e-10
1.718e-11
2.819e-10
1.655e-11
2.703e-10
1.584e-11
2.592e-10
1.508e-11
2.487e-10
1.429e-11
2.388e-10
1.347e-11
2.295e-10
1.264e-11
2.208e-10
1.182e-11
2.127e-10
1.101e-11
2.052e-10
1.022e-11
1.982e-10
9.452e-12
1.918e-10
8.718e-12
1.859e-10
8.019e-12
1.804e-10
7.357e-12
1.755e-10
6.733e-12
1.709e-10
6.148e-12
1.668e-10
5.602e-12
1.63e-10
5.093e-12
1.596e-10
4.623e-12
1.565e-10
4.188e-12
1.537e-10
3.787e-12
1.511e-10
3.419e-12
1.488e-10
3.082e-12
1.468e-10
2.773e-12
1.449e-10
2.492e-12
1.432e-10
2.236e-12
1.417e-10
2.003e-12
1.404e-10
1.792e-12
1.392e-10
1.601e-12
1.382e-10
1.429e-12
1.372e-10
1.274e-12
1.363e-10
1.135e-12
1.356e-10
1.011e-12
1.349e-10
9.004e-13
1.343e-10
8.035e-13
1.338e-10
7.192e-13
1.333e-10
6.472e-13
1.328e-10
5.876e-13
1.324e-10
5.405e-13
1.321e-10
5.069e-13
1.317e-10
4.881e-13
1.313e-10
4.861e-13
1.31e-10
5.046e-13
1.306e-10
5.485e-13
1.301e-10
6.234e-13
1.297e-10
7.284e-13
8.275e-13
9.779e-10
1.966e-10
9.637e-10
3.217e-10
9.013e-10
3.175e-10
8.212e-10
2.731e-10
7.409e-10
2.234e-10
6.679e-10
1.795e-10
6.045e-10
1.44e-10
5.505e-10
1.162e-10
5.05e-10
9.453e-11
4.666e-10
7.764e-11
4.342e-10
6.433e-11
4.068e-10
5.37e-11
3.835e-10
4.51e-11
3.637e-10
3.804e-11
3.468e-10
3.217e-11
3.325e-10
2.723e-11
3.203e-10
2.303e-11
3.1e-10
1.941e-11
3.014e-10
1.626e-11
2.942e-10
1.348e-11
2.883e-10
1.1e-11
2.837e-10
8.764e-12
2.801e-10
6.723e-12
2.775e-10
4.835e-12
2.758e-10
3.068e-12
2.751e-10
1.391e-12
2.752e-10
-2.211e-13
2.761e-10
-1.789e-12
2.779e-10
-3.333e-12
2.805e-10
-4.87e-12
2.84e-10
-6.415e-12
2.883e-10
-7.98e-12
2.934e-10
-9.577e-12
2.994e-10
-1.122e-11
3.063e-10
-1.29e-11
3.142e-10
-1.465e-11
3.23e-10
-1.644e-11
3.327e-10
-1.83e-11
3.435e-10
-2.021e-11
3.554e-10
-2.217e-11
3.683e-10
-2.417e-11
3.822e-10
-2.62e-11
3.972e-10
-2.823e-11
4.133e-10
-3.024e-11
4.304e-10
-3.221e-11
4.485e-10
-3.409e-11
4.675e-10
-3.585e-11
4.874e-10
-3.744e-11
5.079e-10
-3.88e-11
5.29e-10
-3.99e-11
5.505e-10
-4.065e-11
5.721e-10
-4.101e-11
5.937e-10
-4.092e-11
6.15e-10
-4.033e-11
6.356e-10
-3.918e-11
6.553e-10
-3.745e-11
6.738e-10
-3.511e-11
6.907e-10
-3.217e-11
7.058e-10
-2.864e-11
7.187e-10
-2.456e-11
7.292e-10
-2.001e-11
7.372e-10
-1.506e-11
7.423e-10
-9.831e-12
7.447e-10
-4.434e-12
7.442e-10
1.005e-12
7.409e-10
6.366e-12
7.349e-10
1.153e-11
7.263e-10
1.641e-11
7.154e-10
2.091e-11
7.023e-10
2.497e-11
6.873e-10
2.855e-11
6.707e-10
3.161e-11
6.527e-10
3.415e-11
6.337e-10
3.616e-11
6.138e-10
3.767e-11
5.934e-10
3.868e-11
5.727e-10
3.925e-11
5.519e-10
3.939e-11
5.312e-10
3.915e-11
5.107e-10
3.858e-11
4.907e-10
3.772e-11
4.713e-10
3.662e-11
4.525e-10
3.531e-11
4.345e-10
3.385e-11
4.173e-10
3.227e-11
4.01e-10
3.06e-11
3.856e-10
2.888e-11
3.711e-10
2.714e-11
3.575e-10
2.541e-11
3.448e-10
2.369e-11
3.33e-10
2.202e-11
3.221e-10
2.039e-11
3.12e-10
1.883e-11
3.026e-10
1.735e-11
2.941e-10
1.593e-11
2.862e-10
1.46e-11
2.79e-10
1.335e-11
2.724e-10
1.218e-11
2.664e-10
1.109e-11
2.61e-10
1.008e-11
2.56e-10
9.139e-12
2.515e-10
8.275e-12
2.475e-10
7.481e-12
2.438e-10
6.752e-12
2.405e-10
6.085e-12
2.375e-10
5.475e-12
2.348e-10
4.919e-12
2.324e-10
4.414e-12
2.302e-10
3.955e-12
2.283e-10
3.539e-12
2.266e-10
3.164e-12
2.25e-10
2.825e-12
2.236e-10
2.521e-12
2.224e-10
2.249e-12
2.213e-10
2.008e-12
2.203e-10
1.794e-12
2.194e-10
1.608e-12
2.186e-10
1.449e-12
2.179e-10
1.315e-12
2.172e-10
1.208e-12
2.166e-10
1.127e-12
2.16e-10
1.076e-12
2.154e-10
1.056e-12
2.149e-10
1.07e-12
2.143e-10
1.121e-12
2.137e-10
1.209e-12
2.131e-10
1.322e-12
1.414e-12
9.752e-10
1.589e-10
9.93e-10
3.039e-10
9.728e-10
3.377e-10
9.268e-10
3.19e-10
8.689e-10
2.813e-10
8.083e-10
2.401e-10
7.501e-10
2.022e-10
6.968e-10
1.694e-10
6.493e-10
1.421e-10
6.074e-10
1.195e-10
5.709e-10
1.009e-10
5.392e-10
8.544e-11
5.117e-10
7.261e-11
4.879e-10
6.183e-11
4.674e-10
5.27e-11
4.497e-10
4.49e-11
4.345e-10
3.817e-11
4.216e-10
3.231e-11
4.108e-10
2.715e-11
4.017e-10
2.258e-11
3.942e-10
1.847e-11
3.882e-10
1.474e-11
3.836e-10
1.131e-11
3.803e-10
8.136e-12
3.782e-10
5.149e-12
3.773e-10
2.308e-12
3.775e-10
-4.282e-13
3.788e-10
-3.094e-12
3.812e-10
-5.722e-12
3.847e-10
-8.338e-12
3.892e-10
-1.097e-11
3.949e-10
-1.363e-11
4.017e-10
-1.634e-11
4.096e-10
-1.913e-11
4.187e-10
-2.199e-11
4.289e-10
-2.494e-11
4.405e-10
-2.798e-11
4.533e-10
-3.112e-11
4.674e-10
-3.434e-11
4.829e-10
-3.764e-11
4.997e-10
-4.1e-11
5.179e-10
-4.439e-11
5.375e-10
-4.779e-11
5.584e-10
-5.115e-11
5.806e-10
-5.443e-11
6.041e-10
-5.756e-11
6.287e-10
-6.048e-11
6.544e-10
-6.311e-11
6.809e-10
-6.536e-11
7.082e-10
-6.715e-11
7.359e-10
-6.837e-11
7.638e-10
-6.893e-11
7.916e-10
-6.874e-11
8.19e-10
-6.77e-11
8.456e-10
-6.575e-11
8.709e-10
-6.282e-11
8.947e-10
-5.888e-11
9.165e-10
-5.393e-11
9.359e-10
-4.801e-11
9.525e-10
-4.118e-11
9.66e-10
-3.356e-11
9.763e-10
-2.529e-11
9.83e-10
-1.655e-11
9.861e-10
-7.521e-12
9.855e-10
1.577e-12
9.813e-10
1.055e-11
9.736e-10
1.92e-11
9.627e-10
2.737e-11
9.487e-10
3.492e-11
9.319e-10
4.174e-11
9.127e-10
4.776e-11
8.914e-10
5.293e-11
8.683e-10
5.722e-11
8.438e-10
6.065e-11
8.183e-10
6.322e-11
7.92e-10
6.498e-11
7.652e-10
6.598e-11
7.383e-10
6.628e-11
7.115e-10
6.594e-11
6.851e-10
6.504e-11
6.592e-10
6.365e-11
6.339e-10
6.184e-11
6.096e-10
5.969e-11
5.861e-10
5.728e-11
5.637e-10
5.465e-11
5.425e-10
5.188e-11
5.223e-10
4.902e-11
5.033e-10
4.612e-11
4.855e-10
4.321e-11
4.689e-10
4.034e-11
4.534e-10
3.752e-11
4.39e-10
3.479e-11
4.257e-10
3.217e-11
4.133e-10
2.966e-11
4.02e-10
2.727e-11
3.916e-10
2.502e-11
3.82e-10
2.289e-11
3.733e-10
2.091e-11
3.653e-10
1.906e-11
3.581e-10
1.734e-11
3.515e-10
1.574e-11
3.455e-10
1.427e-11
3.4e-10
1.292e-11
3.351e-10
1.167e-11
3.307e-10
1.053e-11
3.267e-10
9.487e-12
3.231e-10
8.534e-12
3.198e-10
7.667e-12
3.169e-10
6.878e-12
3.143e-10
6.164e-12
3.119e-10
5.517e-12
3.098e-10
4.933e-12
3.079e-10
4.408e-12
3.062e-10
3.938e-12
3.047e-10
3.519e-12
3.033e-10
3.149e-12
3.021e-10
2.824e-12
3.01e-10
2.544e-12
3e-10
2.308e-12
2.991e-10
2.114e-12
2.983e-10
1.964e-12
2.975e-10
1.858e-12
2.968e-10
1.799e-12
2.961e-10
1.787e-12
2.954e-10
1.822e-12
2.947e-10
1.899e-12
2.94e-10
1.998e-12
2.075e-12
9.668e-10
1.296e-10
9.944e-10
2.762e-10
9.978e-10
3.343e-10
9.78e-10
3.389e-10
9.424e-10
3.168e-10
8.984e-10
2.841e-10
8.515e-10
2.49e-10
8.052e-10
2.158e-10
7.614e-10
1.859e-10
7.211e-10
1.598e-10
6.846e-10
1.373e-10
6.52e-10
1.181e-10
6.23e-10
1.015e-10
5.975e-10
8.732e-11
5.752e-10
7.504e-11
5.557e-10
6.437e-11
5.389e-10
5.503e-11
5.244e-10
4.68e-11
5.121e-10
3.948e-11
5.017e-10
3.292e-11
4.932e-10
2.698e-11
4.864e-10
2.156e-11
4.811e-10
1.656e-11
4.774e-10
1.189e-11
4.75e-10
7.482e-12
4.741e-10
3.275e-12
4.744e-10
-7.866e-13
4.761e-10
-4.753e-12
4.79e-10
-8.666e-12
4.833e-10
-1.257e-11
4.888e-10
-1.649e-11
4.956e-10
-2.046e-11
5.038e-10
-2.451e-11
5.133e-10
-2.865e-11
5.242e-10
-3.291e-11
5.366e-10
-3.73e-11
5.504e-10
-4.182e-11
5.658e-10
-4.647e-11
5.827e-10
-5.124e-11
6.012e-10
-5.613e-11
6.213e-10
-6.109e-11
6.43e-10
-6.61e-11
6.663e-10
-7.111e-11
6.912e-10
-7.606e-11
7.176e-10
-8.087e-11
7.456e-10
-8.547e-11
7.748e-10
-8.975e-11
8.053e-10
-9.359e-11
8.368e-10
-9.688e-11
8.691e-10
-9.947e-11
9.02e-10
-1.012e-10
9.351e-10
-1.02e-10
9.681e-10
-1.017e-10
1.001e-09
-1.001e-10
1.032e-09
-9.722e-11
1.062e-09
-9.287e-11
1.09e-09
-8.705e-11
1.116e-09
-7.973e-11
1.139e-09
-7.099e-11
1.159e-09
-6.091e-11
1.175e-09
-4.966e-11
1.187e-09
-3.745e-11
1.195e-09
-2.454e-11
1.199e-09
-1.122e-11
1.198e-09
2.21e-12
1.193e-09
1.545e-11
1.184e-09
2.823e-11
1.171e-09
4.03e-11
1.155e-09
5.146e-11
1.135e-09
6.155e-11
1.112e-09
7.046e-11
1.087e-09
7.812e-11
1.06e-09
8.451e-11
1.031e-09
8.961e-11
1e-09
9.347e-11
9.693e-10
9.614e-11
9.376e-10
9.768e-11
9.057e-10
9.818e-11
8.739e-10
9.774e-11
8.424e-10
9.647e-11
8.116e-10
9.448e-11
7.816e-10
9.186e-11
7.525e-10
8.874e-11
7.246e-10
8.521e-11
6.979e-10
8.137e-11
6.725e-10
7.731e-11
6.484e-10
7.311e-11
6.256e-10
6.884e-11
6.043e-10
6.455e-11
5.843e-10
6.031e-11
5.657e-10
5.616e-11
5.484e-10
5.212e-11
5.323e-10
4.823e-11
5.175e-10
4.45e-11
5.038e-10
4.096e-11
4.912e-10
3.761e-11
4.796e-10
3.445e-11
4.69e-10
3.15e-11
4.593e-10
2.874e-11
4.505e-10
2.617e-11
4.425e-10
2.379e-11
4.352e-10
2.158e-11
4.285e-10
1.955e-11
4.225e-10
1.769e-11
4.171e-10
1.597e-11
4.122e-10
1.44e-11
4.077e-10
1.297e-11
4.037e-10
1.167e-11
4.001e-10
1.048e-11
3.969e-10
9.399e-12
3.94e-10
8.422e-12
3.914e-10
7.54e-12
3.89e-10
6.745e-12
3.869e-10
6.032e-12
3.851e-10
5.396e-12
3.834e-10
4.831e-12
3.819e-10
4.335e-12
3.805e-10
3.904e-12
3.793e-10
3.537e-12
3.782e-10
3.231e-12
3.771e-10
2.987e-12
3.762e-10
2.805e-12
3.753e-10
2.684e-12
3.745e-10
2.624e-12
3.737e-10
2.621e-12
3.729e-10
2.666e-12
3.722e-10
2.738e-12
2.795e-12
9.592e-10
1.079e-10
9.875e-10
2.479e-10
1.003e-09
3.191e-10
1e-09
3.415e-10
9.824e-10
3.345e-10
9.542e-10
3.122e-10
9.201e-10
2.832e-10
8.833e-10
2.526e-10
8.463e-10
2.229e-10
8.105e-10
1.955e-10
7.77e-10
1.709e-10
7.461e-10
1.49e-10
7.18e-10
1.296e-10
6.927e-10
1.126e-10
6.702e-10
9.756e-11
6.503e-10
8.427e-11
6.328e-10
7.246e-11
6.177e-10
6.191e-11
6.048e-10
5.243e-11
5.939e-10
4.385e-11
5.848e-10
3.602e-11
5.776e-10
2.881e-11
5.72e-10
2.212e-11
5.681e-10
1.583e-11
5.657e-10
9.878e-12
5.648e-10
4.17e-12
5.654e-10
-1.359e-12
5.674e-10
-6.771e-12
5.708e-10
-1.212e-11
5.757e-10
-1.746e-11
5.821e-10
-2.283e-11
5.899e-10
-2.827e-11
5.992e-10
-3.382e-11
6.1e-10
-3.95e-11
6.225e-10
-4.533e-11
6.365e-10
-5.133e-11
6.522e-10
-5.751e-11
6.696e-10
-6.387e-11
6.887e-10
-7.038e-11
7.096e-10
-7.704e-11
7.323e-10
-8.381e-11
7.569e-10
-9.063e-11
7.832e-10
-9.744e-11
8.113e-10
-1.042e-10
8.411e-10
-1.107e-10
8.726e-10
-1.169e-10
9.056e-10
-1.227e-10
9.399e-10
-1.279e-10
9.755e-10
-1.324e-10
1.012e-09
-1.359e-10
1.049e-09
-1.383e-10
1.086e-09
-1.393e-10
1.123e-09
-1.389e-10
1.16e-09
-1.367e-10
1.195e-09
-1.327e-10
1.229e-09
-1.268e-10
1.261e-09
-1.189e-10
1.29e-09
-1.089e-10
1.316e-09
-9.697e-11
1.339e-09
-8.323e-11
1.357e-09
-6.788e-11
1.371e-09
-5.122e-11
1.38e-09
-3.36e-11
1.384e-09
-1.542e-11
1.383e-09
2.903e-12
1.378e-09
2.097e-11
1.368e-09
3.84e-11
1.353e-09
5.487e-11
1.334e-09
7.009e-11
1.312e-09
8.386e-11
1.286e-09
9.603e-11
1.258e-09
1.065e-10
1.227e-09
1.152e-10
1.195e-09
1.222e-10
1.161e-09
1.275e-10
1.126e-09
1.312e-10
1.09e-09
1.334e-10
1.054e-09
1.341e-10
1.018e-09
1.336e-10
9.826e-10
1.319e-10
9.478e-10
1.293e-10
9.139e-10
1.258e-10
8.811e-10
1.216e-10
8.495e-10
1.168e-10
8.193e-10
1.116e-10
7.905e-10
1.061e-10
7.633e-10
1.004e-10
7.375e-10
9.459e-11
7.133e-10
8.877e-11
6.906e-10
8.299e-11
6.694e-10
7.733e-11
6.497e-10
7.183e-11
6.314e-10
6.652e-11
6.145e-10
6.143e-11
5.989e-10
5.658e-11
5.845e-10
5.2e-11
5.713e-10
4.767e-11
5.592e-10
4.362e-11
5.481e-10
3.983e-11
5.379e-10
3.63e-11
5.287e-10
3.302e-11
5.203e-10
2.999e-11
5.127e-10
2.719e-11
5.057e-10
2.462e-11
4.994e-10
2.225e-11
4.938e-10
2.009e-11
4.886e-10
1.811e-11
4.84e-10
1.63e-11
4.798e-10
1.465e-11
4.761e-10
1.316e-11
4.727e-10
1.18e-11
4.696e-10
1.058e-11
4.669e-10
9.47e-12
4.645e-10
8.476e-12
4.623e-10
7.587e-12
4.603e-10
6.797e-12
4.585e-10
6.1e-12
4.57e-10
5.492e-12
4.555e-10
4.968e-12
4.542e-10
4.527e-12
4.531e-10
4.167e-12
4.52e-10
3.886e-12
4.51e-10
3.682e-12
4.5e-10
3.553e-12
4.492e-10
3.493e-12
4.483e-10
3.491e-12
4.476e-10
3.525e-12
3.56e-12
9.536e-10
9.185e-11
9.795e-10
2.22e-10
9.995e-10
2.991e-10
1.007e-09
3.336e-10
1.003e-09
3.393e-10
9.875e-10
3.273e-10
9.651e-10
3.056e-10
9.383e-10
2.794e-10
9.092e-10
2.519e-10
8.797e-10
2.251e-10
8.508e-10
1.998e-10
8.233e-10
1.765e-10
7.976e-10
1.553e-10
7.74e-10
1.362e-10
7.526e-10
1.19e-10
7.335e-10
1.035e-10
7.164e-10
8.946e-11
7.016e-10
7.68e-11
6.887e-10
6.528e-11
6.778e-10
5.475e-11
6.688e-10
4.506e-11
6.615e-10
3.607e-11
6.559e-10
2.766e-11
6.521e-10
1.972e-11
6.498e-10
1.216e-11
6.491e-10
4.875e-12
6.499e-10
-2.203e-12
6.523e-10
-9.15e-12
6.562e-10
-1.603e-11
6.617e-10
-2.291e-11
6.687e-10
-2.984e-11
6.773e-10
-3.687e-11
6.875e-10
-4.403e-11
6.993e-10
-5.136e-11
7.129e-10
-5.89e-11
7.282e-10
-6.665e-11
7.453e-10
-7.462e-11
7.643e-10
-8.282e-11
7.851e-10
-9.122e-11
8.079e-10
-9.98e-11
8.326e-10
-1.085e-10
8.592e-10
-1.173e-10
8.878e-10
-1.261e-10
9.184e-10
-1.347e-10
9.508e-10
-1.431e-10
9.85e-10
-1.511e-10
1.021e-09
-1.586e-10
1.058e-09
-1.653e-10
1.097e-09
-1.71e-10
1.136e-09
-1.755e-10
1.177e-09
-1.786e-10
1.217e-09
-1.8e-10
1.258e-09
-1.794e-10
1.298e-09
-1.766e-10
1.337e-09
-1.715e-10
1.374e-09
-1.639e-10
1.408e-09
-1.537e-10
1.44e-09
-1.409e-10
1.469e-09
-1.255e-10
1.493e-09
-1.077e-10
1.513e-09
-8.788e-11
1.529e-09
-6.634e-11
1.538e-09
-4.355e-11
1.543e-09
-2.003e-11
1.542e-09
3.672e-12
1.536e-09
2.703e-11
1.525e-09
4.956e-11
1.509e-09
7.082e-11
1.489e-09
9.047e-11
1.464e-09
1.082e-10
1.436e-09
1.239e-10
1.406e-09
1.375e-10
1.372e-09
1.487e-10
1.336e-09
1.578e-10
1.299e-09
1.647e-10
1.261e-09
1.694e-10
1.222e-09
1.723e-10
1.183e-09
1.733e-10
1.144e-09
1.726e-10
1.106e-09
1.705e-10
1.068e-09
1.671e-10
1.031e-09
1.627e-10
9.95e-10
1.573e-10
9.606e-10
1.512e-10
9.277e-10
1.445e-10
8.963e-10
1.375e-10
8.666e-10
1.301e-10
8.385e-10
1.227e-10
8.121e-10
1.152e-10
7.873e-10
1.078e-10
7.642e-10
1.005e-10
7.427e-10
9.337e-11
7.227e-10
8.652e-11
7.041e-10
7.996e-11
6.87e-10
7.37e-11
6.712e-10
6.777e-11
6.567e-10
6.218e-11
6.434e-10
5.693e-11
6.312e-10
5.202e-11
6.201e-10
4.745e-11
6.099e-10
4.32e-11
6.006e-10
3.926e-11
5.922e-10
3.563e-11
5.845e-10
3.228e-11
5.776e-10
2.92e-11
5.713e-10
2.638e-11
5.656e-10
2.38e-11
5.604e-10
2.144e-11
5.558e-10
1.929e-11
5.516e-10
1.734e-11
5.479e-10
1.557e-11
5.445e-10
1.396e-11
5.414e-10
1.251e-11
5.387e-10
1.121e-11
5.363e-10
1.004e-11
5.341e-10
8.995e-12
5.321e-10
8.072e-12
5.303e-10
7.264e-12
5.287e-10
6.563e-12
5.273e-10
5.966e-12
5.26e-10
5.47e-12
5.248e-10
5.071e-12
5.237e-10
4.766e-12
5.227e-10
4.551e-12
5.218e-10
4.418e-12
5.209e-10
4.356e-12
5.201e-10
4.344e-12
4.355e-12
9.498e-10
7.959e-11
9.724e-10
1.994e-10
9.938e-10
2.777e-10
1.007e-09
3.2e-10
1.011e-09
3.353e-10
1.006e-09
3.324e-10
9.939e-10
3.18e-10
9.762e-10
2.971e-10
9.552e-10
2.73e-10
9.324e-10
2.479e-10
9.089e-10
2.232e-10
8.858e-10
1.996e-10
8.636e-10
1.775e-10
8.427e-10
1.571e-10
8.234e-10
1.383e-10
8.058e-10
1.21e-10
7.9e-10
1.053e-10
7.76e-10
9.077e-11
7.639e-10
7.744e-11
7.535e-10
6.513e-11
7.449e-10
5.369e-11
7.38e-10
4.299e-11
7.327e-10
3.291e-11
7.291e-10
2.333e-11
7.271e-10
1.416e-11
7.267e-10
5.291e-12
7.278e-10
-3.362e-12
7.306e-10
-1.188e-11
7.349e-10
-2.034e-11
7.408e-10
-2.882e-11
7.483e-10
-3.736e-11
7.575e-10
-4.604e-11
7.683e-10
-5.489e-11
7.809e-10
-6.395e-11
7.953e-10
-7.327e-11
8.115e-10
-8.285e-11
8.296e-10
-9.27e-11
8.496e-10
-1.028e-10
8.716e-10
-1.132e-10
8.956e-10
-1.238e-10
9.217e-10
-1.346e-10
9.498e-10
-1.454e-10
9.8e-10
-1.562e-10
1.012e-09
-1.669e-10
1.046e-09
-1.773e-10
1.083e-09
-1.872e-10
1.12e-09
-1.965e-10
1.16e-09
-2.048e-10
1.201e-09
-2.119e-10
1.243e-09
-2.175e-10
1.285e-09
-2.213e-10
1.329e-09
-2.231e-10
1.372e-09
-2.225e-10
1.414e-09
-2.191e-10
1.456e-09
-2.129e-10
1.495e-09
-2.035e-10
1.532e-09
-1.909e-10
1.567e-09
-1.751e-10
1.597e-09
-1.56e-10
1.624e-09
-1.34e-10
1.645e-09
-1.094e-10
1.661e-09
-8.256e-11
1.672e-09
-5.421e-11
1.677e-09
-2.494e-11
1.676e-09
4.545e-12
1.669e-09
3.358e-11
1.657e-09
6.156e-11
1.64e-09
8.794e-11
1.618e-09
1.123e-10
1.592e-09
1.343e-10
1.563e-09
1.537e-10
1.53e-09
1.704e-10
1.494e-09
1.844e-10
1.456e-09
1.956e-10
1.417e-09
2.041e-10
1.376e-09
2.1e-10
1.335e-09
2.135e-10
1.293e-09
2.148e-10
1.252e-09
2.14e-10
1.211e-09
2.114e-10
1.171e-09
2.073e-10
1.132e-09
2.017e-10
1.094e-09
1.951e-10
1.058e-09
1.876e-10
1.023e-09
1.794e-10
9.897e-10
1.707e-10
9.582e-10
1.616e-10
9.285e-10
1.524e-10
9.005e-10
1.432e-10
8.743e-10
1.34e-10
8.498e-10
1.25e-10
8.269e-10
1.162e-10
8.057e-10
1.077e-10
7.861e-10
9.961e-11
7.679e-10
9.187e-11
7.511e-10
8.452e-11
7.357e-10
7.76e-11
7.216e-10
7.109e-11
7.086e-10
6.5e-11
6.967e-10
5.932e-11
6.859e-10
5.405e-11
6.76e-10
4.916e-11
6.67e-10
4.464e-11
6.588e-10
4.047e-11
6.513e-10
3.664e-11
6.446e-10
3.312e-11
6.385e-10
2.99e-11
6.33e-10
2.696e-11
6.28e-10
2.428e-11
6.235e-10
2.183e-11
6.194e-10
1.961e-11
6.158e-10
1.76e-11
6.125e-10
1.579e-11
6.096e-10
1.415e-11
6.069e-10
1.268e-11
6.046e-10
1.137e-11
6.024e-10
1.02e-11
6.005e-10
9.173e-12
5.988e-10
8.278e-12
5.973e-10
7.509e-12
5.959e-10
6.861e-12
5.946e-10
6.328e-12
5.935e-10
5.908e-12
5.924e-10
5.592e-12
5.915e-10
5.375e-12
5.906e-10
5.243e-12
5.898e-10
5.181e-12
5.165e-12
9.472e-10
6.993e-11
9.668e-10
1.797e-10
9.878e-10
2.567e-10
1.004e-09
3.033e-10
1.014e-09
3.257e-10
1.016e-09
3.302e-10
1.012e-09
3.225e-10
1.002e-09
3.069e-10
9.882e-10
2.867e-10
9.719e-10
2.642e-10
9.542e-10
2.41e-10
9.358e-10
2.179e-10
9.176e-10
1.957e-10
9e-10
1.747e-10
8.834e-10
1.549e-10
8.68e-10
1.364e-10
8.54e-10
1.193e-10
8.415e-10
1.033e-10
8.305e-10
8.843e-11
8.211e-10
7.455e-11
8.132e-10
6.153e-11
8.07e-10
4.926e-11
8.023e-10
3.762e-11
7.991e-10
2.648e-11
7.975e-10
1.576e-11
7.975e-10
5.343e-12
7.99e-10
-4.861e-12
8.02e-10
-1.494e-11
8.067e-10
-2.498e-11
8.129e-10
-3.506e-11
8.208e-10
-4.523e-11
8.303e-10
-5.558e-11
8.416e-10
-6.614e-11
8.546e-10
-7.697e-11
8.694e-10
-8.809e-11
8.861e-10
-9.954e-11
9.047e-10
-1.113e-10
9.253e-10
-1.234e-10
9.479e-10
-1.358e-10
9.726e-10
-1.485e-10
9.995e-10
-1.614e-10
1.028e-09
-1.744e-10
1.059e-09
-1.873e-10
1.093e-09
-2.001e-10
1.128e-09
-2.126e-10
1.165e-09
-2.245e-10
1.204e-09
-2.356e-10
1.245e-09
-2.456e-10
1.287e-09
-2.542e-10
1.331e-09
-2.61e-10
1.375e-09
-2.657e-10
1.42e-09
-2.68e-10
1.465e-09
-2.674e-10
1.51e-09
-2.635e-10
1.553e-09
-2.562e-10
1.594e-09
-2.451e-10
1.634e-09
-2.301e-10
1.67e-09
-2.111e-10
1.702e-09
-1.882e-10
1.73e-09
-1.617e-10
1.752e-09
-1.32e-10
1.769e-09
-9.966e-11
1.78e-09
-6.54e-11
1.786e-09
-3.004e-11
1.785e-09
5.567e-12
1.778e-09
4.06e-11
1.765e-09
7.43e-11
1.747e-09
1.06e-10
1.724e-09
1.353e-10
1.696e-09
1.617e-10
1.665e-09
1.849e-10
1.631e-09
2.049e-10
1.593e-09
2.216e-10
1.554e-09
2.35e-10
1.513e-09
2.452e-10
1.471e-09
2.522e-10
1.428e-09
2.564e-10
1.385e-09
2.579e-10
1.342e-09
2.569e-10
1.299e-09
2.538e-10
1.258e-09
2.488e-10
1.217e-09
2.422e-10
1.178e-09
2.342e-10
1.141e-09
2.252e-10
1.105e-09
2.154e-10
1.07e-09
2.049e-10
1.038e-09
1.941e-10
1.007e-09
1.831e-10
9.783e-10
1.72e-10
9.512e-10
1.611e-10
9.259e-10
1.503e-10
9.023e-10
1.398e-10
8.804e-10
1.296e-10
8.601e-10
1.199e-10
8.413e-10
1.106e-10
8.24e-10
1.018e-10
8.081e-10
9.354e-11
7.934e-10
8.574e-11
7.8e-10
7.844e-11
7.677e-10
7.163e-11
7.564e-10
6.529e-11
7.462e-10
5.942e-11
7.368e-10
5.399e-11
7.283e-10
4.898e-11
7.206e-10
4.437e-11
7.136e-10
4.014e-11
7.072e-10
3.626e-11
7.015e-10
3.271e-11
6.963e-10
2.948e-11
6.916e-10
2.653e-11
6.873e-10
2.385e-11
6.835e-10
2.141e-11
6.801e-10
1.922e-11
6.77e-10
1.723e-11
6.743e-10
1.545e-11
6.718e-10
1.385e-11
6.695e-10
1.243e-11
6.675e-10
1.117e-11
6.658e-10
1.007e-11
6.641e-10
9.116e-12
6.627e-10
8.305e-12
6.614e-10
7.628e-12
6.602e-10
7.08e-12
6.592e-10
6.655e-12
6.582e-10
6.344e-12
6.573e-10
6.137e-12
6.565e-10
6.02e-12
5.976e-12
9.453e-10
6.211e-11
9.624e-10
1.627e-10
9.823e-10
2.368e-10
1e-09
2.854e-10
1.013e-09
3.126e-10
1.021e-09
3.229e-10
1.022e-09
3.209e-10
1.019e-09
3.103e-10
1.012e-09
2.941e-10
1.001e-09
2.745e-10
9.89e-10
2.533e-10
9.755e-10
2.315e-10
9.614e-10
2.097e-10
9.475e-10
1.886e-10
9.339e-10
1.684e-10
9.211e-10
1.492e-10
9.093e-10
1.311e-10
8.986e-10
1.14e-10
8.891e-10
9.791e-11
8.809e-10
8.272e-11
8.741e-10
6.834e-11
8.687e-10
5.467e-11
8.647e-10
4.161e-11
8.621e-10
2.904e-11
8.61e-10
1.687e-11
8.614e-10
4.985e-12
8.632e-10
-6.704e-12
8.666e-10
-1.829e-11
8.715e-10
-2.986e-11
8.779e-10
-4.15e-11
8.86e-10
-5.328e-11
8.957e-10
-6.527e-11
9.07e-10
-7.753e-11
9.202e-10
-9.01e-11
9.351e-10
-1.03e-10
9.519e-10
-1.163e-10
9.706e-10
-1.3e-10
9.914e-10
-1.441e-10
1.014e-09
-1.586e-10
1.039e-09
-1.734e-10
1.066e-09
-1.884e-10
1.095e-09
-2.035e-10
1.126e-09
-2.186e-10
1.16e-09
-2.336e-10
1.195e-09
-2.482e-10
1.233e-09
-2.621e-10
1.273e-09
-2.752e-10
1.314e-09
-2.87e-10
1.357e-09
-2.971e-10
1.401e-09
-3.053e-10
1.447e-09
-3.11e-10
1.492e-09
-3.139e-10
1.538e-09
-3.134e-10
1.584e-09
-3.091e-10
1.629e-09
-3.008e-10
1.671e-09
-2.88e-10
1.712e-09
-2.706e-10
1.749e-09
-2.484e-10
1.783e-09
-2.217e-10
1.812e-09
-1.905e-10
1.835e-09
-1.556e-10
1.853e-09
-1.174e-10
1.864e-09
-7.697e-11
1.87e-09
-3.522e-11
1.868e-09
6.792e-12
1.861e-09
4.806e-11
1.848e-09
8.768e-11
1.829e-09
1.249e-10
1.805e-09
1.592e-10
1.776e-09
1.9e-10
1.744e-09
2.172e-10
1.709e-09
2.405e-10
1.67e-09
2.599e-10
1.63e-09
2.754e-10
1.588e-09
2.872e-10
1.545e-09
2.953e-10
1.501e-09
3.001e-10
1.457e-09
3.018e-10
1.414e-09
3.006e-10
1.37e-09
2.969e-10
1.328e-09
2.91e-10
1.287e-09
2.832e-10
1.248e-09
2.739e-10
1.209e-09
2.633e-10
1.173e-09
2.518e-10
1.138e-09
2.396e-10
1.105e-09
2.27e-10
1.074e-09
2.141e-10
1.045e-09
2.012e-10
1.018e-09
1.884e-10
9.925e-10
1.758e-10
9.687e-10
1.635e-10
9.467e-10
1.517e-10
9.262e-10
1.404e-10
9.073e-10
1.296e-10
8.898e-10
1.193e-10
8.737e-10
1.096e-10
8.589e-10
1.005e-10
8.453e-10
9.201e-11
8.329e-10
8.405e-11
8.215e-10
7.666e-11
8.112e-10
6.98e-11
8.017e-10
6.345e-11
7.931e-10
5.759e-11
7.853e-10
5.22e-11
7.782e-10
4.725e-11
7.717e-10
4.271e-11
7.659e-10
3.855e-11
7.606e-10
3.476e-11
7.558e-10
3.13e-11
7.515e-10
2.815e-11
7.476e-10
2.53e-11
7.441e-10
2.271e-11
7.41e-10
2.037e-11
7.382e-10
1.827e-11
7.356e-10
1.638e-11
7.334e-10
1.47e-11
7.313e-10
1.321e-11
7.295e-10
1.189e-11
7.279e-10
1.075e-11
7.264e-10
9.766e-12
7.251e-10
8.938e-12
7.239e-10
8.256e-12
7.229e-10
7.715e-12
7.219e-10
7.306e-12
7.21e-10
7.019e-12
7.202e-10
6.845e-12
6.772e-12
9.44e-10
5.559e-11
9.59e-10
1.477e-10
9.776e-10
2.182e-10
9.957e-10
2.673e-10
1.011e-09
2.974e-10
1.022e-09
3.12e-10
1.028e-09
3.146e-10
1.03e-09
3.084e-10
1.028e-09
2.961e-10
1.023e-09
2.796e-10
1.015e-09
2.606e-10
1.007e-09
2.404e-10
9.966e-10
2.196e-10
9.863e-10
1.99e-10
9.76e-10
1.788e-10
9.659e-10
1.593e-10
9.565e-10
1.406e-10
9.478e-10
1.227e-10
9.401e-10
1.057e-10
9.334e-10
8.943e-11
9.278e-10
7.393e-11
9.234e-10
5.907e-11
9.202e-10
4.476e-11
9.183e-10
3.092e-11
9.178e-10
1.743e-11
9.186e-10
4.198e-12
9.207e-10
-8.869e-12
9.243e-10
-2.187e-11
9.293e-10
-3.489e-11
9.359e-10
-4.802e-11
9.439e-10
-6.133e-11
9.535e-10
-7.49e-11
9.648e-10
-8.879e-11
9.778e-10
-1.031e-10
9.925e-10
-1.177e-10
1.009e-09
-1.329e-10
1.027e-09
-1.485e-10
1.048e-09
-1.645e-10
1.07e-09
-1.81e-10
1.095e-09
-1.978e-10
1.121e-09
-2.149e-10
1.15e-09
-2.322e-10
1.181e-09
-2.495e-10
1.214e-09
-2.666e-10
1.249e-09
-2.834e-10
1.286e-09
-2.994e-10
1.325e-09
-3.144e-10
1.367e-09
-3.281e-10
1.409e-09
-3.4e-10
1.454e-09
-3.495e-10
1.499e-09
-3.564e-10
1.545e-09
-3.599e-10
1.591e-09
-3.597e-10
1.637e-09
-3.552e-10
1.683e-09
-3.46e-10
1.726e-09
-3.316e-10
1.768e-09
-3.119e-10
1.806e-09
-2.866e-10
1.84e-09
-2.559e-10
1.87e-09
-2.201e-10
1.894e-09
-1.797e-10
1.912e-09
-1.356e-10
1.924e-09
-8.871e-11
1.929e-09
-4.034e-11
1.927e-09
8.285e-12
1.919e-09
5.595e-11
1.905e-09
1.016e-10
1.886e-09
1.444e-10
1.861e-09
1.836e-10
1.833e-09
2.189e-10
1.8e-09
2.499e-10
1.764e-09
2.764e-10
1.725e-09
2.985e-10
1.684e-09
3.161e-10
1.642e-09
3.294e-10
1.599e-09
3.387e-10
1.555e-09
3.44e-10
1.511e-09
3.458e-10
1.467e-09
3.443e-10
1.424e-09
3.399e-10
1.382e-09
3.331e-10
1.341e-09
3.241e-10
1.302e-09
3.133e-10
1.264e-09
3.012e-10
1.228e-09
2.879e-10
1.194e-09
2.74e-10
1.161e-09
2.595e-10
1.131e-09
2.447e-10
1.102e-09
2.3e-10
1.075e-09
2.153e-10
1.05e-09
2.01e-10
1.026e-09
1.87e-10
1.004e-09
1.735e-10
9.843e-10
1.606e-10
9.656e-10
1.482e-10
9.484e-10
1.365e-10
9.326e-10
1.255e-10
9.18e-10
1.151e-10
9.046e-10
1.054e-10
8.924e-10
9.631e-11
8.812e-10
8.787e-11
8.709e-10
8.003e-11
8.616e-10
7.279e-11
8.531e-10
6.61e-11
8.453e-10
5.994e-11
8.383e-10
5.428e-11
8.319e-10
4.909e-11
8.261e-10
4.433e-11
8.209e-10
3.999e-11
8.162e-10
3.603e-11
8.119e-10
3.242e-11
8.08e-10
2.915e-11
8.046e-10
2.618e-11
8.015e-10
2.349e-11
7.986e-10
2.107e-11
7.961e-10
1.89e-11
7.939e-10
1.695e-11
7.919e-10
1.522e-11
7.901e-10
1.37e-11
7.884e-10
1.236e-11
7.87e-10
1.121e-11
7.857e-10
1.023e-11
7.846e-10
9.409e-12
7.835e-10
8.748e-12
7.826e-10
8.238e-12
7.817e-10
7.871e-12
7.809e-10
7.639e-12
7.537e-12
9.43e-10
5.005e-11
9.563e-10
1.344e-10
9.736e-10
2.01e-10
9.915e-10
2.493e-10
1.008e-09
2.81e-10
1.021e-09
2.987e-10
1.031e-09
3.05e-10
1.037e-09
3.026e-10
1.039e-09
2.937e-10
1.038e-09
2.802e-10
1.035e-09
2.636e-10
1.031e-09
2.451e-10
1.025e-09
2.256e-10
1.018e-09
2.058e-10
1.011e-09
1.86e-10
1.003e-09
1.665e-10
9.965e-10
1.475e-10
9.899e-10
1.292e-10
9.84e-10
1.116e-10
9.789e-10
9.456e-11
9.746e-10
7.818e-11
9.714e-10
6.236e-11
9.691e-10
4.701e-11
9.68e-10
3.207e-11
9.68e-10
1.743e-11
9.692e-10
2.998e-12
9.716e-10
-1.131e-11
9.753e-10
-2.56e-11
9.804e-10
-3.995e-11
9.868e-10
-5.445e-11
9.947e-10
-6.92e-11
1.004e-09
-8.425e-11
1.015e-09
-9.968e-11
1.027e-09
-1.156e-10
1.042e-09
-1.319e-10
1.057e-09
-1.488e-10
1.075e-09
-1.661e-10
1.095e-09
-1.84e-10
1.116e-09
-2.024e-10
1.14e-09
-2.213e-10
1.165e-09
-2.404e-10
1.193e-09
-2.598e-10
1.223e-09
-2.793e-10
1.255e-09
-2.985e-10
1.289e-09
-3.174e-10
1.325e-09
-3.356e-10
1.363e-09
-3.526e-10
1.403e-09
-3.682e-10
1.445e-09
-3.818e-10
1.488e-09
-3.929e-10
1.533e-09
-4.01e-10
1.578e-09
-4.054e-10
1.624e-09
-4.056e-10
1.67e-09
-4.01e-10
1.715e-09
-3.91e-10
1.759e-09