/*--------------------------------*- C++ -*----------------------------------*\
  =========                 |
  \\      /  F ield         | OpenFOAM: The Open Source CFD Toolbox
   \\    /   O peration     | Website:  https://openfoam.org
    \\  /    A nd           | Version:  7
     \\/     M anipulation  |
\*---------------------------------------------------------------------------*/
FoamFile
{
    version     2.0;
    format      ascii;
    class       volVectorField;
    location    "1799.9994734275374";
    object      U;
}
// * * * * * * * * * * * * * * * * * * * * * * * * * * * * * * * * * * * * * //

dimensions      [0 1 -1 0 0 0 0];

internalField   nonuniform List<vector> 
4096
(
(0.001039 0.0001611 0)
(0.0007463 0.0001314 0)
(0.0005302 8.473e-05 0)
(0.0003919 5.358e-05 0)
(0.0003036 3.466e-05 0)
(0.0002457 2.328e-05 0)
(0.0002061 1.633e-05 0)
(0.0001778 1.195e-05 0)
(0.0001568 9.059e-06 0)
(0.0001407 7.071e-06 0)
(0.000128 5.644e-06 0)
(0.0001177 4.581e-06 0)
(0.0001094 3.766e-06 0)
(0.0001025 3.124e-06 0)
(9.676e-05 2.607e-06 0)
(9.197e-05 2.184e-06 0)
(8.795e-05 1.831e-06 0)
(8.459e-05 1.531e-06 0)
(8.179e-05 1.275e-06 0)
(7.946e-05 1.051e-06 0)
(7.756e-05 8.537e-07 0)
(7.602e-05 6.773e-07 0)
(7.483e-05 5.172e-07 0)
(7.394e-05 3.701e-07 0)
(7.334e-05 2.329e-07 0)
(7.3e-05 1.03e-07 0)
(7.292e-05 -2.155e-08 0)
(7.309e-05 -1.427e-07 0)
(7.349e-05 -2.621e-07 0)
(7.413e-05 -3.811e-07 0)
(7.502e-05 -5.01e-07 0)
(7.614e-05 -6.229e-07 0)
(7.751e-05 -7.478e-07 0)
(7.914e-05 -8.764e-07 0)
(8.102e-05 -1.01e-06 0)
(8.318e-05 -1.148e-06 0)
(8.562e-05 -1.291e-06 0)
(8.835e-05 -1.44e-06 0)
(9.138e-05 -1.593e-06 0)
(9.473e-05 -1.752e-06 0)
(9.839e-05 -1.915e-06 0)
(0.0001024 -2.081e-06 0)
(0.0001067 -2.248e-06 0)
(0.0001114 -2.416e-06 0)
(0.0001164 -2.58e-06 0)
(0.0001217 -2.739e-06 0)
(0.0001273 -2.889e-06 0)
(0.0001332 -3.026e-06 0)
(0.0001394 -3.146e-06 0)
(0.0001458 -3.243e-06 0)
(0.0001524 -3.314e-06 0)
(0.000159 -3.353e-06 0)
(0.0001657 -3.354e-06 0)
(0.0001724 -3.314e-06 0)
(0.0001789 -3.227e-06 0)
(0.0001853 -3.09e-06 0)
(0.0001912 -2.902e-06 0)
(0.0001968 -2.662e-06 0)
(0.0002018 -2.372e-06 0)
(0.0002063 -2.034e-06 0)
(0.0002099 -1.655e-06 0)
(0.0002128 -1.243e-06 0)
(0.0002149 -8.056e-07 0)
(0.0002161 -3.542e-07 0)
(0.0002163 1.003e-07 0)
(0.0002157 5.474e-07 0)
(0.0002141 9.771e-07 0)
(0.0002118 1.381e-06 0)
(0.0002086 1.751e-06 0)
(0.0002048 2.084e-06 0)
(0.0002003 2.374e-06 0)
(0.0001954 2.62e-06 0)
(0.0001899 2.822e-06 0)
(0.0001841 2.979e-06 0)
(0.000178 3.094e-06 0)
(0.0001718 3.168e-06 0)
(0.0001654 3.205e-06 0)
(0.000159 3.206e-06 0)
(0.0001526 3.178e-06 0)
(0.0001463 3.122e-06 0)
(0.0001401 3.043e-06 0)
(0.0001342 2.944e-06 0)
(0.0001284 2.831e-06 0)
(0.0001228 2.705e-06 0)
(0.0001176 2.57e-06 0)
(0.0001126 2.43e-06 0)
(0.0001079 2.286e-06 0)
(0.0001034 2.142e-06 0)
(9.929e-05 1.998e-06 0)
(9.543e-05 1.858e-06 0)
(9.185e-05 1.721e-06 0)
(8.854e-05 1.589e-06 0)
(8.549e-05 1.463e-06 0)
(8.268e-05 1.343e-06 0)
(8.011e-05 1.23e-06 0)
(7.776e-05 1.124e-06 0)
(7.561e-05 1.024e-06 0)
(7.365e-05 9.315e-07 0)
(7.188e-05 8.455e-07 0)
(7.026e-05 7.659e-07 0)
(6.881e-05 6.926e-07 0)
(6.749e-05 6.251e-07 0)
(6.63e-05 5.633e-07 0)
(6.523e-05 5.067e-07 0)
(6.427e-05 4.551e-07 0)
(6.34e-05 4.081e-07 0)
(6.263e-05 3.654e-07 0)
(6.194e-05 3.267e-07 0)
(6.132e-05 2.916e-07 0)
(6.077e-05 2.6e-07 0)
(6.028e-05 2.315e-07 0)
(5.984e-05 2.058e-07 0)
(5.945e-05 1.829e-07 0)
(5.911e-05 1.624e-07 0)
(5.88e-05 1.443e-07 0)
(5.853e-05 1.284e-07 0)
(5.828e-05 1.146e-07 0)
(5.807e-05 1.029e-07 0)
(5.787e-05 9.324e-08 0)
(5.769e-05 8.578e-08 0)
(5.752e-05 8.07e-08 0)
(5.737e-05 7.836e-08 0)
(5.721e-05 7.947e-08 0)
(5.704e-05 8.532e-08 0)
(5.686e-05 9.839e-08 0)
(5.664e-05 1.228e-07 0)
(5.635e-05 1.631e-07 0)
(5.598e-05 2.12e-07 0)
(0.001209 0.0003128 0)
(0.001154 0.0003282 0)
(0.00101 0.000248 0)
(0.0008613 0.0001771 0)
(0.0007345 0.0001262 0)
(0.0006327 9.146e-05 0)
(0.0005525 6.791e-05 0)
(0.0004894 5.176e-05 0)
(0.0004393 4.041e-05 0)
(0.0003989 3.22e-05 0)
(0.0003661 2.608e-05 0)
(0.000339 2.14e-05 0)
(0.0003166 1.773e-05 0)
(0.0002979 1.48e-05 0)
(0.0002821 1.242e-05 0)
(0.0002688 1.044e-05 0)
(0.0002576 8.78e-06 0)
(0.0002482 7.366e-06 0)
(0.0002403 6.146e-06 0)
(0.0002337 5.078e-06 0)
(0.0002283 4.133e-06 0)
(0.000224 3.285e-06 0)
(0.0002206 2.514e-06 0)
(0.000218 1.804e-06 0)
(0.0002163 1.141e-06 0)
(0.0002153 5.136e-07 0)
(0.000215 -8.898e-08 0)
(0.0002155 -6.749e-07 0)
(0.0002166 -1.252e-06 0)
(0.0002184 -1.826e-06 0)
(0.0002209 -2.404e-06 0)
(0.000224 -2.991e-06 0)
(0.0002278 -3.591e-06 0)
(0.0002324 -4.207e-06 0)
(0.0002377 -4.844e-06 0)
(0.0002437 -5.502e-06 0)
(0.0002505 -6.184e-06 0)
(0.0002581 -6.89e-06 0)
(0.0002666 -7.619e-06 0)
(0.0002759 -8.368e-06 0)
(0.000286 -9.135e-06 0)
(0.0002971 -9.913e-06 0)
(0.000309 -1.07e-05 0)
(0.0003219 -1.148e-05 0)
(0.0003356 -1.224e-05 0)
(0.0003502 -1.297e-05 0)
(0.0003656 -1.366e-05 0)
(0.0003817 -1.429e-05 0)
(0.0003985 -1.484e-05 0)
(0.0004158 -1.527e-05 0)
(0.0004336 -1.559e-05 0)
(0.0004516 -1.575e-05 0)
(0.0004696 -1.573e-05 0)
(0.0004875 -1.552e-05 0)
(0.0005051 -1.51e-05 0)
(0.000522 -1.444e-05 0)
(0.000538 -1.355e-05 0)
(0.0005528 -1.242e-05 0)
(0.0005662 -1.106e-05 0)
(0.000578 -9.486e-06 0)
(0.0005878 -7.722e-06 0)
(0.0005955 -5.805e-06 0)
(0.000601 -3.775e-06 0)
(0.0006041 -1.68e-06 0)
(0.0006049 4.303e-07 0)
(0.0006032 2.508e-06 0)
(0.0005993 4.509e-06 0)
(0.0005931 6.392e-06 0)
(0.0005848 8.126e-06 0)
(0.0005747 9.686e-06 0)
(0.0005629 1.105e-05 0)
(0.0005496 1.222e-05 0)
(0.0005351 1.318e-05 0)
(0.0005195 1.394e-05 0)
(0.0005033 1.45e-05 0)
(0.0004864 1.486e-05 0)
(0.0004692 1.506e-05 0)
(0.0004519 1.509e-05 0)
(0.0004346 1.498e-05 0)
(0.0004175 1.473e-05 0)
(0.0004007 1.438e-05 0)
(0.0003844 1.394e-05 0)
(0.0003686 1.342e-05 0)
(0.0003534 1.284e-05 0)
(0.0003389 1.222e-05 0)
(0.0003251 1.157e-05 0)
(0.000312 1.091e-05 0)
(0.0002997 1.023e-05 0)
(0.0002882 9.562e-06 0)
(0.0002775 8.902e-06 0)
(0.0002675 8.259e-06 0)
(0.0002582 7.638e-06 0)
(0.0002496 7.043e-06 0)
(0.0002417 6.475e-06 0)
(0.0002344 5.938e-06 0)
(0.0002278 5.433e-06 0)
(0.0002217 4.959e-06 0)
(0.0002161 4.517e-06 0)
(0.000211 4.105e-06 0)
(0.0002064 3.724e-06 0)
(0.0002023 3.373e-06 0)
(0.0001985 3.049e-06 0)
(0.000195 2.751e-06 0)
(0.000192 2.479e-06 0)
(0.0001892 2.23e-06 0)
(0.0001867 2.003e-06 0)
(0.0001844 1.796e-06 0)
(0.0001824 1.609e-06 0)
(0.0001806 1.439e-06 0)
(0.000179 1.285e-06 0)
(0.0001775 1.146e-06 0)
(0.0001762 1.021e-06 0)
(0.0001751 9.091e-07 0)
(0.000174 8.092e-07 0)
(0.0001731 7.206e-07 0)
(0.0001723 6.426e-07 0)
(0.0001716 5.748e-07 0)
(0.0001709 5.171e-07 0)
(0.0001703 4.693e-07 0)
(0.0001698 4.317e-07 0)
(0.0001693 4.051e-07 0)
(0.0001688 3.907e-07 0)
(0.0001683 3.906e-07 0)
(0.0001679 4.083e-07 0)
(0.0001674 4.494e-07 0)
(0.0001668 5.218e-07 0)
(0.0001663 6.293e-07 0)
(0.0001656 7.416e-07 0)
(0.001226 0.0002775 0)
(0.001243 0.0004027 0)
(0.001194 0.0003664 0)
(0.001102 0.0002982 0)
(0.0009997 0.0002345 0)
(0.0009016 0.0001831 0)
(0.0008143 0.0001437 0)
(0.0007392 0.0001142 0)
(0.0006755 9.185e-05 0)
(0.0006218 7.482e-05 0)
(0.0005765 6.161e-05 0)
(0.0005382 5.118e-05 0)
(0.0005058 4.283e-05 0)
(0.0004782 3.602e-05 0)
(0.0004547 3.04e-05 0)
(0.0004348 2.569e-05 0)
(0.0004178 2.169e-05 0)
(0.0004034 1.826e-05 0)
(0.0003913 1.527e-05 0)
(0.0003812 1.265e-05 0)
(0.0003728 1.032e-05 0)
(0.0003661 8.217e-06 0)
(0.0003608 6.3e-06 0)
(0.0003568 4.529e-06 0)
(0.0003541 2.872e-06 0)
(0.0003526 1.3e-06 0)
(0.0003522 -2.09e-07 0)
(0.0003528 -1.677e-06 0)
(0.0003546 -3.123e-06 0)
(0.0003574 -4.562e-06 0)
(0.0003613 -6.009e-06 0)
(0.0003662 -7.475e-06 0)
(0.0003723 -8.972e-06 0)
(0.0003794 -1.051e-05 0)
(0.0003877 -1.209e-05 0)
(0.0003971 -1.373e-05 0)
(0.0004077 -1.542e-05 0)
(0.0004196 -1.716e-05 0)
(0.0004328 -1.896e-05 0)
(0.0004473 -2.081e-05 0)
(0.0004631 -2.269e-05 0)
(0.0004803 -2.46e-05 0)
(0.0004989 -2.651e-05 0)
(0.0005188 -2.841e-05 0)
(0.00054 -3.027e-05 0)
(0.0005625 -3.205e-05 0)
(0.0005863 -3.372e-05 0)
(0.0006111 -3.523e-05 0)
(0.000637 -3.652e-05 0)
(0.0006636 -3.756e-05 0)
(0.0006909 -3.829e-05 0)
(0.0007185 -3.864e-05 0)
(0.0007462 -3.857e-05 0)
(0.0007736 -3.802e-05 0)
(0.0008004 -3.694e-05 0)
(0.0008262 -3.532e-05 0)
(0.0008506 -3.312e-05 0)
(0.0008733 -3.035e-05 0)
(0.0008938 -2.702e-05 0)
(0.0009117 -2.317e-05 0)
(0.0009267 -1.887e-05 0)
(0.0009385 -1.42e-05 0)
(0.0009469 -9.261e-06 0)
(0.0009517 -4.164e-06 0)
(0.0009529 9.733e-07 0)
(0.0009505 6.035e-06 0)
(0.0009445 1.091e-05 0)
(0.0009352 1.551e-05 0)
(0.0009227 1.976e-05 0)
(0.0009073 2.358e-05 0)
(0.0008893 2.695e-05 0)
(0.0008691 2.983e-05 0)
(0.000847 3.221e-05 0)
(0.0008233 3.41e-05 0)
(0.0007984 3.551e-05 0)
(0.0007726 3.645e-05 0)
(0.0007463 3.697e-05 0)
(0.0007197 3.709e-05 0)
(0.0006931 3.686e-05 0)
(0.0006668 3.63e-05 0)
(0.0006409 3.548e-05 0)
(0.0006157 3.443e-05 0)
(0.0005912 3.319e-05 0)
(0.0005677 3.18e-05 0)
(0.0005452 3.03e-05 0)
(0.0005237 2.873e-05 0)
(0.0005034 2.711e-05 0)
(0.0004843 2.546e-05 0)
(0.0004663 2.382e-05 0)
(0.0004495 2.221e-05 0)
(0.0004338 2.063e-05 0)
(0.0004193 1.91e-05 0)
(0.0004058 1.763e-05 0)
(0.0003933 1.623e-05 0)
(0.0003819 1.491e-05 0)
(0.0003714 1.365e-05 0)
(0.0003617 1.248e-05 0)
(0.0003529 1.138e-05 0)
(0.0003449 1.036e-05 0)
(0.0003375 9.406e-06 0)
(0.0003309 8.529e-06 0)
(0.0003248 7.72e-06 0)
(0.0003194 6.976e-06 0)
(0.0003144 6.293e-06 0)
(0.0003099 5.669e-06 0)
(0.0003059 5.099e-06 0)
(0.0003023 4.579e-06 0)
(0.000299 4.107e-06 0)
(0.0002961 3.678e-06 0)
(0.0002935 3.29e-06 0)
(0.0002911 2.939e-06 0)
(0.000289 2.623e-06 0)
(0.0002871 2.34e-06 0)
(0.0002855 2.086e-06 0)
(0.000284 1.861e-06 0)
(0.0002826 1.663e-06 0)
(0.0002814 1.49e-06 0)
(0.0002803 1.341e-06 0)
(0.0002793 1.218e-06 0)
(0.0002785 1.119e-06 0)
(0.0002776 1.046e-06 0)
(0.0002769 1.001e-06 0)
(0.0002761 9.869e-07 0)
(0.0002754 1.008e-06 0)
(0.0002747 1.068e-06 0)
(0.0002739 1.173e-06 0)
(0.0002732 1.312e-06 0)
(0.0002724 1.434e-06 0)
(0.001224 0.0002275 0)
(0.00126 0.0004003 0)
(0.001258 0.0004193 0)
(0.001216 0.0003789 0)
(0.001149 0.000323 0)
(0.001073 0.0002686 0)
(0.0009974 0.0002216 0)
(0.0009261 0.0001828 0)
(0.0008615 0.0001514 0)
(0.0008043 0.0001262 0)
(0.0007542 0.0001057 0)
(0.0007105 8.905e-05 0)
(0.0006725 7.533e-05 0)
(0.0006397 6.391e-05 0)
(0.0006113 5.432e-05 0)
(0.0005869 4.617e-05 0)
(0.0005659 3.917e-05 0)
(0.000548 3.31e-05 0)
(0.0005327 2.778e-05 0)
(0.0005199 2.307e-05 0)
(0.0005093 1.886e-05 0)
(0.0005007 1.504e-05 0)
(0.000494 1.154e-05 0)
(0.0004889 8.302e-06 0)
(0.0004855 5.259e-06 0)
(0.0004836 2.367e-06 0)
(0.0004831 -4.156e-07 0)
(0.0004841 -3.126e-06 0)
(0.0004864 -5.795e-06 0)
(0.0004902 -8.453e-06 0)
(0.0004953 -1.112e-05 0)
(0.0005018 -1.383e-05 0)
(0.0005098 -1.659e-05 0)
(0.0005192 -1.942e-05 0)
(0.0005301 -2.233e-05 0)
(0.0005425 -2.533e-05 0)
(0.0005564 -2.843e-05 0)
(0.000572 -3.163e-05 0)
(0.0005893 -3.491e-05 0)
(0.0006082 -3.828e-05 0)
(0.0006289 -4.171e-05 0)
(0.0006513 -4.518e-05 0)
(0.0006754 -4.865e-05 0)
(0.0007013 -5.209e-05 0)
(0.000729 -5.545e-05 0)
(0.0007582 -5.865e-05 0)
(0.000789 -6.165e-05 0)
(0.0008212 -6.435e-05 0)
(0.0008546 -6.667e-05 0)
(0.000889 -6.851e-05 0)
(0.0009242 -6.977e-05 0)
(0.0009598 -7.036e-05 0)
(0.0009955 -7.018e-05 0)
(0.001031 -6.914e-05 0)
(0.001065 -6.715e-05 0)
(0.001099 -6.417e-05 0)
(0.00113 -6.015e-05 0)
(0.001159 -5.51e-05 0)
(0.001185 -4.905e-05 0)
(0.001209 -4.208e-05 0)
(0.001228 -3.428e-05 0)
(0.001243 -2.583e-05 0)
(0.001254 -1.688e-05 0)
(0.00126 -7.652e-06 0)
(0.001262 1.653e-06 0)
(0.001259 1.082e-05 0)
(0.001251 1.967e-05 0)
(0.001239 2.802e-05 0)
(0.001223 3.573e-05 0)
(0.001204 4.27e-05 0)
(0.001181 4.884e-05 0)
(0.001155 5.41e-05 0)
(0.001126 5.848e-05 0)
(0.001096 6.196e-05 0)
(0.001064 6.457e-05 0)
(0.001031 6.635e-05 0)
(0.0009966 6.735e-05 0)
(0.0009623 6.763e-05 0)
(0.0009279 6.726e-05 0)
(0.0008938 6.632e-05 0)
(0.0008603 6.488e-05 0)
(0.0008276 6.301e-05 0)
(0.0007958 6.08e-05 0)
(0.0007652 5.832e-05 0)
(0.0007359 5.563e-05 0)
(0.000708 5.279e-05 0)
(0.0006815 4.986e-05 0)
(0.0006564 4.689e-05 0)
(0.0006329 4.392e-05 0)
(0.0006108 4.098e-05 0)
(0.0005903 3.811e-05 0)
(0.0005711 3.532e-05 0)
(0.0005534 3.264e-05 0)
(0.000537 3.008e-05 0)
(0.0005218 2.765e-05 0)
(0.0005079 2.535e-05 0)
(0.0004951 2.32e-05 0)
(0.0004834 2.118e-05 0)
(0.0004727 1.929e-05 0)
(0.000463 1.754e-05 0)
(0.0004541 1.593e-05 0)
(0.0004461 1.443e-05 0)
(0.0004387 1.305e-05 0)
(0.0004321 1.179e-05 0)
(0.0004261 1.063e-05 0)
(0.0004207 9.575e-06 0)
(0.0004158 8.61e-06 0)
(0.0004114 7.732e-06 0)
(0.0004075 6.933e-06 0)
(0.0004039 6.21e-06 0)
(0.0004007 5.556e-06 0)
(0.0003979 4.965e-06 0)
(0.0003953 4.435e-06 0)
(0.000393 3.96e-06 0)
(0.000391 3.537e-06 0)
(0.0003892 3.164e-06 0)
(0.0003875 2.837e-06 0)
(0.000386 2.555e-06 0)
(0.0003847 2.318e-06 0)
(0.0003835 2.126e-06 0)
(0.0003824 1.978e-06 0)
(0.0003813 1.878e-06 0)
(0.0003804 1.827e-06 0)
(0.0003794 1.828e-06 0)
(0.0003785 1.883e-06 0)
(0.0003776 1.989e-06 0)
(0.0003767 2.125e-06 0)
(0.0003759 2.233e-06 0)
(0.001219 0.0001846 0)
(0.001255 0.0003713 0)
(0.001275 0.0004301 0)
(0.001264 0.000421 0)
(0.001229 0.0003828 0)
(0.001178 0.0003355 0)
(0.00112 0.0002888 0)
(0.00106 0.0002465 0)
(0.001003 0.0002099 0)
(0.0009488 0.0001787 0)
(0.0008996 0.0001524 0)
(0.0008554 0.0001302 0)
(0.000816 0.0001114 0)
(0.0007812 9.546e-05 0)
(0.0007506 8.176e-05 0)
(0.0007238 6.993e-05 0)
(0.0007005 5.965e-05 0)
(0.0006805 5.063e-05 0)
(0.0006633 4.264e-05 0)
(0.0006488 3.552e-05 0)
(0.0006367 2.909e-05 0)
(0.0006269 2.323e-05 0)
(0.0006192 1.784e-05 0)
(0.0006134 1.282e-05 0)
(0.0006095 8.084e-06 0)
(0.0006074 3.573e-06 0)
(0.000607 -7.775e-07 0)
(0.0006083 -5.022e-06 0)
(0.0006113 -9.209e-06 0)
(0.0006159 -1.338e-05 0)
(0.0006221 -1.757e-05 0)
(0.00063 -2.182e-05 0)
(0.0006396 -2.614e-05 0)
(0.0006509 -3.058e-05 0)
(0.000664 -3.514e-05 0)
(0.0006789 -3.983e-05 0)
(0.0006957 -4.467e-05 0)
(0.0007144 -4.965e-05 0)
(0.000735 -5.477e-05 0)
(0.0007577 -6.001e-05 0)
(0.0007824 -6.534e-05 0)
(0.0008091 -7.071e-05 0)
(0.0008379 -7.61e-05 0)
(0.0008688 -8.141e-05 0)
(0.0009017 -8.659e-05 0)
(0.0009365 -9.154e-05 0)
(0.000973 -9.614e-05 0)
(0.001011 -0.0001003 0)
(0.001051 -0.0001038 0)
(0.001092 -0.0001066 0)
(0.001134 -0.0001085 0)
(0.001176 -0.0001094 0)
(0.001218 -0.0001091 0)
(0.00126 -0.0001074 0)
(0.001301 -0.0001043 0)
(0.00134 -9.964e-05 0)
(0.001377 -9.339e-05 0)
(0.001412 -8.555e-05 0)
(0.001443 -7.616e-05 0)
(0.001471 -6.534e-05 0)
(0.001493 -5.326e-05 0)
(0.001512 -4.015e-05 0)
(0.001524 -2.629e-05 0)
(0.001532 -1.199e-05 0)
(0.001534 2.424e-06 0)
(0.00153 1.664e-05 0)
(0.001521 3.035e-05 0)
(0.001507 4.331e-05 0)
(0.001489 5.528e-05 0)
(0.001465 6.61e-05 0)
(0.001438 7.566e-05 0)
(0.001407 8.387e-05 0)
(0.001374 9.071e-05 0)
(0.001338 9.617e-05 0)
(0.0013 0.0001003 0)
(0.001261 0.0001031 0)
(0.00122 0.0001047 0)
(0.00118 0.0001053 0)
(0.001139 0.0001048 0)
(0.001098 0.0001034 0)
(0.001059 0.0001012 0)
(0.00102 9.837e-05 0)
(0.0009818 9.5e-05 0)
(0.0009454 9.119e-05 0)
(0.0009104 8.706e-05 0)
(0.000877 8.269e-05 0)
(0.0008453 7.816e-05 0)
(0.0008154 7.357e-05 0)
(0.0007872 6.897e-05 0)
(0.0007607 6.442e-05 0)
(0.000736 5.995e-05 0)
(0.000713 5.562e-05 0)
(0.0006916 5.145e-05 0)
(0.0006719 4.746e-05 0)
(0.0006536 4.367e-05 0)
(0.0006368 4.008e-05 0)
(0.0006213 3.67e-05 0)
(0.0006071 3.354e-05 0)
(0.0005942 3.059e-05 0)
(0.0005823 2.784e-05 0)
(0.0005715 2.53e-05 0)
(0.0005617 2.295e-05 0)
(0.0005528 2.078e-05 0)
(0.0005447 1.879e-05 0)
(0.0005373 1.696e-05 0)
(0.0005307 1.529e-05 0)
(0.0005247 1.376e-05 0)
(0.0005193 1.237e-05 0)
(0.0005145 1.111e-05 0)
(0.0005101 9.96e-06 0)
(0.0005062 8.921e-06 0)
(0.0005026 7.983e-06 0)
(0.0004995 7.138e-06 0)
(0.0004966 6.381e-06 0)
(0.0004941 5.706e-06 0)
(0.0004918 5.107e-06 0)
(0.0004898 4.582e-06 0)
(0.0004879 4.127e-06 0)
(0.0004863 3.741e-06 0)
(0.0004848 3.421e-06 0)
(0.0004834 3.169e-06 0)
(0.0004821 2.985e-06 0)
(0.000481 2.869e-06 0)
(0.0004799 2.823e-06 0)
(0.0004788 2.844e-06 0)
(0.0004778 2.921e-06 0)
(0.0004768 3.031e-06 0)
(0.0004759 3.117e-06 0)
(0.001214 0.000152 0)
(0.001246 0.0003354 0)
(0.001274 0.0004182 0)
(0.001282 0.0004354 0)
(0.001269 0.0004169 0)
(0.001239 0.0003816 0)
(0.0012 0.0003407 0)
(0.001154 0.0002997 0)
(0.001107 0.0002616 0)
(0.00106 0.0002274 0)
(0.001016 0.0001973 0)
(0.0009748 0.0001709 0)
(0.000937 0.000148 0)
(0.0009028 0.0001279 0)
(0.0008722 0.0001105 0)
(0.0008451 9.513e-05 0)
(0.0008212 8.159e-05 0)
(0.0008004 6.957e-05 0)
(0.0007824 5.882e-05 0)
(0.0007671 4.913e-05 0)
(0.0007544 4.032e-05 0)
(0.0007439 3.224e-05 0)
(0.0007357 2.475e-05 0)
(0.0007297 1.774e-05 0)
(0.0007256 1.111e-05 0)
(0.0007235 4.765e-06 0)
(0.0007233 -1.373e-06 0)
(0.000725 -7.375e-06 0)
(0.0007285 -1.33e-05 0)
(0.0007338 -1.922e-05 0)
(0.000741 -2.516e-05 0)
(0.00075 -3.119e-05 0)
(0.000761 -3.733e-05 0)
(0.0007739 -4.362e-05 0)
(0.0007888 -5.008e-05 0)
(0.0008057 -5.673e-05 0)
(0.0008247 -6.357e-05 0)
(0.0008459 -7.062e-05 0)
(0.0008693 -7.784e-05 0)
(0.0008949 -8.523e-05 0)
(0.0009229 -9.273e-05 0)
(0.0009531 -0.0001003 0)
(0.0009857 -0.0001079 0)
(0.00102 -0.0001153 0)
(0.001058 -0.0001226 0)
(0.001097 -0.0001295 0)
(0.001138 -0.000136 0)
(0.001181 -0.0001418 0)
(0.001226 -0.0001467 0)
(0.001272 -0.0001506 0)
(0.001319 -0.0001533 0)
(0.001366 -0.0001545 0)
(0.001414 -0.000154 0)
(0.001461 -0.0001516 0)
(0.001507 -0.0001472 0)
(0.001552 -0.0001406 0)
(0.001594 -0.0001318 0)
(0.001633 -0.0001207 0)
(0.001668 -0.0001075 0)
(0.001699 -9.225e-05 0)
(0.001725 -7.522e-05 0)
(0.001746 -5.675e-05 0)
(0.00176 -3.721e-05 0)
(0.001769 -1.705e-05 0)
(0.001771 3.272e-06 0)
(0.001767 2.331e-05 0)
(0.001757 4.264e-05 0)
(0.001741 6.09e-05 0)
(0.00172 7.779e-05 0)
(0.001694 9.306e-05 0)
(0.001663 0.0001066 0)
(0.001629 0.0001182 0)
(0.001591 0.0001278 0)
(0.00155 0.0001356 0)
(0.001507 0.0001415 0)
(0.001463 0.0001455 0)
(0.001418 0.0001479 0)
(0.001372 0.0001487 0)
(0.001326 0.0001481 0)
(0.00128 0.0001462 0)
(0.001235 0.0001432 0)
(0.001192 0.0001393 0)
(0.001149 0.0001346 0)
(0.001108 0.0001293 0)
(0.001068 0.0001235 0)
(0.00103 0.0001174 0)
(0.0009944 0.000111 0)
(0.0009605 0.0001046 0)
(0.0009285 9.813e-05 0)
(0.0008985 9.172e-05 0)
(0.0008704 8.543e-05 0)
(0.0008443 7.932e-05 0)
(0.0008199 7.344e-05 0)
(0.0007974 6.78e-05 0)
(0.0007766 6.243e-05 0)
(0.0007574 5.735e-05 0)
(0.0007397 5.256e-05 0)
(0.0007235 4.807e-05 0)
(0.0007086 4.388e-05 0)
(0.000695 3.998e-05 0)
(0.0006826 3.636e-05 0)
(0.0006714 3.301e-05 0)
(0.0006611 2.992e-05 0)
(0.0006518 2.707e-05 0)
(0.0006433 2.447e-05 0)
(0.0006356 2.208e-05 0)
(0.0006287 1.989e-05 0)
(0.0006225 1.79e-05 0)
(0.0006168 1.608e-05 0)
(0.0006118 1.444e-05 0)
(0.0006072 1.294e-05 0)
(0.0006031 1.159e-05 0)
(0.0005994 1.038e-05 0)
(0.0005961 9.285e-06 0)
(0.0005931 8.309e-06 0)
(0.0005905 7.442e-06 0)
(0.0005881 6.679e-06 0)
(0.0005859 6.014e-06 0)
(0.000584 5.443e-06 0)
(0.0005822 4.966e-06 0)
(0.0005807 4.579e-06 0)
(0.0005792 4.282e-06 0)
(0.0005779 4.074e-06 0)
(0.0005766 3.953e-06 0)
(0.0005755 3.913e-06 0)
(0.0005744 3.94e-06 0)
(0.0005734 4.008e-06 0)
(0.0005724 4.067e-06 0)
(0.00121 0.0001279 0)
(0.001237 0.0003007 0)
(0.001267 0.0003957 0)
(0.001284 0.0004321 0)
(0.001286 0.0004313 0)
(0.001274 0.0004093 0)
(0.00125 0.0003768 0)
(0.001218 0.0003404 0)
(0.001182 0.0003039 0)
(0.001145 0.0002692 0)
(0.001108 0.0002372 0)
(0.001071 0.0002083 0)
(0.001037 0.0001824 0)
(0.001006 0.0001592 0)
(0.0009771 0.0001386 0)
(0.0009511 0.0001201 0)
(0.0009279 0.0001036 0)
(0.0009075 8.877e-05 0)
(0.0008898 7.533e-05 0)
(0.0008746 6.31e-05 0)
(0.0008618 5.189e-05 0)
(0.0008514 4.152e-05 0)
(0.0008432 3.186e-05 0)
(0.0008371 2.276e-05 0)
(0.0008332 1.41e-05 0)
(0.0008313 5.788e-06 0)
(0.0008314 -2.28e-06 0)
(0.0008334 -1.019e-05 0)
(0.0008374 -1.802e-05 0)
(0.0008434 -2.584e-05 0)
(0.0008514 -3.371e-05 0)
(0.0008614 -4.169e-05 0)
(0.0008734 -4.982e-05 0)
(0.0008876 -5.815e-05 0)
(0.0009038 -6.671e-05 0)
(0.0009223 -7.551e-05 0)
(0.0009431 -8.457e-05 0)
(0.0009662 -9.388e-05 0)
(0.0009916 -0.0001034 0)
(0.00102 -0.0001132 0)
(0.00105 -0.0001231 0)
(0.001083 -0.0001331 0)
(0.001118 -0.000143 0)
(0.001156 -0.0001529 0)
(0.001196 -0.0001624 0)
(0.001239 -0.0001716 0)
(0.001284 -0.00018 0)
(0.001331 -0.0001877 0)
(0.001379 -0.0001942 0)
(0.001429 -0.0001993 0)
(0.00148 -0.0002028 0)
(0.001532 -0.0002043 0)
(0.001584 -0.0002037 0)
(0.001636 -0.0002005 0)
(0.001686 -0.0001947 0)
(0.001735 -0.0001861 0)
(0.001781 -0.0001744 0)
(0.001823 -0.0001598 0)
(0.001862 -0.0001424 0)
(0.001896 -0.0001222 0)
(0.001924 -9.969e-05 0)
(0.001947 -7.524e-05 0)
(0.001963 -4.938e-05 0)
(0.001972 -2.269e-05 0)
(0.001975 4.208e-06 0)
(0.00197 3.072e-05 0)
(0.001959 5.629e-05 0)
(0.001942 8.044e-05 0)
(0.001919 0.0001028 0)
(0.00189 0.0001229 0)
(0.001857 0.0001408 0)
(0.001819 0.0001561 0)
(0.001778 0.0001689 0)
(0.001733 0.0001792 0)
(0.001687 0.000187 0)
(0.001639 0.0001924 0)
(0.001589 0.0001956 0)
(0.001539 0.0001967 0)
(0.001489 0.000196 0)
(0.00144 0.0001936 0)
(0.001391 0.0001897 0)
(0.001343 0.0001846 0)
(0.001296 0.0001785 0)
(0.001252 0.0001715 0)
(0.001209 0.0001639 0)
(0.001167 0.0001559 0)
(0.001128 0.0001475 0)
(0.001091 0.0001391 0)
(0.001056 0.0001305 0)
(0.001024 0.0001221 0)
(0.000993 0.0001138 0)
(0.0009644 0.0001057 0)
(0.0009378 9.794e-05 0)
(0.0009131 9.049e-05 0)
(0.0008903 8.338e-05 0)
(0.0008693 7.665e-05 0)
(0.0008499 7.031e-05 0)
(0.0008321 6.435e-05 0)
(0.0008158 5.878e-05 0)
(0.0008008 5.36e-05 0)
(0.0007872 4.878e-05 0)
(0.0007747 4.432e-05 0)
(0.0007634 4.021e-05 0)
(0.0007531 3.642e-05 0)
(0.0007437 3.293e-05 0)
(0.0007353 2.974e-05 0)
(0.0007276 2.682e-05 0)
(0.0007207 2.415e-05 0)
(0.0007144 2.173e-05 0)
(0.0007088 1.952e-05 0)
(0.0007037 1.751e-05 0)
(0.0006991 1.57e-05 0)
(0.000695 1.407e-05 0)
(0.0006913 1.26e-05 0)
(0.000688 1.128e-05 0)
(0.000685 1.011e-05 0)
(0.0006823 9.07e-06 0)
(0.0006799 8.163e-06 0)
(0.0006778 7.38e-06 0)
(0.0006758 6.716e-06 0)
(0.0006741 6.168e-06 0)
(0.0006725 5.732e-06 0)
(0.000671 5.407e-06 0)
(0.0006697 5.186e-06 0)
(0.0006685 5.063e-06 0)
(0.0006673 5.022e-06 0)
(0.0006663 5.036e-06 0)
(0.0006652 5.065e-06 0)
(0.001208 0.0001097 0)
(0.00123 0.0002697 0)
(0.001258 0.0003691 0)
(0.001281 0.0004183 0)
(0.001292 0.0004318 0)
(0.001291 0.0004222 0)
(0.00128 0.0003991 0)
(0.001261 0.0003689 0)
(0.001236 0.0003359 0)
(0.001208 0.0003027 0)
(0.001178 0.0002707 0)
(0.001149 0.0002407 0)
(0.00112 0.000213 0)
(0.001092 0.0001877 0)
(0.001066 0.0001646 0)
(0.001043 0.0001437 0)
(0.001021 0.0001246 0)
(0.001002 0.0001072 0)
(0.0009855 9.134e-05 0)
(0.0009711 7.672e-05 0)
(0.0009589 6.32e-05 0)
(0.000949 5.06e-05 0)
(0.0009412 3.876e-05 0)
(0.0009356 2.755e-05 0)
(0.000932 1.684e-05 0)
(0.0009304 6.506e-06 0)
(0.0009309 -3.561e-06 0)
(0.0009334 -1.346e-05 0)
(0.0009379 -2.328e-05 0)
(0.0009444 -3.311e-05 0)
(0.000953 -4.301e-05 0)
(0.0009637 -5.306e-05 0)
(0.0009765 -6.331e-05 0)
(0.0009915 -7.38e-05 0)
(0.001009 -8.459e-05 0)
(0.001028 -9.568e-05 0)
(0.00105 -0.0001071 0)
(0.001075 -0.0001188 0)
(0.001102 -0.0001308 0)
(0.001131 -0.0001431 0)
(0.001163 -0.0001556 0)
(0.001198 -0.0001681 0)
(0.001235 -0.0001807 0)
(0.001275 -0.000193 0)
(0.001318 -0.0002051 0)
(0.001363 -0.0002166 0)
(0.00141 -0.0002272 0)
(0.001459 -0.0002368 0)
(0.001511 -0.000245 0)
(0.001564 -0.0002515 0)
(0.001618 -0.000256 0)
(0.001673 -0.000258 0)
(0.001728 -0.0002572 0)
(0.001783 -0.0002533 0)
(0.001837 -0.000246 0)
(0.001889 -0.0002352 0)
(0.001938 -0.0002206 0)
(0.001983 -0.0002022 0)
(0.002025 -0.0001801 0)
(0.002061 -0.0001547 0)
(0.002092 -0.0001262 0)
(0.002116 -9.53e-05 0)
(0.002133 -6.257e-05 0)
(0.002143 -2.878e-05 0)
(0.002146 5.259e-06 0)
(0.002141 3.879e-05 0)
(0.002129 7.111e-05 0)
(0.00211 0.0001016 0)
(0.002086 0.0001298 0)
(0.002055 0.0001552 0)
(0.002019 0.0001777 0)
(0.001979 0.0001971 0)
(0.001935 0.0002132 0)
(0.001888 0.0002262 0)
(0.001839 0.000236 0)
(0.001787 0.0002429 0)
(0.001735 0.0002469 0)
(0.001682 0.0002484 0)
(0.001629 0.0002474 0)
(0.001576 0.0002444 0)
(0.001525 0.0002396 0)
(0.001474 0.0002332 0)
(0.001425 0.0002255 0)
(0.001377 0.0002168 0)
(0.001332 0.0002073 0)
(0.001288 0.0001972 0)
(0.001247 0.0001867 0)
(0.001207 0.0001761 0)
(0.001171 0.0001653 0)
(0.001136 0.0001547 0)
(0.001103 0.0001443 0)
(0.001073 0.0001341 0)
(0.001045 0.0001243 0)
(0.001019 0.0001149 0)
(0.0009945 0.000106 0)
(0.0009722 9.747e-05 0)
(0.0009516 8.946e-05 0)
(0.0009327 8.193e-05 0)
(0.0009153 7.49e-05 0)
(0.0008994 6.833e-05 0)
(0.0008848 6.224e-05 0)
(0.0008716 5.659e-05 0)
(0.0008595 5.137e-05 0)
(0.0008485 4.656e-05 0)
(0.0008385 4.214e-05 0)
(0.0008294 3.808e-05 0)
(0.0008212 3.437e-05 0)
(0.0008137 3.098e-05 0)
(0.000807 2.789e-05 0)
(0.0008009 2.507e-05 0)
(0.0007955 2.252e-05 0)
(0.0007906 2.02e-05 0)
(0.0007861 1.811e-05 0)
(0.0007821 1.623e-05 0)
(0.0007786 1.454e-05 0)
(0.0007754 1.303e-05 0)
(0.0007725 1.169e-05 0)
(0.0007699 1.052e-05 0)
(0.0007676 9.498e-06 0)
(0.0007655 8.624e-06 0)
(0.0007636 7.891e-06 0)
(0.0007619 7.295e-06 0)
(0.0007604 6.831e-06 0)
(0.000759 6.492e-06 0)
(0.0007577 6.267e-06 0)
(0.0007565 6.143e-06 0)
(0.0007554 6.096e-06 0)
(0.0007544 6.093e-06 0)
(0.001206 9.569e-05 0)
(0.001225 0.0002426 0)
(0.001251 0.000342 0)
(0.001275 0.0003989 0)
(0.001292 0.0004231 0)
(0.001299 0.0004241 0)
(0.001298 0.0004099 0)
(0.001289 0.0003865 0)
(0.001274 0.0003582 0)
(0.001254 0.0003278 0)
(0.001233 0.0002971 0)
(0.00121 0.0002672 0)
(0.001186 0.0002389 0)
(0.001163 0.0002123 0)
(0.001141 0.0001876 0)
(0.001121 0.0001648 0)
(0.001102 0.0001437 0)
(0.001085 0.0001242 0)
(0.00107 0.0001062 0)
(0.001057 8.939e-05 0)
(0.001046 7.374e-05 0)
(0.001037 5.904e-05 0)
(0.00103 4.513e-05 0)
(0.001025 3.188e-05 0)
(0.001022 1.915e-05 0)
(0.001021 6.806e-06 0)
(0.001022 -5.263e-06 0)
(0.001025 -1.717e-05 0)
(0.00103 -2.901e-05 0)
(0.001037 -4.088e-05 0)
(0.001046 -5.286e-05 0)
(0.001057 -6.503e-05 0)
(0.00107 -7.746e-05 0)
(0.001086 -9.019e-05 0)
(0.001103 -0.0001033 0)
(0.001124 -0.0001167 0)
(0.001146 -0.0001306 0)
(0.001171 -0.0001448 0)
(0.001199 -0.0001594 0)
(0.001229 -0.0001743 0)
(0.001262 -0.0001894 0)
(0.001298 -0.0002047 0)
(0.001336 -0.0002199 0)
(0.001377 -0.0002349 0)
(0.001421 -0.0002495 0)
(0.001468 -0.0002635 0)
(0.001516 -0.0002765 0)
(0.001568 -0.0002882 0)
(0.001621 -0.0002983 0)
(0.001676 -0.0003063 0)
(0.001732 -0.0003117 0)
(0.001789 -0.0003143 0)
(0.001847 -0.0003135 0)
(0.001904 -0.0003089 0)
(0.00196 -0.0003002 0)
(0.002014 -0.0002871 0)
(0.002066 -0.0002695 0)
(0.002114 -0.0002471 0)
(0.002158 -0.0002203 0)
(0.002196 -0.0001893 0)
(0.002228 -0.0001545 0)
(0.002254 -0.0001166 0)
(0.002272 -7.655e-05 0)
(0.002282 -3.519e-05 0)
(0.002285 6.472e-06 0)
(0.00228 4.748e-05 0)
(0.002267 8.695e-05 0)
(0.002247 0.0001241 0)
(0.002221 0.0001584 0)
(0.002189 0.0001894 0)
(0.002151 0.0002167 0)
(0.002109 0.0002403 0)
(0.002063 0.0002599 0)
(0.002014 0.0002756 0)
(0.001963 0.0002875 0)
(0.00191 0.0002958 0)
(0.001855 0.0003007 0)
(0.0018 0.0003025 0)
(0.001745 0.0003014 0)
(0.00169 0.0002977 0)
(0.001637 0.0002919 0)
(0.001584 0.0002841 0)
(0.001533 0.0002748 0)
(0.001484 0.0002642 0)
(0.001437 0.0002526 0)
(0.001392 0.0002404 0)
(0.001349 0.0002277 0)
(0.001309 0.0002147 0)
(0.001271 0.0002017 0)
(0.001235 0.0001888 0)
(0.001201 0.0001762 0)
(0.00117 0.0001638 0)
(0.001141 0.0001519 0)
(0.001114 0.0001405 0)
(0.001089 0.0001296 0)
(0.001066 0.0001193 0)
(0.001045 0.0001095 0)
(0.001025 0.0001004 0)
(0.001007 9.18e-05 0)
(0.0009905 8.381e-05 0)
(0.0009754 7.638e-05 0)
(0.0009617 6.949e-05 0)
(0.0009491 6.312e-05 0)
(0.0009377 5.725e-05 0)
(0.0009273 5.185e-05 0)
(0.0009179 4.689e-05 0)
(0.0009093 4.234e-05 0)
(0.0009016 3.819e-05 0)
(0.0008945 3.44e-05 0)
(0.0008882 3.095e-05 0)
(0.0008825 2.782e-05 0)
(0.0008774 2.497e-05 0)
(0.0008727 2.24e-05 0)
(0.0008686 2.008e-05 0)
(0.0008648 1.8e-05 0)
(0.0008615 1.614e-05 0)
(0.0008584 1.448e-05 0)
(0.0008557 1.302e-05 0)
(0.0008533 1.174e-05 0)
(0.0008511 1.064e-05 0)
(0.0008492 9.706e-06 0)
(0.0008474 8.932e-06 0)
(0.0008458 8.312e-06 0)
(0.0008444 7.838e-06 0)
(0.0008431 7.5e-06 0)
(0.0008419 7.284e-06 0)
(0.0008408 7.169e-06 0)
(0.0008398 7.13e-06 0)
(0.001205 8.451e-05 0)
(0.001221 0.0002191 0)
(0.001245 0.0003158 0)
(0.001269 0.0003768 0)
(0.001289 0.0004085 0)
(0.001302 0.000418 0)
(0.001308 0.0004117 0)
(0.001306 0.000395 0)
(0.0013 0.0003717 0)
(0.001288 0.0003448 0)
(0.001274 0.0003163 0)
(0.001257 0.0002876 0)
(0.00124 0.0002595 0)
(0.001222 0.0002325 0)
(0.001204 0.0002069 0)
(0.001187 0.0001828 0)
(0.001171 0.0001602 0)
(0.001157 0.0001391 0)
(0.001144 0.0001193 0)
(0.001133 0.0001007 0)
(0.001123 8.312e-05 0)
(0.001115 6.652e-05 0)
(0.001109 5.07e-05 0)
(0.001105 3.554e-05 0)
(0.001103 2.088e-05 0)
(0.001102 6.61e-06 0)
(0.001104 -7.402e-06 0)
(0.001107 -2.127e-05 0)
(0.001112 -3.51e-05 0)
(0.00112 -4.9e-05 0)
(0.001129 -6.305e-05 0)
(0.00114 -7.734e-05 0)
(0.001154 -9.195e-05 0)
(0.001169 -0.0001069 0)
(0.001187 -0.0001223 0)
(0.001208 -0.0001382 0)
(0.00123 -0.0001545 0)
(0.001256 -0.0001712 0)
(0.001283 -0.0001884 0)
(0.001314 -0.000206 0)
(0.001347 -0.0002238 0)
(0.001383 -0.0002418 0)
(0.001422 -0.0002598 0)
(0.001463 -0.0002776 0)
(0.001507 -0.0002949 0)
(0.001554 -0.0003114 0)
(0.001604 -0.0003269 0)
(0.001655 -0.0003408 0)
(0.001709 -0.0003528 0)
(0.001765 -0.0003625 0)
(0.001823 -0.0003691 0)
(0.001881 -0.0003724 0)
(0.00194 -0.0003717 0)
(0.001998 -0.0003665 0)
(0.002056 -0.0003565 0)
(0.002112 -0.0003412 0)
(0.002165 -0.0003204 0)
(0.002215 -0.0002941 0)
(0.00226 -0.0002623 0)
(0.0023 -0.0002254 0)
(0.002334 -0.000184 0)
(0.00236 -0.0001389 0)
(0.002379 -9.112e-05 0)
(0.00239 -4.177e-05 0)
(0.002392 7.91e-06 0)
(0.002387 5.674e-05 0)
(0.002373 0.0001037 0)
(0.002353 0.0001478 0)
(0.002325 0.0001884 0)
(0.002292 0.0002251 0)
(0.002253 0.0002573 0)
(0.00221 0.0002851 0)
(0.002163 0.0003082 0)
(0.002112 0.0003267 0)
(0.00206 0.0003407 0)
(0.002005 0.0003504 0)
(0.00195 0.0003562 0)
(0.001893 0.0003582 0)
(0.001837 0.0003568 0)
(0.001782 0.0003525 0)
(0.001727 0.0003455 0)
(0.001674 0.0003363 0)