/*--------------------------------*- C++ -*----------------------------------*\
  =========                 |
  \\      /  F ield         | OpenFOAM: The Open Source CFD Toolbox
   \\    /   O peration     | Website:  https://openfoam.org
    \\  /    A nd           | Version:  7
     \\/     M anipulation  |
\*---------------------------------------------------------------------------*/
FoamFile
{
    version     2.0;
    format      ascii;
    class       volScalarField;
    location    "1799.9994734275374";
    object      Y.K;
}
// * * * * * * * * * * * * * * * * * * * * * * * * * * * * * * * * * * * * * //

dimensions      [0 0 0 0 0 0 0];

internalField   nonuniform List<scalar> 
4096
(
2.838e-71
-1.653e-72
3.68e-70
-2.22e-70
-2.993e-71
6.726e-71
-3.526e-71
-2.456e-71
9.407e-72
1.931e-71
-2.661e-70
3.402e-69
-4.77e-68
6.987e-67
-9.267e-66
1.191e-64
-1.446e-63
1.716e-62
-1.953e-61
2.196e-60
-2.362e-59
2.515e-58
-2.657e-57
2.737e-56
-2.704e-55
2.63e-54
-2.472e-53
2.224e-52
-1.975e-51
1.74e-50
-1.515e-49
1.304e-48
-1.089e-47
8.992e-47
-7.225e-46
5.719e-45
-4.362e-44
3.178e-43
-2.244e-42
1.545e-41
-1.011e-40
6.332e-40
-3.79e-39
2.165e-38
-1.181e-37
6.063e-37
-2.982e-36
1.389e-35
-6.173e-35
2.554e-34
-9.669e-34
3.372e-33
-9.19e-33
2.124e-32
4.028e-32
-2.743e-31
5.826e-30
-9.238e-30
1.85e-28
1.812e-28
3.554e-27
2.199e-26
2.306e-26
3.819e-25
1.221e-24
2.856e-24
2.144e-23
7.068e-23
1.706e-22
1.25e-21
5.568e-21
7.969e-20
1.186e-18
3.325e-18
6.877e-18
1.263e-17
2.175e-17
3.593e-17
5.756e-17
8.989e-17
1.373e-16
2.057e-16
3.027e-16
4.379e-16
6.238e-16
8.758e-16
1.213e-15
1.659e-15
2.241e-15
2.995e-15
3.96e-15
5.185e-15
6.727e-15
8.653e-15
1.104e-14
1.398e-14
1.758e-14
2.197e-14
2.728e-14
3.367e-14
4.134e-14
5.05e-14
6.138e-14
7.428e-14
8.951e-14
1.074e-13
1.284e-13
1.53e-13
1.816e-13
2.149e-13
2.534e-13
2.981e-13
3.495e-13
4.088e-13
4.769e-13
5.55e-13
6.442e-13
7.462e-13
8.623e-13
9.942e-13
1.144e-12
1.313e-12
1.504e-12
1.717e-12
1.952e-12
2.203e-12
2.452e-12
2.649e-12
6.669e-70
-3.796e-69
4.38e-69
-6.292e-70
-3.162e-69
2.837e-69
-8.977e-71
-1.568e-69
1.343e-70
1.279e-69
-1.576e-68
1.853e-67
-2.725e-66
3.835e-65
-5.109e-64
6.48e-63
-7.88e-62
9.246e-61
-1.053e-59
1.169e-58
-1.269e-57
1.349e-56
-1.405e-55
1.432e-54
-1.425e-53
1.38e-52
-1.294e-51
1.152e-50
-1.022e-49
8.993e-49
-7.822e-48
6.704e-47
-5.642e-46
4.648e-45
-3.735e-44
2.919e-43
-2.212e-42
1.62e-41
-1.143e-40
7.762e-40
-5.053e-39
3.149e-38
-1.876e-37
1.066e-36
-5.776e-36
2.979e-35
-1.46e-34
6.779e-34
-2.97e-33
1.224e-32
-4.623e-32
1.641e-31
-4.463e-31
1.168e-30
1.543e-30
-5.684e-30
2.693e-28
-1.41e-28
9.021e-27
1.508e-26
1.958e-25
1.098e-24
1.689e-24
1.851e-23
5.991e-23
1.495e-22
9.696e-22
3.121e-21
7.514e-21
4.638e-20
1.559e-19
1.019e-18
2.801e-18
5.84e-18
1.082e-17
1.875e-17
3.108e-17
4.985e-17
7.786e-17
1.189e-16
1.779e-16
2.615e-16
3.779e-16
5.379e-16
7.547e-16
1.045e-15
1.429e-15
1.931e-15
2.581e-15
3.415e-15
4.475e-15
5.813e-15
7.487e-15
9.568e-15
1.214e-14
1.529e-14
1.914e-14
2.381e-14
2.945e-14
3.622e-14
4.434e-14
5.4e-14
6.548e-14
7.906e-14
9.507e-14
1.139e-13
1.359e-13
1.617e-13
1.917e-13
2.265e-13
2.669e-13
3.135e-13
3.673e-13
4.292e-13
5.003e-13
5.817e-13
6.749e-13
7.811e-13
9.021e-13
1.04e-12
1.196e-12
1.372e-12
1.571e-12
1.795e-12
2.044e-12
2.318e-12
2.608e-12
2.884e-12
-1.54e-68
1.072e-67
-2.696e-67
3.622e-67
-2.538e-67
4.313e-68
8.39e-68
-7.615e-68
-1.908e-68
7.508e-68
-8.691e-67
9.844e-66
-1.437e-64
2.01e-63
-2.658e-62
3.344e-61
-4.032e-60
4.692e-59
-5.299e-58
5.837e-57
-6.29e-56
6.641e-55
-6.873e-54
6.965e-53
-6.893e-52
6.642e-51
-6.195e-50
5.517e-49
-4.893e-48
4.302e-47
-3.738e-46
3.198e-45
-2.687e-44
2.209e-43
-1.771e-42
1.38e-41
-1.043e-40
7.611e-40
-5.354e-39
3.622e-38
-2.348e-37
1.457e-36
-8.643e-36
4.89e-35
-2.637e-34
1.354e-33
-6.606e-33
3.057e-32
-1.336e-31
5.514e-31
-2.085e-30
7.559e-30
-2.061e-29
6.454e-29
3.348e-29
2.333e-28
1.176e-26
1.521e-26
4.202e-25
1.177e-24
1.108e-23
5.316e-23
1.166e-22
8.972e-22
2.854e-21
7.513e-21
4.127e-20
1.242e-19
2.958e-19
1.382e-18
3.553e-18
7.156e-18
1.303e-17
2.237e-17
3.68e-17
5.859e-17
9.073e-17
1.371e-16
2.028e-16
2.942e-16
4.194e-16
5.881e-16
8.128e-16
1.108e-15
1.493e-15
1.988e-15
2.621e-15
3.422e-15
4.429e-15
5.687e-15
7.248e-15
9.174e-15
1.154e-14
1.442e-14
1.793e-14
2.217e-14
2.728e-14
3.342e-14
4.075e-14
4.949e-14
5.986e-14
7.213e-14
8.66e-14
1.036e-13
1.236e-13
1.469e-13
1.741e-13
2.058e-13
2.425e-13
2.851e-13
3.342e-13
3.908e-13
4.559e-13
5.306e-13
6.162e-13
7.14e-13
8.256e-13
9.526e-13
1.097e-12
1.261e-12
1.446e-12
1.656e-12
1.892e-12
2.157e-12
2.455e-12
2.786e-12
3.155e-12
3.571e-12
2.528e-67
-2.01e-66
7.081e-66
-1.53e-65
2.154e-65
-2.004e-65
1.145e-65
-2.499e-66
-1.41e-66
3.506e-66
-4.536e-65
4.92e-64
-7.073e-63
9.787e-62
-1.278e-60
1.586e-59
-1.886e-58
2.165e-57
-2.414e-56
2.628e-55
-2.801e-54
2.928e-53
-3.002e-52
3.017e-51
-2.965e-50
2.839e-49
-2.634e-48
2.347e-47
-2.081e-46
1.829e-45
-1.588e-44
1.357e-43
-1.138e-42
9.341e-42
-7.475e-41
5.813e-40
-4.381e-39
3.19e-38
-2.238e-37
1.51e-36
-9.756e-36
6.033e-35
-3.564e-34
2.009e-33
-1.079e-32
5.515e-32
-2.681e-31
1.238e-30
-5.407e-30
2.24e-29
-8.488e-29
3.182e-28
-8.524e-28
3.292e-27
9.251e-28
3.805e-26
4.832e-25
1.585e-24
1.786e-23
8.137e-23
6.025e-22
2.361e-21
6.877e-21
3.972e-20
1.209e-19
3.213e-19
1.36e-18
3.634e-18
7.597e-18
1.442e-17
2.578e-17
4.398e-17
7.219e-17
1.146e-16
1.766e-16
2.648e-16
3.875e-16
5.545e-16
7.776e-16
1.07e-15
1.449e-15
1.933e-15
2.543e-15
3.306e-15
4.25e-15
5.412e-15
6.833e-15
8.562e-15
1.065e-14
1.318e-14
1.621e-14
1.984e-14
2.418e-14
2.936e-14
3.55e-14
4.279e-14
5.141e-14
6.159e-14
7.356e-14
8.764e-14
1.041e-13
1.234e-13
1.46e-13
1.722e-13
2.027e-13
2.381e-13
2.791e-13
3.265e-13
3.811e-13
4.439e-13
5.161e-13
5.988e-13
6.935e-13
8.016e-13
9.249e-13
1.065e-12
1.225e-12
1.405e-12
1.61e-12
1.841e-12
2.102e-12
2.396e-12
2.726e-12
3.096e-12
3.51e-12
3.972e-12
4.493e-12
5.155e-12
-3.591e-66
3.101e-65
-1.352e-64
3.904e-64
-7.88e-64
1.154e-63
-1.239e-63
9.522e-64
-4.835e-64
1.837e-64
-2.229e-63
2.317e-62
-3.239e-61
4.393e-60
-5.613e-59
6.812e-58
-7.927e-57
8.915e-56
-9.754e-55
1.043e-53
-1.094e-52
1.127e-51
-1.141e-50
1.134e-49
-1.103e-48
1.049e-47
-9.676e-47
8.626e-46
-7.65e-45
6.722e-44
-5.834e-43
4.983e-42
-4.177e-41
3.424e-40
-2.737e-39
2.126e-38
-1.6e-37
1.163e-36
-8.147e-36
5.486e-35
-3.537e-34
2.182e-33
-1.285e-32
7.216e-32
-3.861e-31
1.967e-30
-9.532e-30
4.391e-29
-1.918e-28
8e-28
-3.023e-27
1.188e-26
-2.899e-26
1.479e-25
7.952e-26
2.599e-24
2e-23
1.226e-22
9.404e-22
4.536e-21
2.92e-20
1.048e-19
3.204e-19
1.359e-18
3.91e-18
8.89e-18
1.826e-17
3.51e-17
6.397e-17
1.113e-16
1.858e-16
2.987e-16
4.638e-16
6.974e-16
1.018e-15
1.448e-15
2.009e-15
2.726e-15
3.625e-15
4.736e-15
6.089e-15
7.719e-15
9.664e-15
1.197e-14
1.469e-14
1.787e-14
2.161e-14
2.596e-14
3.105e-14
3.697e-14
4.387e-14
5.191e-14
6.125e-14
7.213e-14
8.477e-14
9.947e-14
1.165e-13
1.363e-13
1.593e-13
1.859e-13
2.168e-13
2.524e-13
2.935e-13
3.41e-13
3.956e-13
4.584e-13
5.306e-13
6.133e-13
7.081e-13
8.164e-13
9.4e-13
1.081e-12
1.241e-12
1.423e-12
1.63e-12
1.864e-12
2.128e-12
2.426e-12
2.762e-12
3.14e-12
3.565e-12
4.041e-12
4.573e-12
5.167e-12
5.829e-12
6.566e-12
7.394e-12
8.526e-12
4.692e-65
-4.277e-64
2.162e-63
-7.671e-63
1.992e-62
-3.919e-62
5.957e-62
-7.006e-62
6.204e-62
-3.608e-62
-9.208e-62
1.015e-60
-1.366e-59
1.792e-58
-2.212e-57
2.596e-56
-2.924e-55
3.19e-54
-3.395e-53
3.541e-52
-3.631e-51
3.667e-50
-3.648e-49
3.571e-48
-3.433e-47
3.233e-46
-2.966e-45
2.647e-44
-2.349e-43
2.065e-42
-1.793e-41
1.532e-40
-1.284e-39
1.053e-38
-8.419e-38
6.541e-37
-4.924e-36
3.581e-35
-2.509e-34
1.69e-33
-1.089e-32
6.708e-32
-3.944e-31
2.21e-30
-1.179e-29
5.988e-29
-2.893e-28
1.33e-27
-5.807e-27
2.444e-26
-9.022e-26
3.798e-25
-6.452e-25
5.561e-24
1.667e-23
1.57e-22
1.189e-21
7.308e-21
4.685e-20
2.225e-19
1.088e-18
3.544e-18
9.181e-18
2.136e-17
4.613e-17
9.356e-17
1.793e-16
3.264e-16
5.66e-16
9.382e-16
1.491e-15
2.28e-15
3.363e-15
4.8e-15
6.646e-15
8.953e-15
1.177e-14
1.512e-14
1.905e-14
2.359e-14
2.877e-14
3.462e-14
4.121e-14
4.859e-14
5.685e-14
6.609e-14
7.645e-14
8.81e-14
1.012e-13
1.16e-13
1.328e-13
1.518e-13
1.734e-13
1.981e-13
2.263e-13
2.584e-13
2.953e-13
3.374e-13
3.856e-13
4.409e-13
5.041e-13
5.764e-13
6.592e-13
7.538e-13
8.618e-13
9.851e-13
1.126e-12
1.286e-12
1.467e-12
1.674e-12
1.909e-12
2.174e-12
2.475e-12
2.814e-12
3.197e-12
3.629e-12
4.114e-12
4.66e-12
5.271e-12
5.956e-12
6.721e-12
7.575e-12
8.525e-12
9.582e-12
1.075e-11
1.205e-11
1.35e-11
1.557e-11
-5.811e-64
5.491e-63
-3.09e-62
1.281e-61
-4.035e-61
9.938e-61
-1.952e-60
3.075e-60
-3.853e-60
3.829e-60
-5.969e-60
4.115e-59
-5.2e-58
6.475e-57
-7.591e-56
8.472e-55
-9.109e-54
9.525e-53
-9.757e-52
9.839e-51
-9.793e-50
9.634e-49
-9.37e-48
9.002e-47
-8.526e-46
7.943e-45
-7.242e-44
6.475e-43
-5.756e-42
5.068e-41
-4.407e-40
3.773e-39
-3.17e-38
2.605e-37
-2.089e-36
1.628e-35
-1.23e-34
8.976e-34
-6.311e-33
4.272e-32
-2.756e-31
1.701e-30
-1e-29
5.606e-29
-2.988e-28
1.514e-27
-7.297e-27
3.345e-26
-1.456e-25
6.2e-25
-2.095e-24
9.911e-24
7.86e-25
1.562e-22
1.185e-21
8.731e-21
6.442e-20
3.494e-19
1.842e-18
6.561e-18
1.876e-17
4.809e-17
1.14e-16
2.52e-16
5.225e-16
1.02e-15
1.879e-15
3.279e-15
5.44e-15
8.607e-15
1.303e-14
1.893e-14
2.65e-14
3.584e-14
4.699e-14
5.991e-14
7.447e-14
9.055e-14
1.08e-13
1.266e-13
1.463e-13
1.67e-13
1.889e-13
2.12e-13
2.364e-13
2.625e-13
2.906e-13
3.21e-13
3.543e-13
3.909e-13
4.315e-13
4.768e-13
5.275e-13
5.845e-13
6.488e-13
7.215e-13
8.038e-13
8.972e-13
1.003e-12
1.123e-12
1.26e-12
1.415e-12
1.591e-12
1.791e-12
2.018e-12
2.275e-12
2.566e-12
2.896e-12
3.269e-12
3.689e-12
4.164e-12
4.699e-12
5.301e-12
5.978e-12
6.738e-12
7.59e-12
8.544e-12
9.61e-12
1.08e-11
1.213e-11
1.36e-11
1.524e-11
1.706e-11
1.908e-11
2.13e-11
2.375e-11
2.645e-11
3.046e-11
6.912e-63
-6.692e-62
4.083e-61
-1.913e-60
7.032e-60
-2.078e-59
5.02e-59
-9.98e-59
1.617e-58
-2.021e-58
2.85e-59
1.409e-57
-1.717e-56
1.979e-55
-2.15e-54
2.235e-53
-2.252e-52
2.223e-51
-2.166e-50
2.091e-49
-2.004e-48
1.909e-47
-1.806e-46
1.696e-45
-1.579e-44
1.452e-43
-1.317e-42
1.18e-41
-1.053e-40
9.306e-40
-8.126e-39
6.992e-38
-5.909e-37
4.888e-36
-3.951e-35
3.108e-34
-2.369e-33
1.749e-32
-1.244e-31
8.545e-31
-5.534e-30
3.44e-29
-2.028e-28
1.139e-27
-6.09e-27
3.09e-26
-1.487e-25
6.802e-25
-2.933e-24
1.271e-23
-2.772e-23
1.825e-22
1.067e-21
9.455e-21
6.772e-20
4.329e-19
2.566e-18
1.024e-17
3.307e-17
9.587e-17
2.558e-16
6.327e-16
1.456e-15
3.124e-15
6.268e-15
1.18e-14
2.089e-14
3.492e-14
5.533e-14
8.339e-14
1.2e-13
1.654e-13
2.194e-13
2.808e-13
3.481e-13
4.195e-13
4.928e-13
5.662e-13
6.384e-13
7.082e-13
7.755e-13
8.402e-13
9.029e-13
9.645e-13
1.026e-12
1.089e-12
1.154e-12
1.223e-12
1.297e-12
1.378e-12
1.468e-12
1.569e-12
1.681e-12
1.808e-12
1.951e-12
2.114e-12
2.297e-12
2.505e-12
2.741e-12
3.008e-12
3.31e-12
3.652e-12
4.039e-12
4.477e-12
4.97e-12
5.528e-12
6.156e-12
6.863e-12
7.659e-12
8.554e-12
9.559e-12
1.069e-11
1.195e-11
1.336e-11
1.494e-11
1.67e-11
1.866e-11
2.085e-11
2.328e-11
2.598e-11
2.897e-11
3.227e-11
3.592e-11
3.995e-11
4.438e-11
4.924e-11
5.454e-11
6.258e-11
-7.933e-62
7.81e-61
-5.07e-60
2.621e-59
-1.096e-58
3.774e-58
-1.087e-57
2.637e-57
-5.367e-57
9.119e-57
-1.459e-56
5.256e-56
-4.611e-55
4.682e-54
-4.551e-53
4.28e-52
-3.947e-51
3.613e-50
-3.303e-49
3.021e-48
-2.767e-47
2.538e-46
-2.328e-45
2.131e-44
-1.943e-43
1.762e-42
-1.589e-41
1.431e-40
-1.286e-39
1.145e-38
-1.007e-37
8.748e-37
-7.484e-36
6.276e-35
-5.176e-34
4.162e-33
-3.243e-32
2.46e-31
-1.8e-30
1.277e-29
-8.373e-29
5.325e-28
-3.138e-27
1.771e-26
-9.567e-26
4.913e-25
-2.391e-24
1.107e-23
-4.706e-23
2.035e-22
1.136e-22
6.419e-21
4.955e-20
3.947e-19
2.712e-18
1.238e-17
4.626e-17
1.553e-16
4.784e-16
1.357e-15
3.556e-15
8.615e-15
1.933e-14
4.028e-14
7.811e-14
1.415e-13
2.402e-13
3.838e-13
5.794e-13
8.301e-13
1.133e-12
1.479e-12
1.856e-12
2.245e-12
2.629e-12
2.991e-12
3.316e-12
3.599e-12
3.835e-12
4.027e-12
4.179e-12
4.299e-12
4.395e-12
4.473e-12
4.543e-12
4.61e-12
4.682e-12
4.765e-12
4.864e-12
4.983e-12
5.128e-12
5.304e-12
5.513e-12
5.76e-12
6.05e-12
6.387e-12
6.778e-12
7.228e-12
7.743e-12
8.332e-12
9.001e-12
9.761e-12
1.062e-11
1.159e-11
1.269e-11
1.393e-11
1.532e-11
1.688e-11
1.862e-11
2.058e-11
2.278e-11
2.522e-11
2.796e-11
3.1e-11
3.439e-11
3.816e-11
4.234e-11
4.698e-11
5.212e-11
5.779e-11
6.405e-11
7.096e-11
7.855e-11
8.689e-11
9.602e-11
1.06e-10
1.168e-10
1.335e-10
8.774e-61
-8.735e-60
5.956e-59
-3.339e-58
1.556e-57
-6.12e-57
2.057e-56
-5.939e-56
1.465e-55
-2.97e-55
4.094e-55
6.152e-55
-8.405e-54
7.022e-53
-5.705e-52
4.672e-51
-3.749e-50
3.103e-49
-2.613e-48
2.245e-47
-1.954e-46
1.735e-45
-1.554e-44
1.392e-43
-1.245e-42
1.112e-41
-9.876e-41
8.71e-40
-7.63e-39
6.689e-38
-5.736e-37
4.894e-36
-4.148e-35
3.46e-34
-2.9e-33
2.383e-32
-1.874e-31
1.456e-30
-1.087e-29
7.83e-29
-5.378e-28
3.609e-27
-2.301e-26
1.424e-25
-8.434e-25
4.71e-24
-2.529e-23
1.301e-22
-5.581e-22
2.363e-21
2.37e-20
2.473e-19
2.027e-18
1.08e-17
4.755e-17
1.888e-16
6.859e-16
2.286e-15
6.99e-15
1.962e-14
5.059e-14
1.2e-13
2.621e-13
5.289e-13
9.885e-13
1.718e-12
2.79e-12
4.249e-12
6.099e-12
8.285e-12
1.071e-11
1.322e-11
1.567e-11
1.788e-11
1.977e-11
2.119e-11
2.215e-11
2.273e-11
2.288e-11
2.275e-11
2.243e-11
2.195e-11
2.137e-11
2.075e-11
2.014e-11
1.958e-11
1.908e-11
1.868e-11
1.837e-11
1.817e-11
1.81e-11
1.816e-11
1.833e-11
1.862e-11
1.906e-11
1.964e-11
2.038e-11
2.127e-11
2.233e-11
2.358e-11
2.503e-11
2.67e-11
2.861e-11
3.078e-11
3.323e-11
3.6e-11
3.911e-11
4.261e-11
4.652e-11
5.09e-11
5.578e-11
6.122e-11
6.727e-11
7.399e-11
8.144e-11
8.97e-11
9.884e-11
1.089e-10
1.201e-10
1.323e-10
1.458e-10
1.606e-10
1.768e-10
1.945e-10
2.139e-10
2.351e-10
2.576e-10
2.93e-10
-9.294e-60
9.316e-59
-6.608e-58
3.966e-57
-2.03e-56
8.976e-56
-3.463e-55
1.175e-54
-3.504e-54
9.118e-54
-2.028e-53
3.744e-53
-6.195e-53
1.024e-52
-5.643e-52
1.943e-51
6.078e-50
-4.782e-49
4.499e-48
-3.583e-47
3.007e-46
-1.324e-45
2.997e-45
6.06e-44
-9.622e-43
1.298e-41
-1.332e-40
1.18e-39
-9.01e-39
7.403e-38
-3.323e-37
4.21e-37
8.402e-36
-1.386e-34
1.23e-33
-8.352e-33
1.448e-31
-6.456e-31
3.575e-30
-1.336e-29
-2.149e-29
9.885e-28
-1.315e-26
1.242e-25
-1.068e-24
7.669e-24
-5.195e-23
4.319e-22
-5.877e-22
8.921e-20
9.879e-19
6.338e-18
3.357e-17
1.602e-16
6.991e-16
2.79e-15
1.017e-14
3.388e-14
1.029e-13
2.855e-13
7.231e-13
1.675e-12
3.554e-12
6.926e-12
1.244e-11
2.069e-11
3.203e-11
4.637e-11
6.309e-11
8.112e-11
9.913e-11
1.154e-10
1.293e-10
1.387e-10
1.448e-10
1.454e-10
1.437e-10
1.396e-10
1.334e-10
1.26e-10
1.179e-10
1.098e-10
1.019e-10
9.46e-11
8.795e-11
8.205e-11
7.693e-11
7.258e-11
6.896e-11
6.602e-11
6.374e-11
6.206e-11
6.097e-11
6.031e-11
6.04e-11
6.083e-11
6.175e-11
6.318e-11
6.51e-11
6.754e-11
7.052e-11
7.406e-11
7.82e-11
8.297e-11
8.844e-11
9.464e-11
1.017e-10
1.095e-10
1.184e-10
1.283e-10
1.393e-10
1.515e-10
1.651e-10
1.802e-10
1.969e-10
2.153e-10
2.356e-10
2.58e-10
2.826e-10
3.096e-10
3.392e-10
3.715e-10
4.069e-10
4.454e-10
4.873e-10
5.33e-10
5.813e-10
6.578e-10
9.32e-59
-9.372e-58
6.861e-57
-4.365e-56
2.426e-55
-1.19e-54
5.201e-54
-2.038e-53
7.169e-53
-2.249e-52
6.148e-52
-1.393e-51
2.307e-51
-6.21e-51
3.947e-50
-4.173e-49
4.82e-48
-4.19e-47
3.324e-46
-2.538e-45
1.896e-44
-1.382e-43
9.967e-43
-6.166e-42
4.305e-41
-1.986e-40
2.781e-40
7.176e-39
-1.178e-37
1.269e-36
-1.096e-35
8.588e-35
-6.462e-34
4.405e-33
-2.904e-32
1.077e-31
-6.06e-32
-5.185e-30
7.889e-29
-8.42e-28
7.651e-27
-6.251e-26
4.711e-25
-3.34e-24
2.193e-23
-1.372e-22
9.273e-22
-2.415e-21
1.788e-19
2.161e-18
1.52e-17
8.931e-17
4.741e-16
2.297e-15
1.016e-14
4.09e-14
1.497e-13
4.976e-13
1.5e-12
4.103e-12
1.019e-11
2.298e-11
4.722e-11
8.861e-11
1.524e-10
2.418e-10
3.556e-10
4.88e-10
6.277e-10
7.628e-10
8.798e-10
9.63e-10
1.021e-09
1.02e-09
1.001e-09
9.582e-10
8.966e-10
8.238e-10
7.463e-10
6.694e-10
5.964e-10
5.296e-10
4.701e-10
4.18e-10
3.731e-10
3.35e-10
3.029e-10
2.762e-10
2.541e-10
2.36e-10
2.215e-10
2.1e-10
2.011e-10
1.945e-10
1.902e-10
1.873e-10
1.87e-10
1.878e-10
1.902e-10
1.941e-10
1.996e-10
2.066e-10
2.152e-10
2.255e-10
2.375e-10
2.513e-10
2.67e-10
2.848e-10
3.049e-10
3.273e-10
3.524e-10
3.802e-10
4.111e-10
4.453e-10
4.83e-10
5.246e-10
5.704e-10
6.206e-10
6.757e-10
7.36e-10
8.018e-10
8.736e-10
9.518e-10
1.037e-09
1.129e-09
1.229e-09
1.334e-09
1.502e-09
-8.691e-58
8.735e-57
-6.559e-56
4.386e-55
-2.621e-54
1.412e-53
-6.916e-53
3.101e-52
-1.277e-51
4.816e-51
-1.636e-50
4.747e-50
-9.853e-50
-1.73e-49
2.329e-48
-1.458e-47
1.184e-46
-7.3e-46
4.421e-45
-2.924e-44
2.187e-43
-1.794e-42
1.637e-41
-1.212e-40
1.148e-39
-9.805e-39
7.508e-38
-5.346e-37
3.507e-36
-2.051e-35
9.765e-35
-2.171e-34
-2.463e-33
4.95e-32
-5.909e-31
5.862e-30
-5.23e-29
4.329e-28
-3.374e-27
2.496e-26
-1.759e-25
1.188e-24
-7.664e-24
4.745e-23
-2.787e-22
1.716e-21
-5.764e-21
3.015e-19
4.003e-18
3.103e-17
2.03e-16
1.204e-15
6.518e-15
3.215e-14
1.44e-13
5.847e-13
2.146e-12
7.107e-12
2.122e-11
5.713e-11
1.387e-10
3.039e-10
6.026e-10
1.085e-09
1.78e-09
2.682e-09
3.737e-09
4.846e-09
5.877e-09
6.754e-09
7.317e-09
7.52e-09
7.402e-09
7.075e-09
6.563e-09
5.933e-09
5.253e-09
4.576e-09
3.939e-09
3.365e-09
2.861e-09
2.431e-09
2.069e-09
1.768e-09
1.521e-09
1.318e-09
1.153e-09
1.019e-09
9.104e-10
8.228e-10
7.525e-10
6.963e-10
6.52e-10
6.176e-10
5.916e-10
5.727e-10
5.607e-10
5.527e-10
5.53e-10
5.563e-10
5.64e-10
5.763e-10
5.929e-10
6.14e-10
6.395e-10
6.696e-10
7.046e-10
7.446e-10
7.899e-10
8.409e-10
8.98e-10
9.616e-10
1.032e-09
1.11e-09
1.196e-09
1.291e-09
1.395e-09
1.508e-09
1.633e-09
1.769e-09
1.917e-09
2.078e-09
2.253e-09
2.442e-09
2.647e-09
2.869e-09
3.1e-09
3.471e-09
7.329e-57
-7.337e-56
5.616e-55
-3.917e-54
2.493e-53
-1.46e-52
7.924e-52
-4.02e-51
1.918e-50
-8.644e-50
3.682e-49
-1.471e-48
5.378e-48
-1.677e-47
1.244e-47
3.718e-46
-2.604e-45
2.225e-44
-1.748e-43
1.271e-42
-8.788e-42
5.851e-41
-3.477e-40
2.871e-39
-1.347e-38
2.998e-38
1.432e-37
-3.691e-36
4.662e-35
-4.819e-34
4.497e-33
-3.927e-32
3.262e-31
-2.601e-30
2e-29
-1.488e-28
1.072e-27
-7.484e-27
5.066e-26
-3.323e-25
2.114e-24
-1.297e-23
7.747e-23
-4.393e-22
2.605e-21
-9.784e-21
4.199e-19
6.146e-18
5.264e-17
3.846e-16
2.557e-15
1.553e-14
8.591e-14
4.311e-13
1.956e-12
7.993e-12
2.936e-11
9.675e-11
2.856e-10
7.547e-10
1.786e-09
3.787e-09
7.219e-09
1.241e-08
1.934e-08
2.759e-08
3.628e-08
4.434e-08
5.067e-08
5.52e-08
5.506e-08
5.343e-08
4.996e-08
4.512e-08
3.956e-08
3.387e-08
2.845e-08
2.357e-08
1.935e-08
1.579e-08
1.286e-08
1.049e-08
8.597e-09
7.088e-09
5.893e-09
4.949e-09
4.203e-09
3.613e-09
3.146e-09
2.775e-09
2.481e-09
2.248e-09
2.063e-09
1.919e-09
1.806e-09
1.72e-09
1.658e-09
1.614e-09
1.587e-09
1.576e-09
1.581e-09
1.597e-09
1.626e-09
1.666e-09
1.718e-09
1.782e-09
1.859e-09
1.948e-09
2.05e-09
2.165e-09
2.295e-09
2.44e-09
2.602e-09
2.78e-09
2.977e-09
3.193e-09
3.43e-09
3.689e-09
3.972e-09
4.281e-09
4.616e-09
4.979e-09
5.373e-09
5.799e-09
6.257e-09
6.753e-09
7.266e-09
8.093e-09
-5.369e-56
5.336e-55
-4.141e-54
2.988e-53
-2.005e-52
1.259e-51
-7.455e-51
4.195e-50
-2.262e-49
1.177e-48
-5.969e-48
2.971e-47
-1.466e-46
7.261e-46
-3.658e-45
1.905e-44
-1.039e-43
5.989e-43
-3.655e-42
2.349e-41
-1.582e-40
1.109e-39
-8.077e-39
6.099e-38
-4.757e-37
3.812e-36
-2.987e-35
2.313e-34
-1.765e-33
1.327e-32
-9.811e-32
7.132e-31
-5.093e-30
3.57e-29
-2.454e-28
1.653e-27
-1.09e-26
7.035e-26
-4.433e-25
2.728e-24
-1.632e-23
9.609e-23
-5.377e-22
3.156e-21
-1.247e-20
4.757e-19
7.679e-18
7.272e-17
5.939e-16
4.432e-15
3.028e-14
1.885e-13
1.065e-12
5.428e-12
2.489e-11
1.022e-10
3.752e-10
1.227e-09
3.571e-09
9.235e-09
2.122e-08
4.339e-08
7.914e-08
1.294e-07
1.906e-07
2.562e-07
3.172e-07
3.646e-07
3.951e-07
3.917e-07
3.75e-07
3.441e-07
3.038e-07
2.595e-07
2.157e-07
1.755e-07
1.405e-07
1.112e-07
8.734e-08
6.842e-08
5.363e-08
4.22e-08
3.342e-08
2.669e-08
2.155e-08
1.761e-08
1.457e-08
1.223e-08
1.042e-08
9.002e-09
7.894e-09
7.023e-09
6.339e-09
5.801e-09
5.38e-09
5.054e-09
4.806e-09
4.623e-09
4.494e-09
4.414e-09
4.372e-09
4.381e-09
4.417e-09
4.485e-09
4.586e-09
4.718e-09
4.882e-09
5.077e-09
5.305e-09
5.565e-09
5.86e-09
6.19e-09
6.559e-09
6.967e-09
7.418e-09
7.913e-09
8.455e-09
9.047e-09
9.692e-09
1.039e-08
1.115e-08
1.198e-08
1.287e-08
1.383e-08
1.486e-08
1.597e-08
1.712e-08
1.897e-08
3.251e-55
-3.204e-54
2.508e-53
-1.856e-52
1.297e-51
-8.6e-51
5.442e-50
-3.31e-49
1.948e-48
-1.117e-47
6.273e-47
-3.47e-46
1.899e-45
-1.032e-44
5.592e-44
-3.041e-43
1.675e-42
-9.45e-42
5.554e-41
-3.443e-40
2.264e-39
-1.576e-38
1.146e-37
-8.579e-37
6.534e-36
-4.97e-35
3.655e-34
-2.639e-33
1.874e-32
-1.311e-31
9.037e-31
-6.14e-30
4.112e-29
-2.713e-28
1.762e-27
-1.127e-26
7.084e-26
-4.374e-25
2.651e-24
-1.574e-23
9.211e-23
-5.097e-22
2.999e-21
-1.215e-20
4.324e-19
7.688e-18
8.041e-17
7.333e-16
6.141e-15
4.72e-14
3.312e-13
2.11e-12
1.214e-11
6.276e-11
2.901e-10
1.195e-09
4.367e-09
1.413e-08
4.039e-08
1.018e-07
2.261e-07
4.434e-07
7.699e-07
1.19e-06
1.65e-06
2.084e-06
2.426e-06
2.639e-06
2.608e-06
2.476e-06
2.243e-06
1.947e-06
1.629e-06
1.323e-06
1.048e-06
8.143e-07
6.242e-07
4.743e-07
3.587e-07
2.712e-07
2.056e-07
1.568e-07
1.207e-07
9.383e-08
7.389e-08
5.9e-08
4.781e-08
3.934e-08
3.289e-08
2.794e-08
2.412e-08
2.114e-08
1.882e-08
1.7e-08
1.558e-08
1.447e-08
1.361e-08
1.296e-08
1.248e-08
1.214e-08
1.193e-08
1.182e-08
1.185e-08
1.194e-08
1.212e-08
1.238e-08
1.272e-08
1.315e-08
1.365e-08
1.423e-08
1.49e-08
1.565e-08
1.649e-08
1.742e-08
1.845e-08
1.958e-08
2.082e-08
2.217e-08
2.365e-08
2.524e-08
2.698e-08
2.885e-08
3.086e-08
3.303e-08
3.536e-08
3.786e-08
4.042e-08
4.458e-08
-1.559e-54
1.523e-53
-1.198e-52
9.027e-52
-6.491e-51
4.471e-50
-2.966e-49
1.908e-48
-1.199e-47
7.426e-47
-4.569e-46
2.813e-45
-1.742e-44
1.089e-43
-6.869e-43
4.367e-42
-2.79e-41
1.792e-40
-1.147e-39
7.349e-39
-4.712e-38
3.009e-37
-1.923e-36
1.232e-35
-7.924e-35
5.116e-34
-3.295e-33
2.119e-32
-1.36e-31
8.696e-31
-5.537e-30
3.506e-29
-2.205e-28
1.375e-27
-8.5e-27
5.198e-26
-3.141e-25
1.873e-24
-1.1e-23
6.381e-23
-3.559e-22
2.215e-21
-9.156e-21
3.118e-19
6.094e-18
7.023e-17
7.133e-16
6.685e-15
5.771e-14
4.561e-13
3.279e-12
2.132e-11
1.245e-10
6.502e-10
3.018e-09
1.24e-08
4.495e-08
1.432e-07
3.996e-07
9.754e-07
2.082e-06
3.893e-06
6.399e-06
9.307e-06
1.209e-05
1.435e-05
1.584e-05
1.566e-05
1.484e-05
1.337e-05
1.149e-05
9.485e-06
7.572e-06
5.881e-06
4.47e-06
3.342e-06
2.471e-06
1.815e-06
1.33e-06
9.76e-07
7.2e-07
5.355e-07
4.025e-07
3.063e-07
2.365e-07
1.854e-07
1.477e-07
1.197e-07
9.867e-08
8.272e-08
7.052e-08
6.113e-08
5.384e-08
4.815e-08
4.371e-08
4.023e-08
3.753e-08
3.545e-08
3.387e-08
3.272e-08
3.193e-08
3.145e-08
3.124e-08
3.133e-08
3.162e-08
3.211e-08
3.281e-08
3.371e-08
3.481e-08
3.61e-08
3.76e-08
3.93e-08
4.121e-08
4.333e-08
4.568e-08
4.827e-08
5.11e-08
5.419e-08
5.754e-08
6.118e-08
6.511e-08
6.936e-08
7.392e-08
7.882e-08
8.407e-08
8.971e-08
9.544e-08
1.048e-07
5.707e-54
-5.632e-53
4.473e-52
-3.408e-51
2.483e-50
-1.732e-49
1.156e-48
-7.378e-48
4.502e-47
-2.621e-46
1.451e-45
-7.589e-45
3.705e-44
-1.646e-43
6.267e-43
-1.656e-42
-9.825e-43
9.926e-41
-6.546e-40
4.364e-39
-3.219e-38
1.234e-37
-2.561e-37
-2.595e-36
5.011e-35
-5.486e-34
4.883e-33
-3.923e-32
2.962e-31
-2.142e-30
1.499e-29
-1.022e-28
6.819e-28
-4.46e-27
2.865e-26
-1.81e-25
1.126e-24
-6.887e-24
4.151e-23
-2.446e-22
1.494e-21
-5.467e-21
1.746e-19
3.784e-18
4.8e-17
5.407e-16
5.647e-15
5.455e-14
4.841e-13
3.921e-12
2.878e-11
1.901e-10
1.122e-09
5.885e-09
2.726e-08
1.11e-07
3.958e-07
1.23e-06
3.324e-06
7.79e-06
1.586e-05
2.806e-05
4.339e-05
5.912e-05
7.183e-05
8.164e-05
8.12e-05
7.739e-05
6.987e-05
5.998e-05
4.93e-05
3.907e-05
3.003e-05
2.253e-05
1.658e-05
1.203e-05
8.645e-06
6.185e-06
4.423e-06
3.174e-06
2.294e-06
1.673e-06
1.236e-06
9.257e-07
7.044e-07
5.449e-07
4.29e-07
3.438e-07
2.805e-07
2.33e-07
1.969e-07
1.693e-07
1.48e-07
1.315e-07
1.185e-07
1.084e-07
1.005e-07
9.442e-08
8.973e-08
8.622e-08
8.369e-08
8.206e-08
8.093e-08
8.09e-08
8.126e-08
8.213e-08
8.352e-08
8.542e-08
8.781e-08
9.068e-08
9.403e-08
9.786e-08
1.022e-07
1.07e-07
1.124e-07
1.183e-07
1.247e-07
1.317e-07
1.394e-07
1.476e-07
1.566e-07
1.662e-07
1.765e-07
1.875e-07
1.994e-07
2.12e-07
2.249e-07
2.458e-07
-2.505e-53
2.266e-52
-1.728e-51
1.329e-50
-1.02e-49
7.775e-49
-5.854e-48
4.337e-47
-3.153e-46
2.247e-45
-1.57e-44
1.076e-43
-7.241e-43
4.797e-42
-3.134e-41
2.022e-40
-1.291e-39
8.168e-39
-5.129e-38
3.2e-37
-1.986e-36
1.227e-35
-7.55e-35
4.627e-34
-2.825e-33
1.716e-32
-1.036e-31
6.224e-31
-3.717e-30
2.208e-29
-1.304e-28
7.659e-28
-4.473e-27
2.597e-26
-1.499e-25
8.601e-25
-4.903e-24
2.778e-23
-1.558e-22
8.934e-22
-3.938e-21
5.663e-20
1.777e-18
2.547e-17
3.177e-16
3.678e-15
3.955e-14
3.924e-13
3.567e-12
2.948e-11
2.197e-10
1.466e-09
8.687e-09
4.54e-08
2.08e-07
8.306e-07
2.878e-06
8.622e-06
2.225e-05
4.948e-05
9.499e-05
0.0001576
0.000228
0.0002901
0.0003365
0.0003474
0.0003348
0.0003055
0.0002645
0.0002189
0.0001742
0.0001342
0.0001005
7.368e-05
5.306e-05
3.773e-05
2.662e-05
1.871e-05
1.316e-05
9.304e-06
6.63e-06
4.777e-06
3.488e-06
2.586e-06
1.949e-06
1.496e-06
1.169e-06
9.306e-07
7.547e-07
6.235e-07
5.244e-07
4.488e-07
3.907e-07
3.456e-07
3.104e-07
2.829e-07
2.614e-07
2.446e-07
2.316e-07
2.217e-07
2.145e-07
2.095e-07
2.064e-07
2.048e-07
2.052e-07
2.068e-07
2.096e-07
2.136e-07
2.188e-07
2.251e-07
2.326e-07
2.412e-07
2.51e-07
2.62e-07
2.741e-07
2.875e-07
3.021e-07
3.181e-07
3.354e-07
3.541e-07
3.743e-07
3.96e-07
4.192e-07
4.441e-07
4.706e-07
4.99e-07
5.276e-07
5.743e-07
-7.801e-53
7.7e-52
-6.191e-51
4.829e-50
-3.639e-49
2.65e-48
-1.868e-47
1.276e-46
-8.47e-46
5.474e-45
-3.456e-44
2.138e-43
-1.301e-42
7.828e-42
-4.674e-41
2.784e-40
-1.661e-39
9.982e-39
-6.06e-38
3.727e-37
-2.325e-36
1.471e-35
-9.429e-35
6.111e-34
-4e-33
2.612e-32
-1.691e-31
1.085e-30
-6.901e-30
4.358e-29
-2.734e-28
1.704e-27
-1.056e-26
6.503e-26
-3.985e-25
2.43e-24
-1.474e-23
8.909e-23
-5.326e-22
3.334e-21
-1.253e-20
4.178e-19
1.013e-17
1.444e-16
1.845e-15
2.194e-14
2.42e-13
2.456e-12
2.277e-11
1.91e-10
1.437e-09
9.619e-09
5.674e-08
2.926e-07
1.309e-06
5.053e-06
1.675e-05
4.753e-05
0.0001152
0.0002395
0.0004275
0.0006596
0.0008874
0.001066
0.001159
0.001134
0.001056
0.0009338
0.0007883
0.0006395
0.0005012
0.0003812
0.0002825
0.000205
0.0001462
0.000103
7.202e-05
5.019e-05
3.503e-05
2.457e-05
1.739e-05
1.245e-05
9.044e-06
6.675e-06
5.013e-06
3.834e-06
2.988e-06
2.374e-06
1.922e-06
1.585e-06
1.331e-06
1.138e-06
9.895e-07
8.742e-07
7.843e-07
7.139e-07
6.586e-07
6.153e-07
5.818e-07
5.561e-07
5.37e-07
5.233e-07
5.148e-07
5.089e-07
5.094e-07
5.12e-07
5.176e-07
5.262e-07
5.375e-07
5.516e-07
5.684e-07
5.878e-07
6.099e-07
6.347e-07
6.622e-07
6.925e-07
7.256e-07
7.617e-07
8.008e-07
8.431e-07
8.885e-07
9.373e-07
9.895e-07
1.045e-06
1.104e-06
1.168e-06
1.231e-06
1.334e-06
2.494e-52
-2.301e-51
1.774e-50
-1.366e-49
1.042e-48
-7.843e-48
5.816e-47
-4.24e-46
3.036e-45
-2.135e-44
1.473e-43
-9.988e-43
6.658e-42
-4.368e-41
2.825e-40
-1.803e-39
1.137e-38
-7.097e-38
4.389e-37
-2.692e-36
1.64e-35
-9.93e-35
5.98e-34
-3.584e-33
2.14e-32
-1.27e-31
7.508e-31
-4.419e-30
2.593e-29
-1.517e-28
8.853e-28
-5.158e-27
3.001e-26
-1.745e-25
1.014e-24
-5.893e-24
3.428e-23
-1.991e-22
1.193e-21
-5.387e-21
9.874e-20
3.249e-18
5.125e-17
7.162e-16
9.353e-15
1.139e-13
1.283e-12
1.327e-11
1.247e-10
1.056e-09
7.976e-09
5.313e-08
3.09e-07
1.553e-06
6.691e-06
2.454e-05
7.634e-05
0.000201
0.0004495
0.0008607
0.001405
0.002016
0.002514
0.002868
0.002863
0.002751
0.002516
0.0022
0.001848
0.001498
0.001177
0.0008982
0.0006681
0.0004863
0.0003477
0.0002453
0.0001716
0.0001196
8.347e-05
5.855e-05
4.143e-05
2.968e-05
2.157e-05
1.594e-05
1.199e-05
9.185e-06
7.173e-06
5.71e-06
4.633e-06
3.829e-06
3.223e-06
2.761e-06
2.405e-06
2.128e-06
1.912e-06
1.742e-06
1.609e-06
1.504e-06
1.422e-06
1.359e-06
1.313e-06
1.278e-06
1.257e-06
1.241e-06
1.241e-06
1.246e-06
1.258e-06
1.276e-06
1.301e-06
1.333e-06
1.371e-06
1.415e-06
1.465e-06
1.521e-06
1.583e-06
1.651e-06
1.726e-06
1.807e-06
1.895e-06
1.99e-06
2.092e-06
2.201e-06
2.317e-06
2.44e-06
2.571e-06
2.71e-06
2.85e-06
3.076e-06
4.557e-52
-4.468e-51
3.603e-50
-2.844e-49
2.185e-48
-1.633e-47
1.188e-46
-8.416e-46
5.817e-45
-3.93e-44
2.6e-43
-1.689e-42
1.081e-41
-6.822e-41
4.262e-40
-2.641e-39
1.628e-38
-9.993e-38
6.125e-37
-3.753e-36
2.302e-35
-1.414e-34
8.716e-34
-5.389e-33
3.347e-32
-2.072e-31
1.277e-30
-7.84e-30
4.799e-29
-2.931e-28
1.788e-27
-1.089e-26
6.64e-26
-4.05e-25
2.475e-24
-1.515e-23
9.316e-23
-5.718e-22
3.711e-21
-1.432e-20
5.147e-19
1.375e-17
2.164e-16
3.086e-15
4.117e-14
5.114e-13
5.864e-12
6.151e-11
5.842e-10
4.969e-09
3.74e-08
2.46e-07
1.397e-06
6.762e-06
2.761e-05
9.445e-05
0.0002703
0.0006484
0.001319
0.002295
0.003387
0.004638
0.005351
0.00551
0.005384
0.005106
0.004682
0.004124
0.003498
0.002878
0.002297
0.001782
0.001346
0.0009935
0.0007193
0.000513
0.0003622
0.0002545
0.0001789
0.0001263
8.998e-05
6.487e-05
4.745e-05
3.529e-05
2.672e-05
2.06e-05
1.62e-05
1.297e-05
1.059e-05
8.805e-06
7.452e-06
6.416e-06
5.615e-06
4.99e-06
4.5e-06
4.114e-06
3.81e-06
3.571e-06
3.384e-06
3.24e-06
3.132e-06
3.054e-06
3.004e-06
2.967e-06
2.967e-06
2.978e-06
3.004e-06
3.047e-06
3.104e-06
3.176e-06
3.261e-06
3.361e-06
3.474e-06
3.6e-06
3.741e-06
3.894e-06
4.062e-06
4.244e-06
4.44e-06
4.651e-06
4.876e-06
5.116e-06
5.371e-06
5.642e-06
5.927e-06
6.229e-06
6.529e-06
7.015e-06
-9.843e-52
9.177e-51
-7.135e-50
5.523e-49
-4.221e-48
3.177e-47
-2.353e-46
1.711e-45
-1.221e-44
8.557e-44
-5.884e-43
3.974e-42
-2.638e-41
1.723e-40
-1.108e-39
7.03e-39
-4.404e-38
2.728e-37
-1.673e-36
1.017e-35
-6.136e-35
3.678e-34
-2.193e-33
1.301e-32
-7.699e-32
4.528e-31
-2.655e-30
1.554e-29
-9.081e-29
5.308e-28
-3.105e-27
1.82e-26
-1.07e-25
6.321e-25
-3.753e-24
2.243e-23
-1.348e-22
8.43e-22
-3.864e-21
8.791e-20
3.01e-18
5.164e-17
7.968e-16
1.156e-14
1.571e-13
1.984e-12
2.308e-11
2.447e-10
2.338e-09
1.988e-08
1.483e-07
9.57e-07
5.258e-06
2.423e-05
9.243e-05
0.0002899
0.0007489
0.001615
0.002975
0.004668
0.006292
0.008796
0.01033
0.01037
0.01036
0.01011
0.008406
0.006666
0.005607
0.004728
0.003861
0.003061
0.002362
0.001779
0.001312
0.0009522
0.000683
0.0004869
0.0003468
0.000248
0.0001789
0.0001305
9.663e-05
7.27e-05
5.567e-05
4.341e-05
3.449e-05
2.791e-05
2.301e-05
1.93e-05
1.648e-05
1.43e-05
1.261e-05
1.128e-05
1.024e-05
9.411e-06
8.758e-06
8.243e-06
7.841e-06