/*--------------------------------*- C++ -*----------------------------------*\
  =========                 |
  \\      /  F ield         | OpenFOAM: The Open Source CFD Toolbox
   \\    /   O peration     | Website:  https://openfoam.org
    \\  /    A nd           | Version:  7
     \\/     M anipulation  |
\*---------------------------------------------------------------------------*/
FoamFile
{
    version     2.0;
    format      ascii;
    class       volScalarField;
    location    "659.999473410930023";
    object      p;
}
// * * * * * * * * * * * * * * * * * * * * * * * * * * * * * * * * * * * * * //

dimensions      [0 2 -2 0 0 0 0];

internalField   nonuniform List<scalar> 
4096
(
0.0006499
0.000479
0.0003947
0.0003526
0.0003292
0.0003153
0.0003064
0.0003003
0.000296
0.0002927
0.0002902
0.0002882
0.0002865
0.0002852
0.000284
0.000283
0.0002821
0.0002813
0.0002806
0.00028
0.0002793
0.0002788
0.0002782
0.0002777
0.0002772
0.0002767
0.0002762
0.0002757
0.0002752
0.0002747
0.0002741
0.0002736
0.000273
0.0002724
0.0002717
0.000271
0.0002702
0.0002693
0.0002684
0.0002673
0.000266
0.0002647
0.0002631
0.0002613
0.0002593
0.000257
0.0002545
0.0002516
0.0002483
0.0002447
0.0002407
0.0002362
0.0002313
0.0002259
0.00022
0.0002137
0.0002069
0.0001996
0.0001919
0.0001839
0.0001755
0.0001669
0.0001581
0.0001492
0.0001403
0.0001315
0.0001227
0.0001142
0.000106
9.806e-05
9.05e-05
8.335e-05
7.661e-05
7.032e-05
6.448e-05
5.908e-05
5.412e-05
4.959e-05
4.548e-05
4.176e-05
3.842e-05
3.541e-05
3.273e-05
3.034e-05
2.822e-05
2.633e-05
2.466e-05
2.317e-05
2.185e-05
2.068e-05
1.962e-05
1.868e-05
1.782e-05
1.705e-05
1.633e-05
1.567e-05
1.506e-05
1.448e-05
1.393e-05
1.34e-05
1.289e-05
1.24e-05
1.192e-05
1.144e-05
1.097e-05
1.05e-05
1.004e-05
9.573e-06
9.108e-06
8.642e-06
8.175e-06
7.705e-06
7.232e-06
6.757e-06
6.278e-06
5.796e-06
5.31e-06
4.82e-06
4.327e-06
3.83e-06
3.329e-06
2.827e-06
2.323e-06
1.819e-06
1.321e-06
8.353e-07
3.79e-07
4.758e-08
0.0005054
0.0004416
0.0003919
0.0003598
0.0003389
0.0003246
0.0003146
0.0003073
0.0003018
0.0002976
0.0002943
0.0002916
0.0002894
0.0002876
0.000286
0.0002847
0.0002836
0.0002825
0.0002816
0.0002807
0.00028
0.0002792
0.0002785
0.0002779
0.0002772
0.0002766
0.000276
0.0002753
0.0002747
0.0002741
0.0002734
0.0002727
0.000272
0.0002712
0.0002704
0.0002695
0.0002686
0.0002676
0.0002664
0.0002652
0.0002638
0.0002622
0.0002605
0.0002586
0.0002564
0.000254
0.0002513
0.0002483
0.000245
0.0002413
0.0002372
0.0002328
0.0002279
0.0002226
0.0002168
0.0002106
0.000204
0.000197
0.0001897
0.000182
0.000174
0.0001658
0.0001575
0.000149
0.0001405
0.0001321
0.0001238
0.0001157
0.0001078
0.0001002
9.297e-05
8.607e-05
7.954e-05
7.342e-05
6.77e-05
6.239e-05
5.748e-05
5.297e-05
4.884e-05
4.508e-05
4.166e-05
3.857e-05
3.578e-05
3.327e-05
3.101e-05
2.899e-05
2.717e-05
2.554e-05
2.407e-05
2.275e-05
2.156e-05
2.047e-05
1.949e-05
1.858e-05
1.775e-05
1.697e-05
1.625e-05
1.556e-05
1.492e-05
1.43e-05
1.371e-05
1.314e-05
1.259e-05
1.204e-05
1.151e-05
1.099e-05
1.048e-05
9.969e-06
9.463e-06
8.96e-06
8.459e-06
7.958e-06
7.459e-06
6.959e-06
6.458e-06
5.957e-06
5.455e-06
4.951e-06
4.445e-06
3.938e-06
3.43e-06
2.922e-06
2.414e-06
1.908e-06
1.408e-06
9.182e-07
4.479e-07
7.608e-08
0.0004219
0.0004003
0.0003748
0.000354
0.0003385
0.0003268
0.0003178
0.0003108
0.0003053
0.0003008
0.0002972
0.0002942
0.0002917
0.0002896
0.0002878
0.0002862
0.0002848
0.0002836
0.0002825
0.0002815
0.0002805
0.0002796
0.0002788
0.000278
0.0002772
0.0002765
0.0002757
0.000275
0.0002742
0.0002735
0.0002727
0.0002719
0.000271
0.0002701
0.0002692
0.0002682
0.0002671
0.0002659
0.0002646
0.0002632
0.0002617
0.00026
0.0002581
0.000256
0.0002538
0.0002512
0.0002484
0.0002454
0.000242
0.0002382
0.0002341
0.0002297
0.0002249
0.0002196
0.000214
0.000208
0.0002016
0.0001948
0.0001877
0.0001803
0.0001727
0.0001649
0.0001569
0.0001488
0.0001407
0.0001326
0.0001247
0.0001169
0.0001094
0.0001021
9.51e-05
8.843e-05
8.211e-05
7.614e-05
7.055e-05
6.533e-05
6.048e-05
5.599e-05
5.186e-05
4.807e-05
4.46e-05
4.144e-05
3.857e-05
3.596e-05
3.36e-05
3.146e-05
2.952e-05
2.776e-05
2.617e-05
2.472e-05
2.34e-05
2.219e-05
2.108e-05
2.006e-05
1.911e-05
1.823e-05
1.74e-05
1.663e-05
1.589e-05
1.519e-05
1.452e-05
1.387e-05
1.325e-05
1.265e-05
1.206e-05
1.149e-05
1.092e-05
1.037e-05
9.822e-06
9.282e-06
8.748e-06
8.218e-06
7.691e-06
7.167e-06
6.645e-06
6.124e-06
5.604e-06
5.086e-06
4.567e-06
4.05e-06
3.532e-06
3.016e-06
2.5e-06
1.988e-06
1.479e-06
9.766e-07
4.841e-07
8.061e-08
0.0003771
0.0003701
0.0003568
0.0003436
0.0003327
0.000324
0.0003168
0.000311
0.0003061
0.000302
0.0002985
0.0002955
0.000293
0.0002908
0.0002889
0.0002872
0.0002857
0.0002843
0.0002831
0.000282
0.0002809
0.0002799
0.000279
0.0002781
0.0002772
0.0002763
0.0002755
0.0002746
0.0002738
0.0002729
0.000272
0.0002711
0.0002701
0.0002691
0.0002681
0.0002669
0.0002657
0.0002644
0.000263
0.0002615
0.0002599
0.0002581
0.0002561
0.0002539
0.0002515
0.0002489
0.0002461
0.0002429
0.0002395
0.0002358
0.0002317
0.0002272
0.0002225
0.0002173
0.0002118
0.0002059
0.0001997
0.0001931
0.0001862
0.0001791
0.0001717
0.0001641
0.0001564
0.0001486
0.0001408
0.000133
0.0001254
0.0001179
0.0001106
0.0001035
9.675e-05
9.027e-05
8.411e-05
7.828e-05
7.28e-05
6.766e-05
6.287e-05
5.842e-05
5.43e-05
5.05e-05
4.701e-05
4.381e-05
4.088e-05
3.821e-05
3.577e-05
3.354e-05
3.151e-05
2.966e-05
2.797e-05
2.642e-05
2.5e-05
2.369e-05
2.248e-05
2.136e-05
2.032e-05
1.935e-05
1.844e-05
1.758e-05
1.676e-05
1.599e-05
1.525e-05
1.454e-05
1.386e-05
1.32e-05
1.256e-05
1.194e-05
1.133e-05
1.074e-05
1.016e-05
9.583e-06
9.018e-06
8.46e-06
7.909e-06
7.362e-06
6.82e-06
6.282e-06
5.746e-06
5.213e-06
4.682e-06
4.153e-06
3.626e-06
3.1e-06
2.575e-06
2.052e-06
1.532e-06
1.014e-06
5.006e-07
7.69e-08
0.0003502
0.0003492
0.0003423
0.0003337
0.0003259
0.0003194
0.0003139
0.0003092
0.0003051
0.0003016
0.0002985
0.0002958
0.0002934
0.0002913
0.0002894
0.0002877
0.0002862
0.0002848
0.0002835
0.0002823
0.0002812
0.0002801
0.0002791
0.0002781
0.0002771
0.0002762
0.0002753
0.0002743
0.0002734
0.0002724
0.0002714
0.0002704
0.0002694
0.0002683
0.0002671
0.0002659
0.0002646
0.0002632
0.0002617
0.0002601
0.0002584
0.0002565
0.0002544
0.0002522
0.0002498
0.0002471
0.0002442
0.000241
0.0002376
0.0002338
0.0002297
0.0002253
0.0002206
0.0002155
0.0002101
0.0002043
0.0001982
0.0001918
0.0001851
0.0001781
0.0001709
0.0001635
0.000156
0.0001484
0.0001408
0.0001333
0.0001258
0.0001185
0.0001114
0.0001046
9.797e-05
9.165e-05
8.562e-05
7.991e-05
7.452e-05
6.946e-05
6.472e-05
6.031e-05
5.621e-05
5.242e-05
4.892e-05
4.57e-05
4.274e-05
4.002e-05
3.753e-05
3.525e-05
3.315e-05
3.123e-05
2.947e-05
2.784e-05
2.634e-05
2.496e-05
2.367e-05
2.248e-05
2.136e-05
2.031e-05
1.933e-05
1.84e-05
1.753e-05
1.669e-05
1.589e-05
1.513e-05
1.44e-05
1.369e-05
1.301e-05
1.234e-05
1.17e-05
1.107e-05
1.046e-05
9.853e-06
9.262e-06
8.68e-06
8.106e-06
7.54e-06
6.98e-06
6.425e-06
5.875e-06
5.329e-06
4.786e-06
4.246e-06
3.709e-06
3.173e-06
2.639e-06
2.105e-06
1.573e-06
1.042e-06
5.106e-07
7.266e-08
0.0003329
0.0003344
0.000331
0.0003254
0.0003197
0.0003146
0.0003103
0.0003066
0.0003033
0.0003003
0.0002977
0.0002953
0.0002932
0.0002912
0.0002894
0.0002878
0.0002863
0.0002849
0.0002836
0.0002824
0.0002812
0.0002801
0.0002791
0.000278
0.000277
0.000276
0.000275
0.000274
0.000273
0.000272
0.000271
0.0002699
0.0002688
0.0002676
0.0002664
0.0002651
0.0002637
0.0002622
0.0002607
0.000259
0.0002572
0.0002552
0.0002531
0.0002509
0.0002484
0.0002457
0.0002427
0.0002396
0.0002361
0.0002324
0.0002283
0.0002239
0.0002192
0.0002142
0.0002088
0.0002032
0.0001971
0.0001908
0.0001842
0.0001774
0.0001703
0.000163
0.0001557
0.0001482
0.0001408
0.0001334
0.0001261
0.000119
0.000112
0.0001053
9.883e-05
9.262e-05
8.67e-05
8.108e-05
7.577e-05
7.077e-05
6.608e-05
6.171e-05
5.763e-05
5.386e-05
5.036e-05
4.714e-05
4.416e-05
4.142e-05
3.89e-05
3.658e-05
3.445e-05
3.248e-05
3.067e-05
2.899e-05
2.743e-05
2.599e-05
2.465e-05
2.339e-05
2.222e-05
2.112e-05
2.008e-05
1.91e-05
1.817e-05
1.728e-05
1.644e-05
1.563e-05
1.486e-05
1.411e-05
1.339e-05
1.269e-05
1.202e-05
1.136e-05
1.071e-05
1.009e-05
9.473e-06
8.87e-06
8.277e-06
7.694e-06
7.118e-06
6.55e-06
5.987e-06
5.43e-06
4.876e-06
4.327e-06
3.78e-06
3.235e-06
2.692e-06
2.15e-06
1.607e-06
1.064e-06
5.187e-07
6.959e-08
0.0003209
0.0003234
0.0003221
0.0003185
0.0003143
0.0003104
0.0003069
0.0003038
0.0003011
0.0002986
0.0002964
0.0002944
0.0002925
0.0002907
0.0002891
0.0002876
0.0002862
0.0002848
0.0002835
0.0002823
0.0002812
0.0002801
0.000279
0.0002779
0.0002769
0.0002758
0.0002748
0.0002738
0.0002727
0.0002717
0.0002706
0.0002694
0.0002683
0.000267
0.0002658
0.0002644
0.000263
0.0002615
0.0002599
0.0002582
0.0002563
0.0002543
0.0002522
0.0002499
0.0002474
0.0002447
0.0002417
0.0002385
0.0002351
0.0002313
0.0002273
0.000223
0.0002183
0.0002133
0.000208
0.0002024
0.0001964
0.0001902
0.0001836
0.0001769
0.0001699
0.0001627
0.0001554
0.0001481
0.0001407
0.0001334
0.0001262
0.0001192
0.0001124
0.0001057
9.935e-05
9.323e-05
8.739e-05
8.184e-05
7.659e-05
7.164e-05
6.699e-05
6.265e-05
5.861e-05
5.485e-05
5.137e-05
4.815e-05
4.518e-05
4.244e-05
3.991e-05
3.757e-05
3.542e-05
3.342e-05
3.158e-05
2.987e-05
2.828e-05
2.679e-05
2.541e-05
2.412e-05
2.29e-05
2.176e-05
2.068e-05
1.965e-05
1.868e-05
1.776e-05
1.688e-05
1.604e-05
1.523e-05
1.445e-05
1.37e-05
1.298e-05
1.227e-05
1.159e-05
1.093e-05
1.028e-05
9.646e-06
9.026e-06
8.418e-06
7.821e-06
7.233e-06
6.652e-06
6.079e-06
5.512e-06
4.95e-06
4.393e-06
3.838e-06
3.286e-06
2.736e-06
2.186e-06
1.636e-06
1.083e-06
5.265e-07
6.834e-08
0.0003123
0.0003151
0.000315
0.0003128
0.0003097
0.0003066
0.0003037
0.0003011
0.0002989
0.0002968
0.0002949
0.0002931
0.0002915
0.00029
0.0002885
0.0002871
0.0002858
0.0002845
0.0002833
0.0002821
0.000281
0.0002799
0.0002788
0.0002778
0.0002767
0.0002757
0.0002746
0.0002735
0.0002725
0.0002714
0.0002702
0.0002691
0.0002679
0.0002666
0.0002653
0.0002639
0.0002625
0.0002609
0.0002593
0.0002576
0.0002557
0.0002537
0.0002516
0.0002492
0.0002467
0.000244
0.0002411
0.0002379
0.0002345
0.0002308
0.0002268
0.0002224
0.0002178
0.0002128
0.0002076
0.0002019
0.000196
0.0001898
0.0001833
0.0001766
0.0001696
0.0001625
0.0001552
0.0001479
0.0001406
0.0001334
0.0001262
0.0001192
0.0001125
0.0001059
9.957e-05
9.351e-05
8.771e-05
8.221e-05
7.699e-05
7.208e-05
6.747e-05
6.316e-05
5.914e-05
5.541e-05
5.196e-05
4.876e-05
4.58e-05
4.307e-05
4.055e-05
3.822e-05
3.606e-05
3.406e-05
3.22e-05
3.048e-05
2.887e-05
2.737e-05
2.596e-05
2.464e-05
2.34e-05
2.222e-05
2.112e-05
2.007e-05
1.907e-05
1.812e-05
1.721e-05
1.634e-05
1.551e-05
1.471e-05
1.394e-05
1.319e-05
1.247e-05
1.177e-05
1.109e-05
1.042e-05
9.778e-06
9.145e-06
8.526e-06
7.917e-06
7.32e-06
6.731e-06
6.15e-06
5.576e-06
5.007e-06
4.444e-06
3.884e-06
3.326e-06
2.77e-06
2.215e-06
1.659e-06
1.099e-06
5.347e-07
6.92e-08
0.0003058
0.0003085
0.0003091
0.0003079
0.0003057
0.0003033
0.0003009
0.0002988
0.0002968
0.000295
0.0002934
0.0002919
0.0002904
0.0002891
0.0002878
0.0002865
0.0002853
0.0002841
0.000283
0.0002819
0.0002808
0.0002797
0.0002786
0.0002776
0.0002765
0.0002755
0.0002744
0.0002734
0.0002723
0.0002712
0.00027
0.0002688
0.0002676
0.0002664
0.000265
0.0002636
0.0002622
0.0002606
0.000259
0.0002573
0.0002554
0.0002534
0.0002513
0.0002489
0.0002465
0.0002438
0.0002409
0.0002377
0.0002343
0.0002306
0.0002266
0.0002223
0.0002177
0.0002127
0.0002075
0.0002019
0.0001959
0.0001897
0.0001832
0.0001765
0.0001695
0.0001623
0.0001551
0.0001478
0.0001404
0.0001332
0.0001261
0.0001191
0.0001123
0.0001058
9.949e-05
9.345e-05
8.768e-05
8.219e-05
7.7e-05
7.211e-05
6.753e-05
6.324e-05
5.926e-05
5.556e-05
5.214e-05
4.897e-05
4.604e-05
4.334e-05
4.084e-05
3.853e-05
3.639e-05
3.44e-05
3.255e-05
3.083e-05
2.922e-05
2.771e-05
2.629e-05
2.496e-05
2.371e-05
2.252e-05
2.14e-05
2.033e-05
1.932e-05
1.835e-05
1.743e-05
1.655e-05
1.57e-05
1.488e-05
1.409e-05
1.333e-05
1.26e-05
1.189e-05
1.12e-05
1.052e-05
9.866e-06
9.224e-06
8.597e-06
7.982e-06
7.377e-06
6.783e-06
6.197e-06
5.618e-06
5.046e-06
4.478e-06
3.915e-06
3.354e-06
2.795e-06
2.237e-06
1.677e-06
1.114e-06
5.438e-07
7.238e-08
0.0003008
0.0003033
0.0003043
0.0003037
0.0003023
0.0003004
0.0002985
0.0002966
0.0002949
0.0002934
0.0002919
0.0002906
0.0002893
0.0002881
0.0002869
0.0002858
0.0002847
0.0002836
0.0002826
0.0002815
0.0002805
0.0002794
0.0002784
0.0002774
0.0002764
0.0002753
0.0002743
0.0002732
0.0002722
0.000271
0.0002699
0.0002687
0.0002675
0.0002662
0.0002649
0.0002635
0.0002621
0.0002605
0.0002589
0.0002572
0.0002553
0.0002534
0.0002513
0.000249
0.0002465
0.0002439
0.000241
0.0002379
0.0002345
0.0002309
0.0002269
0.0002226
0.000218
0.000213
0.0002078
0.0002021
0.0001962
0.0001899
0.0001834
0.0001766
0.0001695
0.0001623
0.000155
0.0001476
0.0001402
0.0001329
0.0001257
0.0001188
0.000112
0.0001054
9.911e-05
9.306e-05
8.728e-05
8.179e-05
7.66e-05
7.172e-05
6.716e-05
6.29e-05
5.895e-05
5.529e-05
5.191e-05
4.879e-05
4.591e-05
4.325e-05
4.079e-05
3.852e-05
3.641e-05
3.445e-05
3.262e-05
3.092e-05
2.932e-05
2.783e-05
2.642e-05
2.509e-05
2.384e-05
2.265e-05
2.153e-05
2.046e-05
1.944e-05
1.847e-05
1.754e-05
1.664e-05
1.579e-05
1.496e-05
1.417e-05
1.34e-05
1.266e-05
1.194e-05
1.125e-05
1.057e-05
9.907e-06
9.262e-06
8.63e-06
8.012e-06
7.405e-06
6.808e-06
6.219e-06
5.639e-06
5.065e-06
4.497e-06
3.932e-06
3.371e-06
2.811e-06
2.252e-06
1.691e-06
1.126e-06
5.541e-07
7.804e-08
0.0002967
0.0002991
0.0003003
0.0003002
0.0002992
0.0002978
0.0002963
0.0002947
0.0002932
0.0002919
0.0002906
0.0002894
0.0002883
0.0002872
0.0002861
0.0002851
0.0002841
0.0002831
0.0002821
0.0002811
0.0002802
0.0002792
0.0002782
0.0002772
0.0002762
0.0002752
0.0002742
0.0002732
0.0002721
0.000271
0.0002699
0.0002687
0.0002675
0.0002663
0.000265
0.0002636
0.0002622
0.0002607
0.0002591
0.0002574
0.0002556
0.0002536
0.0002516
0.0002493
0.0002469
0.0002443
0.0002415
0.0002385
0.0002351
0.0002315
0.0002276
0.0002233
0.0002187
0.0002138
0.0002084
0.0002028
0.0001968
0.0001904
0.0001838
0.0001769
0.0001697
0.0001624
0.000155
0.0001474
0.0001399
0.0001325
0.0001253
0.0001182
0.0001114
0.0001048
9.841e-05
9.231e-05
8.65e-05
8.098e-05
7.578e-05
7.09e-05
6.635e-05
6.212e-05
5.821e-05
5.46e-05
5.128e-05
4.822e-05
4.54e-05
4.281e-05
4.041e-05
3.819e-05
3.613e-05
3.422e-05
3.243e-05
3.077e-05
2.92e-05
2.773e-05
2.634e-05
2.504e-05
2.38e-05
2.262e-05
2.15e-05
2.044e-05
1.943e-05
1.846e-05
1.753e-05
1.664e-05
1.578e-05
1.496e-05
1.417e-05
1.34e-05
1.266e-05
1.194e-05
1.124e-05
1.056e-05
9.903e-06
9.257e-06
8.626e-06
8.008e-06
7.401e-06
6.805e-06
6.217e-06
5.638e-06
5.065e-06
4.498e-06
3.935e-06
3.376e-06
2.818e-06
2.26e-06
1.7e-06
1.136e-06
5.658e-07
8.626e-08
0.0002934
0.0002956
0.0002969
0.0002971
0.0002966
0.0002956
0.0002943
0.000293
0.0002917
0.0002905
0.0002894
0.0002883
0.0002873
0.0002863
0.0002854
0.0002844
0.0002835
0.0002826
0.0002817
0.0002808
0.0002798
0.0002789
0.000278
0.0002771
0.0002761
0.0002751
0.0002742
0.0002731
0.0002721
0.0002711
0.00027
0.0002688
0.0002677
0.0002664
0.0002652
0.0002638
0.0002624
0.000261
0.0002594
0.0002578
0.000256
0.0002542
0.0002522
0.00025
0.0002477
0.0002452
0.0002424
0.0002394
0.0002362
0.0002326
0.0002287
0.0002245
0.0002199
0.0002149
0.0002096
0.0002038
0.0001977
0.0001913
0.0001845
0.0001775
0.0001702
0.0001627
0.000155
0.0001473
0.0001396
0.000132
0.0001246
0.0001174
0.0001105
0.0001038
9.734e-05
9.116e-05
8.528e-05
7.972e-05
7.45e-05
6.961e-05
6.508e-05
6.089e-05
5.703e-05
5.349e-05
5.024e-05
4.726e-05
4.453e-05
4.201e-05
3.97e-05
3.755e-05
3.557e-05
3.372e-05
3.199e-05
3.037e-05
2.885e-05
2.742e-05
2.607e-05
2.48e-05
2.358e-05
2.243e-05
2.133e-05
2.029e-05
1.929e-05
1.833e-05
1.742e-05
1.654e-05
1.569e-05
1.487e-05
1.409e-05
1.333e-05
1.259e-05
1.188e-05
1.118e-05
1.051e-05
9.853e-06
9.211e-06
8.584e-06
7.97e-06
7.367e-06
6.774e-06
6.191e-06
5.615e-06
5.046e-06
4.483e-06
3.924e-06
3.369e-06
2.815e-06
2.261e-06
1.705e-06
1.146e-06
5.789e-07
9.71e-08
0.0002907
0.0002927
0.000294
0.0002945
0.0002942
0.0002935
0.0002926
0.0002915
0.0002904
0.0002893
0.0002883
0.0002873
0.0002864
0.0002855
0.0002846
0.0002838
0.0002829
0.0002821
0.0002813
0.0002804
0.0002796
0.0002787
0.0002778
0.0002769
0.000276
0.0002751
0.0002742
0.0002732
0.0002722
0.0002712
0.0002701
0.000269
0.0002679
0.0002667
0.0002655
0.0002642
0.0002629
0.0002615
0.00026
0.0002584
0.0002568
0.000255
0.0002531
0.000251
0.0002488
0.0002463
0.0002437
0.0002408
0.0002377
0.0002342
0.0002304
0.0002262
0.0002216
0.0002166
0.0002112
0.0002054
0.0001992
0.0001926
0.0001856
0.0001784
0.0001709
0.0001631
0.0001552
0.0001472
0.0001392
0.0001314
0.0001237
0.0001164
0.0001093
0.0001024
9.583e-05
8.955e-05
8.358e-05
7.796e-05
7.27e-05
6.782e-05
6.331e-05
5.917e-05
5.538e-05
5.193e-05
4.878e-05
4.591e-05
4.328e-05
4.088e-05
3.866e-05
3.662e-05
3.472e-05
3.295e-05
3.13e-05
2.975e-05
2.83e-05
2.692e-05
2.562e-05
2.438e-05
2.321e-05
2.209e-05
2.102e-05
2.001e-05
1.903e-05
1.81e-05
1.72e-05
1.634e-05
1.55e-05
1.47e-05
1.393e-05
1.318e-05
1.246e-05
1.176e-05
1.107e-05
1.041e-05
9.759e-06
9.125e-06
8.506e-06
7.899e-06
7.303e-06
6.717e-06
6.141e-06
5.572e-06
5.009e-06
4.452e-06
3.9e-06
3.35e-06
2.803e-06
2.255e-06
1.706e-06
1.153e-06
5.935e-07
1.105e-07
0.0002884
0.0002903
0.0002916
0.0002922
0.0002922
0.0002917
0.000291
0.0002902
0.0002892
0.0002883
0.0002874
0.0002865
0.0002856
0.0002848
0.000284
0.0002832
0.0002825
0.0002817
0.0002809
0.0002801
0.0002793
0.0002785
0.0002777
0.0002769
0.000276
0.0002751
0.0002742
0.0002733
0.0002724
0.0002714
0.0002704
0.0002694
0.0002683
0.0002672
0.000266
0.0002648
0.0002635
0.0002622
0.0002608
0.0002593
0.0002577
0.000256
0.0002542
0.0002523
0.0002502
0.0002479
0.0002454
0.0002426
0.0002396
0.0002363
0.0002325
0.0002284
0.0002239
0.0002189
0.0002135
0.0002076
0.0002012
0.0001945
0.0001873
0.0001797
0.0001719
0.0001638
0.0001555
0.0001471
0.0001387
0.0001305
0.0001226
0.000115
0.0001076
0.0001005
9.379e-05
8.736e-05
8.129e-05
7.561e-05
7.033e-05
6.546e-05
6.1e-05
5.693e-05
5.325e-05
4.992e-05
4.69e-05
4.416e-05
4.168e-05
3.94e-05
3.732e-05
3.539e-05
3.361e-05
3.194e-05
3.038e-05
2.892e-05
2.754e-05
2.623e-05
2.499e-05
2.381e-05
2.268e-05
2.161e-05
2.058e-05
1.96e-05
1.866e-05
1.775e-05
1.688e-05
1.605e-05
1.524e-05
1.446e-05
1.37e-05
1.297e-05
1.227e-05
1.158e-05
1.091e-05
1.026e-05
9.622e-06
9.001e-06
8.393e-06
7.797e-06
7.211e-06
6.635e-06
6.068e-06
5.508e-06
4.954e-06
4.406e-06
3.862e-06
3.322e-06
2.783e-06
2.244e-06
1.704e-06
1.16e-06
6.096e-07
1.264e-07
0.0002865
0.0002882
0.0002895
0.0002902
0.0002904
0.0002901
0.0002896
0.0002889
0.0002882
0.0002873
0.0002865
0.0002857
0.000285
0.0002842
0.0002835
0.0002828
0.000282
0.0002813
0.0002806
0.0002799
0.0002791
0.0002784
0.0002776
0.0002768
0.000276
0.0002752
0.0002744
0.0002735
0.0002726
0.0002717
0.0002708
0.0002698
0.0002688
0.0002677
0.0002666
0.0002655
0.0002643
0.000263
0.0002617
0.0002603
0.0002589
0.0002573
0.0002556
0.0002538
0.0002519
0.0002498
0.0002474
0.0002449
0.000242
0.0002388
0.0002353
0.0002313
0.0002269
0.0002219
0.0002165
0.0002105
0.0002041
0.0001971
0.0001896
0.0001817
0.0001735
0.000165
0.0001561
0.0001471
0.0001381
0.0001294
0.000121
0.000113
0.0001053
9.802e-05
9.104e-05
8.446e-05
7.83e-05
7.257e-05
6.729e-05
6.247e-05
5.809e-05
5.415e-05
5.061e-05
4.744e-05
4.46e-05
4.203e-05
3.972e-05
3.761e-05
3.568e-05
3.39e-05
3.225e-05
3.07e-05
2.925e-05
2.789e-05
2.66e-05
2.537e-05
2.42e-05
2.308e-05
2.202e-05
2.1e-05
2.002e-05
1.908e-05
1.818e-05
1.732e-05
1.648e-05
1.567e-05
1.489e-05
1.414e-05
1.341e-05
1.271e-05
1.202e-05
1.135e-05
1.07e-05
1.007e-05
9.448e-06
8.842e-06
8.248e-06
7.665e-06
7.093e-06
6.529e-06
5.974e-06
5.425e-06
4.883e-06
4.346e-06
3.813e-06
3.283e-06
2.755e-06
2.227e-06
1.698e-06
1.165e-06
6.27e-07
1.446e-07
0.0002849
0.0002865
0.0002878
0.0002885
0.0002888
0.0002887
0.0002884
0.0002878
0.0002872
0.0002865
0.0002858
0.0002851
0.0002844
0.0002837
0.000283
0.0002823
0.0002817
0.000281
0.0002803
0.0002797
0.000279
0.0002783
0.0002776
0.0002769
0.0002761
0.0002753
0.0002746
0.0002738
0.0002729
0.0002721
0.0002712
0.0002703
0.0002694
0.0002684
0.0002674
0.0002663
0.0002652
0.0002641
0.0002628
0.0002616
0.0002602
0.0002588
0.0002573
0.0002557
0.0002539
0.000252
0.0002498
0.0002475
0.0002449
0.0002419
0.0002386
0.0002348
0.0002305
0.0002257
0.0002204
0.0002144
0.0002079
0.0002007
0.0001929
0.0001846
0.000176
0.0001668
0.0001571
0.0001472
0.0001373
0.0001278
0.0001187
0.0001102
0.0001022
9.455e-05
8.736e-05
8.067e-05
7.446e-05
6.874e-05
6.352e-05
5.879e-05
5.457e-05
5.08e-05
4.746e-05
4.45e-05
4.187e-05
3.953e-05
3.742e-05
3.551e-05
3.377e-05
3.215e-05
3.066e-05
2.925e-05
2.793e-05
2.668e-05
2.549e-05
2.435e-05
2.327e-05
2.223e-05
2.123e-05
2.028e-05
1.935e-05
1.847e-05
1.761e-05
1.679e-05
1.6e-05
1.523e-05
1.448e-05
1.376e-05
1.306e-05
1.238e-05
1.172e-05
1.108e-05
1.045e-05
9.838e-06
9.238e-06
8.65e-06
8.074e-06
7.508e-06
6.951e-06
6.402e-06
5.861e-06
5.326e-06
4.797e-06
4.273e-06
3.753e-06
3.235e-06
2.719e-06
2.204e-06
1.688e-06
1.169e-06
6.456e-07
1.648e-07
0.0002835
0.000285
0.0002862
0.000287
0.0002874
0.0002875
0.0002873
0.0002869
0.0002864
0.0002858
0.0002852
0.0002845
0.0002839
0.0002833
0.0002826
0.000282
0.0002814
0.0002808
0.0002802
0.0002795
0.0002789
0.0002783
0.0002776
0.0002769
0.0002762
0.0002755
0.0002748
0.0002741
0.0002733
0.0002725
0.0002717
0.0002709
0.00027
0.0002691
0.0002682
0.0002672
0.0002662
0.0002652
0.0002641
0.000263
0.0002618
0.0002605
0.0002592
0.0002577
0.0002562
0.0002545
0.0002526
0.0002505
0.0002482
0.0002455
0.0002425
0.000239
0.000235
0.0002304
0.0002252
0.0002194
0.0002129
0.0002057
0.0001977
0.000189
0.0001798
0.0001698
0.0001589
0.0001475
0.0001361
0.0001253
0.0001152
0.0001061
9.771e-05
8.979e-05
8.246e-05
7.576e-05
6.961e-05
6.399e-05
5.892e-05
5.439e-05
5.038e-05
4.687e-05
4.38e-05
4.111e-05
3.876e-05
3.668e-05
3.482e-05
3.314e-05
3.161e-05
3.019e-05
2.887e-05
2.762e-05
2.644e-05
2.531e-05
2.424e-05
2.321e-05
2.221e-05
2.126e-05
2.034e-05
1.945e-05
1.859e-05
1.777e-05
1.697e-05
1.619e-05
1.544e-05
1.472e-05
1.401e-05
1.333e-05
1.266e-05
1.201e-05
1.138e-05
1.077e-05
1.016e-05
9.575e-06
8.998e-06
8.431e-06
7.875e-06
7.327e-06
6.788e-06
6.257e-06
5.732e-06
5.212e-06
4.698e-06
4.189e-06
3.683e-06
3.179e-06
2.678e-06
2.177e-06
1.676e-06
1.173e-06
6.653e-07
1.869e-07
0.0002823
0.0002837
0.0002849
0.0002857
0.0002862
0.0002864
0.0002863
0.000286
0.0002856
0.0002851
0.0002846
0.000284
0.0002835
0.0002829
0.0002823
0.0002817
0.0002812
0.0002806
0.00028
0.0002795
0.0002789
0.0002783
0.0002777
0.0002771
0.0002764
0.0002758
0.0002751
0.0002745
0.0002738
0.000273
0.0002723
0.0002715
0.0002708
0.00027
0.0002691
0.0002683
0.0002674
0.0002665
0.0002655
0.0002645
0.0002635
0.0002624
0.0002612
0.00026
0.0002587
0.0002572
0.0002557
0.0002539
0.0002519
0.0002496
0.0002469
0.0002438
0.0002402
0.000236
0.0002312
0.0002257
0.0002196
0.0002126
0.0002046
0.0001957
0.0001862
0.0001752
0.0001622
0.0001481
0.0001341
0.0001211
0.0001095
9.974e-05
9.118e-05
8.32e-05
7.599e-05
6.952e-05
6.363e-05
5.826e-05
5.346e-05
4.924e-05
4.556e-05
4.238e-05
3.965e-05
3.731e-05
3.528e-05
3.352e-05
3.195e-05
3.054e-05
2.924e-05
2.804e-05
2.691e-05
2.584e-05
2.481e-05
2.382e-05
2.287e-05
2.195e-05
2.106e-05
2.019e-05
1.935e-05
1.854e-05
1.775e-05
1.699e-05
1.625e-05
1.553e-05
1.483e-05
1.415e-05
1.349e-05
1.285e-05
1.222e-05
1.161e-05
1.101e-05
1.042e-05
9.847e-06
9.285e-06
8.732e-06
8.189e-06
7.655e-06
7.128e-06
6.609e-06
6.096e-06
5.588e-06
5.086e-06
4.589e-06
4.095e-06
3.605e-06
3.117e-06
2.631e-06
2.146e-06
1.661e-06
1.175e-06
6.858e-07
2.105e-07
0.0002813
0.0002827
0.0002838
0.0002846
0.0002851
0.0002854
0.0002854
0.0002852
0.0002849
0.0002846
0.0002841
0.0002836
0.0002831
0.0002826
0.0002821
0.0002815
0.000281
0.0002805
0.00028
0.0002794
0.0002789
0.0002784
0.0002778
0.0002772
0.0002767
0.0002761
0.0002755
0.0002749
0.0002742
0.0002736
0.0002729
0.0002723
0.0002716
0.0002709
0.0002701
0.0002694
0.0002686
0.0002678
0.000267
0.0002661
0.0002652
0.0002643
0.0002634
0.0002624
0.0002613
0.0002602
0.0002589
0.0002575
0.0002559
0.0002541
0.0002519
0.0002492
0.0002461
0.0002425
0.0002382
0.0002334
0.0002279
0.0002217
0.0002143
0.0002057
0.0001972
0.0001854
0.0001686
0.0001491
0.0001301
0.0001133
9.934e-05
8.953e-05
8.19e-05
7.423e-05
6.757e-05
6.18e-05
5.647e-05
5.156e-05
4.719e-05
4.34e-05
4.015e-05
3.74e-05
3.51e-05
3.316e-05
3.152e-05
3.011e-05
2.887e-05
2.775e-05
2.672e-05
2.575e-05
2.483e-05
2.394e-05
2.307e-05
2.223e-05
2.141e-05
2.06e-05
1.982e-05
1.905e-05
1.83e-05
1.757e-05
1.686e-05
1.616e-05
1.548e-05
1.482e-05
1.418e-05
1.355e-05
1.293e-05
1.233e-05
1.174e-05
1.117e-05
1.06e-05
1.005e-05
9.506e-06
8.972e-06
8.447e-06
7.929e-06
7.418e-06
6.914e-06
6.415e-06
5.922e-06
5.434e-06
4.951e-06
4.471e-06
3.994e-06
3.521e-06
3.05e-06
2.58e-06
2.112e-06
1.645e-06
1.177e-06
7.07e-07
2.352e-07
0.0002805
0.0002817
0.0002829
0.0002837
0.0002842
0.0002845
0.0002846
0.0002846
0.0002844
0.0002841
0.0002837
0.0002833
0.0002828
0.0002824
0.0002819
0.0002814
0.0002809
0.0002804
0.0002799
0.0002795
0.000279
0.0002785
0.000278
0.0002775
0.0002769
0.0002764
0.0002759
0.0002753
0.0002748
0.0002742
0.0002736
0.000273
0.0002724
0.0002718
0.0002712
0.0002705
0.0002699
0.0002692
0.0002685
0.0002678
0.0002671
0.0002664
0.0002656
0.0002649
0.0002641
0.0002633
0.0002624
0.0002614
0.0002602
0.0002588
0.0002572
0.0002551
0.0002526
0.0002497
0.0002462
0.0002423
0.0002381
0.0002335
0.0002275
0.0002174
0.0002113
0.0002048
0.0001844
0.0001514
0.0001204
9.72e-05
8.302e-05
7.747e-05
7.132e-05
6.243e-05
5.695e-05
5.256e-05
4.823e-05
4.403e-05
4.025e-05
3.702e-05
3.429e-05
3.205e-05
3.022e-05
2.875e-05
2.754e-05
2.653e-05
2.565e-05
2.485e-05
2.41e-05
2.337e-05
2.267e-05
2.197e-05
2.127e-05
2.058e-05
1.989e-05
1.92e-05
1.853e-05
1.786e-05
1.72e-05
1.655e-05
1.591e-05
1.529e-05
1.468e-05
1.408e-05
1.349e-05
1.291e-05
1.234e-05
1.179e-05
1.124e-05
1.071e-05
1.018e-05
9.66e-06
9.149e-06
8.645e-06
8.147e-06
7.656e-06
7.17e-06
6.689e-06
6.213e-06
5.741e-06
5.272e-06
4.808e-06
4.346e-06
3.888e-06
3.432e-06
2.978e-06
2.526e-06
2.076e-06
1.627e-06
1.178e-06
7.284e-07
2.606e-07
0.0002797
0.000281
0.000282
0.0002829
0.0002834
0.0002838
0.000284
0.000284
0.0002838
0.0002836
0.0002833
0.000283
0.0002826
0.0002822
0.0002817
0.0002813
0.0002809
0.0002804
0.00028
0.0002795
0.0002791
0.0002786
0.0002782
0.0002777
0.0002772
0.0002768
0.0002763
0.0002758
0.0002753
0.0002748
0.0002743
0.0002738
0.0002733
0.0002728
0.0002722
0.0002717
0.0002712
0.0002706
0.0002701
0.0002695
0.000269
0.0002684
0.0002679
0.0002674
0.0002669
0.0002664
0.0002658
0.0002652
0.0002646
0.0002637
0.0002626
0.0002612
0.0002593
0.0002571
0.0002545
0.0002517
0.0002491
0.0002466
0.0002432
0.0002337
0.0002118
0.0001838
0.0001576
0.0001444
0.000132
0.000125
9.878e-05
7.42e-05
5.731e-05
4.873e-05
4.565e-05
4.241e-05
3.942e-05
3.604e-05
3.293e-05
3.032e-05
2.817e-05
2.647e-05
2.518e-05
2.421e-05
2.347e-05
2.288e-05
2.237e-05
2.19e-05
2.144e-05
2.096e-05
2.047e-05
1.996e-05
1.944e-05
1.889e-05
1.834e-05
1.778e-05
1.721e-05
1.664e-05
1.607e-05
1.551e-05
1.495e-05
1.44e-05
1.385e-05
1.331e-05
1.278e-05
1.226e-05
1.174e-05
1.123e-05
1.073e-05
1.023e-05
9.743e-06
9.26e-06
8.782e-06
8.308e-06
7.84e-06
7.375e-06
6.915e-06
6.458e-06
6.004e-06
5.554e-06
5.106e-06
4.661e-06
4.219e-06
3.779e-06
3.341e-06
2.905e-06
2.471e-06
2.038e-06
1.608e-06
1.178e-06
7.498e-07
2.864e-07
0.0002791
0.0002803
0.0002813
0.0002822
0.0002828
0.0002832
0.0002834
0.0002835
0.0002834
0.0002832
0.000283
0.0002827
0.0002824
0.000282
0.0002816
0.0002812
0.0002808
0.0002804
0.00028
0.0002796
0.0002792
0.0002788
0.0002784
0.000278
0.0002776
0.0002772
0.0002767
0.0002763
0.0002759
0.0002755
0.000275
0.0002746
0.0002742
0.0002737
0.0002733
0.0002729
0.0002725
0.000272
0.0002716
0.0002712
0.0002708
0.0002705
0.0002702
0.0002699
0.0002696
0.0002694
0.0002692
0.0002691
0.0002688
0.0002685
0.0002679
0.0002671
0.0002659
0.0002642
0.0002623
0.0002602
0.0002576
0.0002586
0.0002514
0.0001891
0.0001727
0.0001476
0.0001266
0.0001368
0.0001453
0.000153
0.0001299
0.0001111
0.0001021
4.614e-05
3.513e-05
3.496e-05
3.141e-05
2.805e-05
2.558e-05
2.358e-05
2.201e-05
2.086e-05
2.012e-05
1.968e-05
1.943e-05
1.927e-05
1.914e-05
1.899e-05
1.881e-05
1.858e-05
1.83e-05
1.798e-05
1.761e-05
1.722e-05
1.679e-05
1.635e-05
1.589e-05
1.542e-05
1.494e-05
1.446e-05
1.398e-05
1.35e-05
1.302e-05
1.254e-05
1.207e-05
1.16e-05
1.113e-05
1.067e-05
1.021e-05
9.757e-06
9.305e-06
8.857e-06
8.412e-06
7.97e-06
7.53e-06
7.093e-06
6.658e-06
6.225e-06
5.795e-06
5.366e-06
4.939e-06
4.513e-06
4.09e-06
3.668e-06
3.248e-06
2.83e-06
2.414e-06
2e-06
1.588e-06
1.178e-06
7.71e-07
3.12e-07
0.0002786
0.0002797
0.0002808
0.0002816
0.0002822
0.0002826
0.0002829
0.000283
0.000283
0.0002829
0.0002827
0.0002825
0.0002822
0.0002819
0.0002816
0.0002812
0.0002808
0.0002805
0.0002801
0.0002797
0.0002794
0.000279
0.0002786
0.0002783
0.0002779
0.0002776
0.0002772
0.0002768
0.0002765
0.0002761
0.0002758
0.0002754
0.0002751
0.0002747
0.0002744
0.000274
0.0002737
0.0002734
0.0002731
0.0002729
0.0002727
0.0002725
0.0002723
0.0002723
0.0002723
0.0002723
0.0002725
0.0002727
0.0002729
0.000273
0.000273
0.0002726
0.0002718
0.0002706
0.000269
0.000267
0.000264
0.0002496
0.000215
0.0001096
8.015e-05
-0.0001331
3.356e-05
0.0001116
0.0001656
0.0002368
0.0003662
0.0001816
0.0001645
8.773e-05
6.166e-05
3.157e-05
2.335e-05
2.048e-05
1.857e-05
1.715e-05
1.607e-05
1.544e-05
1.523e-05
1.531e-05
1.553e-05
1.58e-05
1.603e-05
1.619e-05
1.628e-05
1.628e-05
1.62e-05
1.605e-05
1.584e-05
1.558e-05
1.528e-05
1.495e-05
1.459e-05
1.422e-05
1.383e-05
1.343e-05
1.303e-05
1.262e-05
1.22e-05
1.179e-05
1.137e-05
1.095e-05
1.053e-05
1.012e-05
9.702e-06
9.287e-06
8.873e-06
8.46e-06
8.048e-06
7.636e-06
7.225e-06
6.815e-06
6.405e-06
5.996e-06
5.588e-06
5.18e-06
4.774e-06
4.368e-06
3.963e-06
3.559e-06
3.157e-06
2.757e-06
2.358e-06
1.962e-06
1.568e-06
1.178e-06
7.916e-07
3.37e-07
0.0002782
0.0002793
0.0002803
0.0002811
0.0002817
0.0002822
0.0002825
0.0002826
0.0002827
0.0002826
0.0002825
0.0002823
0.0002821
0.0002818
0.0002815
0.0002812
0.0002809
0.0002805
0.0002802