/*--------------------------------*- C++ -*----------------------------------*\
  =========                 |
  \\      /  F ield         | OpenFOAM: The Open Source CFD Toolbox
   \\    /   O peration     | Website:  https://openfoam.org
    \\  /    A nd           | Version:  7
     \\/     M anipulation  |
\*---------------------------------------------------------------------------*/
FoamFile
{
    version     2.0;
    format      ascii;
    class       surfaceScalarField;
    location    "659.999473410930023";
    object      phi;
}
// * * * * * * * * * * * * * * * * * * * * * * * * * * * * * * * * * * * * * //

dimensions      [0 3 -1 0 0 0 0];

internalField   nonuniform List<scalar> 
8032
(
6.857e-10
2.518e-10
4.804e-10
2.053e-10
3.48e-10
1.324e-10
2.643e-10
8.372e-11
2.101e-10
5.415e-11
1.738e-10
3.635e-11
1.483e-10
2.548e-11
1.297e-10
1.862e-11
1.156e-10
1.41e-11
1.046e-10
1.099e-11
9.583e-11
8.752e-12
8.875e-11
7.084e-12
8.294e-11
5.802e-12
7.815e-11
4.789e-12
7.418e-11
3.972e-12
7.088e-11
3.299e-12
6.815e-11
2.735e-12
6.589e-11
2.254e-12
6.406e-11
1.837e-12
6.259e-11
1.471e-12
6.144e-11
1.144e-12
6.059e-11
8.474e-13
6.002e-11
5.742e-13
5.97e-11
3.185e-13
5.963e-11
7.566e-14
5.978e-11
-1.586e-13
6.017e-11
-3.877e-13
6.079e-11
-6.149e-13
6.163e-11
-8.428e-13
6.27e-11
-1.074e-12
6.401e-11
-1.31e-12
6.557e-11
-1.553e-12
6.737e-11
-1.805e-12
6.944e-11
-2.067e-12
7.178e-11
-2.34e-12
7.44e-11
-2.625e-12
7.733e-11
-2.921e-12
8.055e-11
-3.229e-12
8.41e-11
-3.548e-12
8.798e-11
-3.876e-12
9.219e-11
-4.212e-12
9.674e-11
-4.553e-12
1.016e-10
-4.895e-12
1.069e-10
-5.234e-12
1.124e-10
-5.565e-12
1.183e-10
-5.88e-12
1.245e-10
-6.173e-12
1.309e-10
-6.436e-12
1.376e-10
-6.66e-12
1.444e-10
-6.834e-12
1.514e-10
-6.949e-12
1.584e-10
-6.995e-12
1.653e-10
-6.962e-12
1.722e-10
-6.841e-12
1.788e-10
-6.625e-12
1.851e-10
-6.307e-12
1.91e-10
-5.884e-12
1.963e-10
-5.356e-12
2.011e-10
-4.727e-12
2.051e-10
-4.002e-12
2.083e-10
-3.194e-12
2.106e-10
-2.319e-12
2.12e-10
-1.394e-12
2.124e-10
-4.425e-13
2.119e-10
5.126e-13
2.105e-10
1.448e-12
2.081e-10
2.343e-12
2.049e-10
3.178e-12
2.01e-10
3.939e-12
1.964e-10
4.616e-12
1.912e-10
5.201e-12
1.855e-10
5.691e-12
1.794e-10
6.086e-12
1.73e-10
6.388e-12
1.664e-10
6.6e-12
1.597e-10
6.728e-12
1.529e-10
6.778e-12
1.462e-10
6.757e-12
1.395e-10
6.674e-12
1.329e-10
6.537e-12
1.266e-10
6.353e-12
1.205e-10
6.131e-12
1.146e-10
5.879e-12
1.09e-10
5.604e-12
1.037e-10
5.313e-12
9.865e-11
5.012e-12
9.395e-11
4.706e-12
8.955e-11
4.4e-12
8.545e-11
4.097e-12
8.165e-11
3.802e-12
7.813e-11
3.516e-12
7.489e-11
3.241e-12
7.191e-11
2.979e-12
6.918e-11
2.731e-12
6.668e-11
2.497e-12
6.441e-11
2.278e-12
6.233e-11
2.073e-12
6.045e-11
1.883e-12
5.874e-11
1.707e-12
5.72e-11
1.544e-12
5.58e-11
1.395e-12
5.455e-11
1.258e-12
5.341e-11
1.132e-12
5.24e-11
1.017e-12
5.148e-11
9.129e-13
5.066e-11
8.179e-13
4.993e-11
7.316e-13
4.928e-11
6.535e-13
4.87e-11
5.829e-13
4.818e-11
5.192e-13
4.772e-11
4.619e-13
4.731e-11
4.105e-13
4.694e-11
3.644e-13
4.662e-11
3.234e-13
4.633e-11
2.871e-13
4.608e-11
2.553e-13
4.585e-11
2.277e-13
4.564e-11
2.042e-13
4.546e-11
1.849e-13
4.529e-11
1.7e-13
4.513e-11
1.597e-13
4.497e-11
1.549e-13
4.482e-11
1.569e-13
4.465e-11
1.682e-13
4.445e-11
1.938e-13
4.421e-11
2.418e-13
4.389e-11
3.212e-13
4.174e-13
9.523e-10
2.37e-10
8.501e-10
3.075e-10
7.275e-10
2.55e-10
6.183e-10
1.929e-10
5.294e-10
1.43e-10
4.594e-10
1.064e-10
4.044e-10
8.045e-11
3.61e-10
6.204e-11
3.263e-10
4.879e-11
2.983e-10
3.903e-11
2.753e-10
3.167e-11
2.564e-10
2.598e-11
2.407e-10
2.15e-11
2.277e-10
1.789e-11
2.167e-10
1.492e-11
2.075e-10
1.246e-11
1.999e-10
1.037e-11
1.936e-10
8.573e-12
1.884e-10
7.008e-12
1.843e-10
5.625e-12
1.81e-10
4.384e-12
1.786e-10
3.255e-12
1.77e-10
2.212e-12
1.761e-10
1.235e-12
1.758e-10
3.051e-13
1.763e-10
-5.92e-13
1.773e-10
-1.469e-12
1.791e-10
-2.338e-12
1.814e-10
-3.209e-12
1.845e-10
-4.089e-12
1.881e-10
-4.988e-12
1.925e-10
-5.912e-12
1.975e-10
-6.865e-12
2.033e-10
-7.854e-12
2.099e-10
-8.881e-12
2.172e-10
-9.947e-12
2.253e-10
-1.105e-11
2.343e-10
-1.22e-11
2.441e-10
-1.338e-11
2.549e-10
-1.46e-11
2.665e-10
-1.584e-11
2.79e-10
-1.709e-11
2.925e-10
-1.833e-11
3.068e-10
-1.957e-11
3.22e-10
-2.076e-11
3.38e-10
-2.189e-11
3.548e-10
-2.294e-11
3.722e-10
-2.387e-11
3.902e-10
-2.464e-11
4.086e-10
-2.524e-11
4.272e-10
-2.561e-11
4.46e-10
-2.574e-11
4.646e-10
-2.557e-11
4.828e-10
-2.508e-11
5.005e-10
-2.425e-11
5.172e-10
-2.305e-11
5.328e-10
-2.148e-11
5.47e-10
-1.953e-11
5.595e-10
-1.722e-11
5.7e-10
-1.458e-11
5.785e-10
-1.164e-11
5.846e-10
-8.463e-12
5.884e-10
-5.114e-12
5.896e-10
-1.669e-12
5.883e-10
1.791e-12
5.846e-10
5.184e-12
5.785e-10
8.436e-12
5.702e-10
1.148e-11
5.598e-10
1.427e-11
5.477e-10
1.676e-11
5.34e-10
1.892e-11
5.189e-10
2.075e-11
5.028e-10
2.224e-11
4.858e-10
2.339e-11
4.681e-10
2.422e-11
4.501e-10
2.474e-11
4.319e-10
2.497e-11
4.137e-10
2.495e-11
3.957e-10
2.469e-11
3.78e-10
2.424e-11
3.608e-10
2.36e-11
3.441e-10
2.283e-11
3.28e-10
2.194e-11
3.127e-10
2.096e-11
2.981e-10
1.991e-11
2.843e-10
1.882e-11
2.712e-10
1.771e-11
2.591e-10
1.659e-11
2.477e-10
1.548e-11
2.371e-10
1.44e-11
2.273e-10
1.334e-11
2.182e-10
1.232e-11
2.098e-10
1.135e-11
2.021e-10
1.042e-11
1.951e-10
9.548e-12
1.886e-10
8.726e-12
1.827e-10
7.958e-12
1.774e-10
7.242e-12
1.725e-10
6.577e-12
1.681e-10
5.962e-12
1.641e-10
5.395e-12
1.605e-10
4.874e-12
1.572e-10
4.396e-12
1.543e-10
3.958e-12
1.516e-10
3.559e-12
1.492e-10
3.195e-12
1.471e-10
2.864e-12
1.452e-10
2.564e-12
1.435e-10
2.292e-12
1.42e-10
2.046e-12
1.406e-10
1.825e-12
1.394e-10
1.625e-12
1.383e-10
1.447e-12
1.373e-10
1.288e-12
1.365e-10
1.146e-12
1.357e-10
1.022e-12
1.35e-10
9.143e-13
1.344e-10
8.221e-13
1.338e-10
7.456e-13
1.333e-10
6.853e-13
1.329e-10
6.42e-13
1.324e-10
6.173e-13
1.319e-10
6.142e-13
1.315e-10
6.369e-13
1.31e-10
6.916e-13
1.304e-10
7.857e-13
1.298e-10
9.179e-13
1.043e-12
9.779e-10
1.966e-10
9.637e-10
3.217e-10
9.013e-10
3.174e-10
8.213e-10
2.729e-10
7.411e-10
2.232e-10
6.682e-10
1.793e-10
6.05e-10
1.437e-10
5.513e-10
1.158e-10
5.06e-10
9.409e-11
4.679e-10
7.714e-11
4.358e-10
6.376e-11
4.087e-10
5.306e-11
3.858e-10
4.438e-11
3.665e-10
3.724e-11
3.501e-10
3.129e-11
3.363e-10
2.626e-11
3.247e-10
2.195e-11
3.151e-10
1.822e-11
3.071e-10
1.493e-11
3.008e-10
1.201e-11
2.958e-10
9.379e-12
2.92e-10
6.971e-12
2.895e-10
4.738e-12
2.881e-10
2.64e-12
2.878e-10
6.394e-13
2.885e-10
-1.293e-12
2.902e-10
-3.184e-12
2.929e-10
-5.058e-12
2.966e-10
-6.934e-12
3.014e-10
-8.831e-12
3.072e-10
-1.077e-11
3.14e-10
-1.275e-11
3.219e-10
-1.48e-11
3.31e-10
-1.691e-11
3.412e-10
-1.911e-11
3.526e-10
-2.138e-11
3.653e-10
-2.374e-11
3.793e-10
-2.617e-11
3.946e-10
-2.868e-11
4.112e-10
-3.124e-11
4.293e-10
-3.385e-11
4.486e-10
-3.648e-11
4.694e-10
-3.91e-11
4.915e-10
-4.167e-11
5.149e-10
-4.416e-11
5.395e-10
-4.652e-11
5.653e-10
-4.868e-11
5.92e-10
-5.058e-11
6.195e-10
-5.217e-11
6.477e-10
-5.337e-11
6.761e-10
-5.41e-11
7.047e-10
-5.43e-11
7.33e-10
-5.389e-11
7.608e-10
-5.281e-11
7.875e-10
-5.102e-11
8.129e-10
-4.846e-11
8.366e-10
-4.513e-11
8.581e-10
-4.102e-11
8.77e-10
-3.616e-11
8.93e-10
-3.061e-11
9.059e-10
-2.445e-11
9.152e-10
-1.78e-11
9.209e-10
-1.08e-11
9.228e-10
-3.59e-12
9.209e-10
3.648e-12
9.154e-10
1.075e-11
9.062e-10
1.757e-11
8.938e-10
2.396e-11
8.782e-10
2.983e-11
8.599e-10
3.508e-11
8.392e-10
3.966e-11
8.164e-10
4.355e-11
7.919e-10
4.673e-11
7.661e-10
4.92e-11
7.393e-10
5.101e-11
7.118e-10
5.217e-11
6.841e-10
5.273e-11
6.563e-10
5.275e-11
6.287e-10
5.228e-11
6.015e-10
5.138e-11
5.75e-10
5.011e-11
5.493e-10
4.853e-11
5.246e-10
4.67e-11
5.009e-10
4.467e-11
4.783e-10
4.25e-11
4.569e-10
4.023e-11
4.367e-10
3.79e-11
4.177e-10
3.556e-11
3.999e-10
3.323e-11
3.834e-10
3.094e-11
3.68e-10
2.87e-11
3.538e-10
2.655e-11
3.407e-10
2.448e-11
3.286e-10
2.252e-11
3.175e-10
2.066e-11
3.073e-10
1.891e-11
2.98e-10
1.726e-11
2.895e-10
1.573e-11
2.818e-10
1.431e-11
2.747e-10
1.299e-11
2.684e-10
1.177e-11
2.626e-10
1.064e-11
2.574e-10
9.613e-12
2.527e-10
8.668e-12
2.484e-10
7.804e-12
2.446e-10
7.016e-12
2.412e-10
6.299e-12
2.381e-10
5.647e-12
2.353e-10
5.056e-12
2.329e-10
4.521e-12
2.306e-10
4.038e-12
2.287e-10
3.604e-12
2.269e-10
3.214e-12
2.253e-10
2.865e-12
2.239e-10
2.555e-12
2.226e-10
2.282e-12
2.215e-10
2.044e-12
2.205e-10
1.84e-12
2.196e-10
1.668e-12
2.187e-10
1.531e-12
2.179e-10
1.428e-12
2.172e-10
1.361e-12
2.165e-10
1.334e-12
2.158e-10
1.35e-12
2.15e-10
1.414e-12
2.143e-10
1.524e-12
2.136e-10
1.666e-12
1.781e-12
9.752e-10
1.589e-10
9.93e-10
3.038e-10
9.729e-10
3.376e-10
9.27e-10
3.188e-10
8.693e-10
2.809e-10
8.089e-10
2.397e-10
7.509e-10
2.016e-10
6.98e-10
1.688e-10
6.507e-10
1.413e-10
6.093e-10
1.186e-10
5.732e-10
9.986e-11
5.419e-10
8.432e-11
5.149e-10
7.136e-11
4.917e-10
6.045e-11
4.718e-10
5.117e-11
4.549e-10
4.321e-11
4.405e-10
3.63e-11
4.285e-10
3.024e-11
4.186e-10
2.487e-11
4.106e-10
2.005e-11
4.043e-10
1.567e-11
3.996e-10
1.165e-11
3.964e-10
7.897e-12
3.947e-10
4.359e-12
3.944e-10
9.777e-13
3.954e-10
-2.297e-12
3.977e-10
-5.506e-12
4.013e-10
-8.689e-12
4.063e-10
-1.188e-11
4.125e-10
-1.51e-11
4.202e-10
-1.838e-11
4.292e-10
-2.175e-11
4.396e-10
-2.522e-11
4.515e-10
-2.88e-11
4.649e-10
-3.25e-11
4.798e-10
-3.634e-11
4.964e-10
-4.031e-11
5.146e-10
-4.44e-11
5.346e-10
-4.861e-11
5.562e-10
-5.291e-11
5.796e-10
-5.727e-11
6.048e-10
-6.165e-11
6.317e-10
-6.601e-11
6.603e-10
-7.029e-11
6.906e-10
-7.441e-11
7.224e-10
-7.83e-11
7.555e-10
-8.186e-11
7.9e-10
-8.498e-11
8.254e-10
-8.757e-11
8.615e-10
-8.95e-11
8.98e-10
-9.066e-11
9.347e-10
-9.092e-11
9.709e-10
-9.017e-11
1.006e-09
-8.831e-11
1.041e-09
-8.526e-11
1.073e-09
-8.095e-11
1.103e-09
-7.536e-11
1.131e-09
-6.848e-11
1.155e-09
-6.037e-11
1.176e-09
-5.111e-11
1.192e-09
-4.085e-11
1.204e-09
-2.977e-11
1.211e-09
-1.811e-11
1.214e-09
-6.113e-12
1.211e-09
5.939e-12
1.204e-09
1.777e-11
1.193e-09
2.914e-11
1.177e-09
3.98e-11
1.157e-09
4.96e-11
1.134e-09
5.839e-11
1.108e-09
6.608e-11
1.078e-09
7.262e-11
1.047e-09
7.799e-11
1.014e-09
8.22e-11
9.799e-10
8.529e-11
9.448e-10
8.732e-11
9.092e-10
8.835e-11
8.735e-10
8.847e-11
8.38e-10
8.777e-11
8.03e-10
8.635e-11
7.688e-10
8.43e-11
7.356e-10
8.173e-11
7.036e-10
7.873e-11
6.728e-10
7.54e-11
6.435e-10
7.181e-11
6.157e-10
6.805e-11
5.894e-10
6.419e-11
5.647e-10
6.029e-11
5.415e-10
5.64e-11
5.199e-10
5.257e-11
4.997e-10
4.884e-11
4.811e-10
4.522e-11
4.638e-10
4.175e-11
4.479e-10
3.844e-11
4.332e-10
3.531e-11
4.198e-10
3.235e-11
4.075e-10
2.957e-11
3.962e-10
2.698e-11
3.859e-10
2.456e-11
3.766e-10
2.232e-11
3.681e-10
2.025e-11
3.604e-10
1.834e-11
3.535e-10
1.658e-11
3.472e-10
1.497e-11
3.415e-10
1.35e-11
3.363e-10
1.215e-11
3.317e-10
1.092e-11
3.276e-10
9.802e-12
3.238e-10
8.787e-12
3.205e-10
7.868e-12
3.175e-10
7.037e-12
3.148e-10
6.289e-12
3.124e-10
5.616e-12
3.102e-10
5.013e-12
3.083e-10
4.477e-12
3.066e-10
4.003e-12
3.051e-10
3.588e-12
3.037e-10
3.23e-12
3.024e-10
2.927e-12
3.013e-10
2.679e-12
3.002e-10
2.486e-12
2.992e-10
2.35e-12
2.983e-10
2.273e-12
2.974e-10
2.256e-12
2.965e-10
2.298e-12
2.956e-10
2.393e-12
2.948e-10
2.518e-12
2.614e-12
9.668e-10
1.296e-10
9.945e-10
2.761e-10
9.98e-10
3.341e-10
9.783e-10
3.385e-10
9.429e-10
3.163e-10
8.992e-10
2.834e-10
8.527e-10
2.482e-10
8.067e-10
2.147e-10
7.633e-10
1.847e-10
7.234e-10
1.585e-10
6.875e-10
1.358e-10
6.554e-10
1.164e-10
6.272e-10
9.964e-11
6.024e-10
8.522e-11
5.808e-10
7.272e-11
5.622e-10
6.18e-11
5.463e-10
5.219e-11
5.329e-10
4.366e-11
5.218e-10
3.602e-11
5.127e-10
2.909e-11
5.056e-10
2.276e-11
5.004e-10
1.69e-11
4.969e-10
1.14e-11
4.95e-10
6.198e-12
4.948e-10
1.203e-12
4.962e-10
-3.648e-12
4.991e-10
-8.413e-12
5.035e-10
-1.314e-11
5.095e-10
-1.789e-11
5.171e-10
-2.268e-11
5.263e-10
-2.757e-11
5.371e-10
-3.258e-11
5.497e-10
-3.773e-11
5.639e-10
-4.305e-11
5.8e-10
-4.855e-11
5.979e-10
-5.424e-11
6.177e-10
-6.011e-11
6.394e-10
-6.616e-11
6.632e-10
-7.236e-11
6.889e-10
-7.869e-11
7.168e-10
-8.511e-11
7.467e-10
-9.154e-11
7.786e-10
-9.794e-11
8.125e-10
-1.042e-10
8.483e-10
-1.102e-10
8.859e-10
-1.159e-10
9.251e-10
-1.211e-10
9.657e-10
-1.256e-10
1.007e-09
-1.293e-10
1.05e-09
-1.321e-10
1.093e-09
-1.337e-10
1.136e-09
-1.34e-10
1.179e-09
-1.329e-10
1.221e-09
-1.301e-10
1.261e-09
-1.255e-10
1.299e-09
-1.192e-10
1.335e-09
-1.109e-10
1.367e-09
-1.008e-10
1.396e-09
-8.886e-11
1.42e-09
-7.525e-11
1.439e-09
-6.018e-11
1.453e-09
-4.391e-11
1.462e-09
-2.677e-11
1.465e-09
-9.143e-12
1.462e-09
8.565e-12
1.454e-09
2.596e-11
1.441e-09
4.266e-11
1.422e-09
5.835e-11
1.399e-09
7.277e-11
1.371e-09
8.571e-11
1.341e-09
9.706e-11
1.306e-09
1.067e-10
1.27e-09
1.147e-10
1.231e-09
1.21e-10
1.191e-09
1.256e-10
1.149e-09
1.287e-10
1.107e-09
1.303e-10
1.065e-09
1.306e-10
1.023e-09
1.297e-10
9.82e-10
1.277e-10
9.416e-10
1.247e-10
9.023e-10
1.21e-10
8.643e-10
1.167e-10
8.279e-10
1.119e-10
7.931e-10
1.066e-10
7.6e-10
1.011e-10
7.287e-10
9.55e-11
6.992e-10
8.978e-11
6.715e-10
8.408e-11
6.456e-10
7.845e-11
6.215e-10
7.294e-11
5.991e-10
6.761e-11
5.784e-10
6.249e-11
5.592e-10
5.759e-11
5.416e-10
5.295e-11
5.254e-10
4.856e-11
5.105e-10
4.444e-11
4.969e-10
4.058e-11
4.845e-10
3.699e-11
4.732e-10
3.365e-11
4.629e-10
3.056e-11
4.535e-10
2.77e-11
4.45e-10
2.508e-11
4.373e-10
2.266e-11
4.304e-10
2.045e-11
4.241e-10
1.843e-11
4.184e-10
1.658e-11
4.133e-10
1.49e-11
4.087e-10
1.337e-11
4.046e-10
1.199e-11
4.009e-10
1.074e-11
3.976e-10
9.605e-12
3.946e-10
8.587e-12
3.92e-10
7.674e-12
3.896e-10
6.86e-12
3.874e-10
6.138e-12
3.855e-10
5.504e-12
3.838e-10
4.954e-12
3.823e-10
4.484e-12
3.808e-10
4.093e-12
3.795e-10
3.781e-12
3.783e-10
3.547e-12
3.772e-10
3.391e-12
3.762e-10
3.312e-12
3.752e-10
3.306e-12
3.742e-10
3.361e-12
3.733e-10
3.45e-12
3.521e-12
9.592e-10
1.079e-10
9.876e-10
2.477e-10
1.003e-09
3.188e-10
1.001e-09
3.409e-10
9.831e-10
3.337e-10
9.552e-10
3.112e-10
9.214e-10
2.82e-10
8.851e-10
2.511e-10
8.486e-10
2.212e-10
8.134e-10
1.936e-10
7.804e-10
1.688e-10
7.502e-10
1.466e-10
7.228e-10
1.27e-10
6.984e-10
1.097e-10
6.768e-10
9.433e-11
6.579e-10
8.069e-11
6.416e-10
6.851e-11
6.277e-10
5.755e-11
6.161e-10
4.761e-11
6.067e-10
3.853e-11
5.993e-10
3.015e-11
5.938e-10
2.234e-11
5.903e-10
1.497e-11
5.885e-10
7.958e-12
5.885e-10
1.197e-12
5.903e-10
-5.391e-12
5.937e-10
-1.188e-11
5.989e-10
-1.833e-11
6.058e-10
-2.481e-11
6.145e-10
-3.137e-11
6.25e-10
-3.805e-11
6.373e-10
-4.49e-11
6.515e-10
-5.194e-11
6.677e-10
-5.92e-11
6.858e-10
-6.671e-11
7.061e-10
-7.446e-11
7.284e-10
-8.246e-11
7.529e-10
-9.069e-11
7.797e-10
-9.912e-11
8.087e-10
-1.077e-10
8.4e-10
-1.164e-10
8.736e-10
-1.251e-10
9.095e-10
-1.338e-10
9.475e-10
-1.422e-10
9.876e-10
-1.504e-10
1.03e-09
-1.58e-10
1.074e-09
-1.65e-10
1.119e-09
-1.71e-10
1.166e-09
-1.761e-10
1.213e-09
-1.797e-10
1.262e-09
-1.819e-10
1.31e-09
-1.822e-10
1.358e-09
-1.806e-10
1.404e-09
-1.768e-10
1.449e-09
-1.706e-10
1.492e-09
-1.619e-10
1.532e-09
-1.507e-10
1.568e-09
-1.37e-10
1.6e-09
-1.208e-10
1.627e-09
-1.023e-10
1.649e-09
-8.187e-11
1.665e-09
-5.979e-11
1.674e-09
-3.652e-11
1.678e-09
-1.258e-11
1.675e-09
1.146e-11
1.666e-09
3.508e-11
1.651e-09
5.775e-11
1.63e-09
7.905e-11
1.604e-09
9.862e-11
1.574e-09
1.162e-10
1.539e-09
1.316e-10
1.501e-09
1.448e-10
1.46e-09
1.557e-10
1.417e-09
1.642e-10
1.372e-09
1.706e-10
1.326e-09
1.749e-10
1.279e-09
1.772e-10
1.232e-09
1.777e-10
1.185e-09
1.765e-10
1.138e-09
1.739e-10
1.093e-09
1.701e-10
1.049e-09
1.651e-10
1.006e-09
1.593e-10
9.655e-10
1.528e-10
9.263e-10
1.458e-10
8.891e-10
1.384e-10
8.538e-10
1.308e-10
8.205e-10
1.231e-10
7.893e-10
1.153e-10
7.6e-10
1.077e-10
7.328e-10
1.002e-10
7.074e-10
9.297e-11
6.839e-10
8.6e-11
6.621e-10
7.934e-11
6.421e-10
7.3e-11
6.236e-10
6.702e-11
6.067e-10
6.138e-11
5.912e-10
5.611e-11
5.77e-10
5.119e-11
5.64e-10
4.661e-11
5.522e-10
4.236e-11
5.415e-10
3.844e-11
5.317e-10
3.483e-11
5.229e-10
3.151e-11
5.148e-10
2.846e-11
5.076e-10
2.567e-11
5.011e-10
2.312e-11
4.952e-10
2.08e-11
4.899e-10
1.869e-11
4.851e-10
1.677e-11
4.808e-10
1.503e-11
4.769e-10
1.346e-11
4.735e-10
1.205e-11
4.704e-10
1.077e-11
4.676e-10
9.639e-12
4.651e-10
8.63e-12
4.629e-10
7.74e-12
4.609e-10
6.964e-12
4.59e-10
6.295e-12
4.574e-10
5.732e-12
4.559e-10
5.272e-12
4.545e-10
4.912e-12
4.533e-10
4.651e-12
4.521e-10
4.484e-12
4.51e-10
4.405e-12
4.5e-10
4.4e-12
4.49e-10
4.441e-12
4.484e-12
9.536e-10
9.179e-11
9.796e-10
2.217e-10
9.998e-10
2.985e-10
1.008e-09
3.328e-10
1.003e-09
3.382e-10
9.887e-10
3.259e-10
9.667e-10
3.039e-10
9.404e-10
2.775e-10
9.119e-10
2.497e-10
8.83e-10
2.226e-10
8.547e-10
1.97e-10
8.28e-10
1.734e-10
8.031e-10
1.518e-10
7.805e-10
1.323e-10
7.601e-10
1.147e-10
7.42e-10
9.876e-11
7.262e-10
8.428e-11
7.127e-10
7.109e-11
7.013e-10
5.898e-11
6.921e-10
4.781e-11
6.848e-10
3.74e-11
6.795e-10
2.762e-11
6.762e-10
1.835e-11
6.747e-10
9.46e-12
6.75e-10
8.564e-13
6.772e-10
-7.558e-12
6.812e-10
-1.587e-11
6.87e-10
-2.416e-11
6.947e-10
-3.249e-11
7.042e-10
-4.093e-11
7.157e-10
-4.954e-11
7.292e-10
-5.835e-11
7.446e-10
-6.743e-11
7.622e-10
-7.678e-11
7.82e-10
-8.644e-11
8.039e-10
-9.641e-11
8.281e-10
-1.067e-10
8.547e-10
-1.173e-10
8.837e-10
-1.281e-10
9.151e-10
-1.391e-10
9.489e-10
-1.503e-10
9.852e-10
-1.614e-10
1.024e-09
-1.725e-10
1.065e-09
-1.833e-10
1.108e-09
-1.937e-10
1.154e-09
-2.034e-10
1.201e-09
-2.123e-10
1.25e-09
-2.201e-10
1.3e-09
-2.264e-10
1.352e-09
-2.311e-10
1.404e-09
-2.338e-10
1.456e-09
-2.343e-10
1.507e-09
-2.321e-10
1.558e-09
-2.272e-10
1.606e-09
-2.193e-10
1.653e-09
-2.082e-10
1.696e-09
-1.938e-10
1.735e-09
-1.762e-10
1.77e-09
-1.554e-10
1.799e-09
-1.317e-10
1.823e-09
-1.054e-10
1.84e-09
-7.704e-11
1.85e-09
-4.712e-11
1.854e-09
-1.634e-11
1.851e-09
1.459e-11
1.841e-09
4.495e-11
1.825e-09
7.409e-11
1.802e-09
1.014e-10
1.774e-09
1.266e-10
1.742e-09
1.491e-10
1.704e-09
1.689e-10
1.663e-09
1.858e-10
1.619e-09
1.998e-10
1.572e-09
2.109e-10
1.524e-09
2.191e-10
1.474e-09
2.247e-10
1.424e-09
2.277e-10
1.373e-09
2.285e-10
1.322e-09
2.271e-10
1.272e-09
2.239e-10
1.223e-09
2.19e-10
1.176e-09
2.128e-10
1.13e-09
2.054e-10
1.085e-09
1.971e-10
1.043e-09
1.882e-10
1.003e-09
1.787e-10
9.644e-10
1.69e-10
9.283e-10
1.591e-10
8.944e-10
1.492e-10
8.626e-10
1.394e-10
8.33e-10
1.299e-10
8.054e-10
1.206e-10
7.798e-10
1.116e-10
7.561e-10
1.03e-10
7.342e-10
9.489e-11
7.141e-10
8.717e-11
6.955e-10
7.991e-11
6.785e-10
7.31e-11
6.63e-10
6.674e-11
6.488e-10
6.082e-11
6.358e-10
5.533e-11
6.24e-10
5.025e-11
6.133e-10
4.557e-11
6.035e-10
4.126e-11
5.947e-10
3.73e-11
5.867e-10
3.367e-11
5.794e-10
3.036e-11
5.729e-10
2.733e-11
5.67e-10
2.458e-11
5.617e-10
2.207e-11
5.569e-10
1.98e-11
5.526e-10
1.775e-11
5.488e-10
1.59e-11
5.453e-10
1.423e-11
5.422e-10
1.274e-11
5.394e-10
1.141e-11
5.369e-10
1.024e-11
5.347e-10
9.204e-12
5.327e-10
8.311e-12
5.309e-10
7.55e-12
5.292e-10
6.917e-12
5.277e-10
6.408e-12
5.264e-10
6.018e-12
5.251e-10
5.742e-12
5.239e-10
5.571e-12
5.229e-10
5.489e-12
5.218e-10
5.473e-12
5.485e-12
9.498e-10
7.948e-11
9.726e-10
1.99e-10
9.942e-10
2.77e-10
1.008e-09
3.189e-10
1.012e-09
3.339e-10
1.008e-09
3.307e-10
9.957e-10
3.159e-10
9.786e-10
2.946e-10
9.581e-10
2.702e-10
9.359e-10
2.447e-10
9.133e-10
2.197e-10
8.909e-10
1.957e-10
8.696e-10
1.732e-10
8.497e-10
1.523e-10
8.315e-10
1.329e-10
8.151e-10
1.152e-10
8.006e-10
9.877e-11
7.88e-10
8.362e-11
7.775e-10
6.957e-11
7.688e-10
5.645e-11
7.621e-10
4.412e-11
7.573e-10
3.245e-11
7.543e-10
2.13e-11
7.532e-10
1.055e-11
7.54e-10
9.945e-14
7.566e-10
-1.016e-11
7.611e-10
-2.034e-11
7.674e-10
-3.05e-11
7.757e-10
-4.074e-11
7.859e-10
-5.113e-11
7.981e-10
-6.173e-11
8.123e-10
-7.26e-11
8.287e-10
-8.378e-11
8.472e-10
-9.531e-11
8.68e-10
-1.072e-10
8.91e-10
-1.195e-10
9.165e-10
-1.322e-10
9.444e-10
-1.452e-10
9.748e-10
-1.585e-10
1.008e-09
-1.72e-10
1.043e-09
-1.857e-10
1.081e-09
-1.995e-10
1.122e-09
-2.13e-10
1.165e-09
-2.263e-10
1.21e-09
-2.391e-10
1.258e-09
-2.51e-10
1.307e-09
-2.619e-10
1.359e-09
-2.714e-10
1.412e-09
-2.792e-10
1.465e-09
-2.85e-10
1.52e-09
-2.883e-10
1.575e-09
-2.889e-10
1.629e-09
-2.863e-10
1.682e-09
-2.802e-10
1.733e-09
-2.705e-10
1.782e-09
-2.569e-10
1.827e-09
-2.392e-10
1.868e-09
-2.175e-10
1.905e-09
-1.92e-10
1.936e-09
-1.628e-10
1.961e-09
-1.304e-10
1.979e-09
-9.531e-11
1.99e-09
-5.834e-11
1.994e-09
-2.029e-11
1.991e-09
1.793e-11
1.981e-09
5.543e-11
1.963e-09
9.138e-11
1.94e-09
1.251e-10
1.91e-09
1.56e-10
1.876e-09
1.838e-10
1.836e-09
2.081e-10
1.793e-09
2.289e-10
1.747e-09
2.461e-10
1.698e-09
2.598e-10
1.647e-09
2.7e-10
1.595e-09
2.769e-10
1.542e-09
2.808e-10
1.489e-09
2.817e-10
1.436e-09
2.801e-10
1.383e-09
2.762e-10
1.332e-09
2.703e-10
1.282e-09
2.627e-10
1.234e-09
2.537e-10
1.187e-09
2.436e-10
1.143e-09
2.327e-10
1.1e-09
2.211e-10
1.06e-09
2.092e-10
1.022e-09
1.97e-10
9.865e-10
1.849e-10
9.531e-10
1.729e-10
9.219e-10
1.611e-10
8.928e-10
1.496e-10
8.658e-10
1.386e-10
8.408e-10
1.281e-10
8.177e-10
1.18e-10
7.964e-10
1.085e-10
7.768e-10
9.951e-11
7.588e-10
9.11e-11
7.423e-10
8.323e-11
7.272e-10
7.591e-11
7.134e-10
6.911e-11
7.009e-10
6.281e-11
6.894e-10
5.7e-11
6.79e-10
5.165e-11
6.696e-10
4.673e-11
6.611e-10
4.222e-11
6.533e-10
3.809e-11
6.463e-10
3.432e-11
6.4e-10
3.089e-11
6.343e-10
2.776e-11
6.292e-10
2.493e-11
6.246e-10
2.236e-11
6.205e-10
2.004e-11
6.167e-10
1.795e-11
6.134e-10
1.608e-11
6.104e-10
1.441e-11
6.077e-10
1.292e-11
6.053e-10
1.162e-11
6.031e-10
1.048e-11
6.012e-10
9.497e-12
5.994e-10
8.672e-12
5.979e-10
7.994e-12
5.964e-10
7.457e-12
5.951e-10
7.055e-12
5.939e-10
6.776e-12
5.928e-10
6.607e-12
5.917e-10
6.526e-12
6.504e-12
9.472e-10
6.978e-11
9.67e-10
1.792e-10
9.882e-10
2.557e-10
1.005e-09
3.02e-10
1.015e-09
3.239e-10
1.018e-09
3.28e-10
1.014e-09
3.199e-10
1.004e-09
3.039e-10
9.914e-10
2.833e-10
9.757e-10
2.604e-10
9.587e-10
2.367e-10
9.413e-10
2.132e-10
9.24e-10
1.904e-10
9.074e-10
1.688e-10
8.919e-10
1.484e-10
8.778e-10
1.293e-10
8.651e-10
1.114e-10
8.541e-10
9.467e-11
8.447e-10
7.893e-11
8.371e-10
6.409e-11
8.312e-10
5.001e-11
8.27e-10
3.657e-11
8.247e-10
2.365e-11
8.241e-10
1.112e-11
8.253e-10
-1.124e-12
8.284e-10
-1.32e-11
8.333e-10
-2.521e-11
8.4e-10
-3.725e-11
8.486e-10
-4.939e-11
8.593e-10
-6.174e-11
8.719e-10
-7.434e-11
8.865e-10
-8.728e-11
9.034e-10
-1.006e-10
9.224e-10
-1.143e-10
9.437e-10
-1.285e-10
9.673e-10
-1.431e-10
9.934e-10
-1.582e-10
1.022e-09
-1.737e-10
1.053e-09
-1.895e-10
1.087e-09
-2.057e-10
1.123e-09
-2.22e-10
1.162e-09
-2.383e-10
1.203e-09
-2.544e-10
1.247e-09
-2.702e-10
1.293e-09
-2.854e-10
1.342e-09
-2.996e-10
1.393e-09
-3.126e-10
1.445e-09
-3.24e-10
1.499e-09
-3.333e-10
1.554e-09
-3.402e-10
1.61e-09
-3.442e-10
1.666e-09
-3.448e-10
1.722e-09
-3.418e-10
1.776e-09
-3.347e-10
1.829e-09
-3.232e-10
1.879e-09
-3.07e-10
1.926e-09
-2.86e-10
1.969e-09
-2.603e-10
2.006e-09
-2.298e-10
2.039e-09
-1.949e-10
2.064e-09
-1.562e-10
2.083e-09
-1.142e-10
2.095e-09
-6.994e-11
2.099e-09
-2.432e-11
2.095e-09
2.148e-11
2.084e-09
6.637e-11
2.067e-09
1.093e-10
2.042e-09
1.496e-10
2.012e-09
1.864e-10
1.976e-09
2.195e-10
1.936e-09
2.484e-10
1.891e-09
2.732e-10
1.844e-09
2.937e-10
1.794e-09
3.099e-10
1.742e-09
3.221e-10
1.688e-09
3.304e-10
1.634e-09
3.35e-10
1.579e-09
3.362e-10
1.525e-09
3.344e-10
1.472e-09
3.298e-10
1.419e-09
3.228e-10
1.368e-09
3.139e-10
1.318e-09
3.032e-10
1.271e-09
2.912e-10
1.225e-09
2.782e-10
1.182e-09
2.645e-10
1.141e-09
2.503e-10
1.102e-09
2.359e-10
1.066e-09
2.214e-10
1.031e-09
2.071e-10
9.993e-10
1.931e-10
9.694e-10
1.795e-10
9.417e-10
1.663e-10
9.16e-10
1.537e-10
8.923e-10
1.417e-10
8.704e-10
1.304e-10
8.502e-10
1.197e-10
8.317e-10
1.096e-10
8.147e-10
1.002e-10
7.991e-10
9.147e-11
7.849e-10
8.333e-11
7.719e-10
7.579e-11
7.601e-10
6.882e-11
7.493e-10
6.24e-11
7.396e-10
5.65e-11
7.307e-10
5.108e-11
7.227e-10
4.612e-11
7.154e-10
4.159e-11
7.088e-10
3.746e-11
7.029e-10
3.369e-11
6.976e-10
3.027e-11
6.928e-10
2.717e-11
6.884e-10
2.437e-11
6.845e-10
2.184e-11
6.811e-10
1.957e-11
6.779e-10
1.754e-11
6.751e-10
1.573e-11
6.726e-10
1.413e-11
6.703e-10
1.273e-11
6.683e-10
1.152e-11
6.665e-10
1.049e-11
6.649e-10
9.631e-12
6.634e-10
8.934e-12
6.62e-10
8.392e-12
6.608e-10
7.996e-12
6.597e-10
7.731e-12
6.586e-10
7.581e-12
7.524e-12
9.454e-10
6.19e-11
9.626e-10
1.62e-10
9.827e-10
2.356e-10
1.001e-09
2.838e-10
1.014e-09
3.104e-10
1.022e-09
3.202e-10
1.024e-09
3.177e-10
1.022e-09
3.067e-10
1.015e-09
2.9e-10
1.005e-09
2.7e-10
9.937e-10
2.482e-10
9.81e-10
2.258e-10
9.68e-10
2.035e-10
9.55e-10
1.818e-10
9.426e-10
1.609e-10
9.31e-10
1.409e-10
9.205e-10
1.219e-10
9.113e-10
1.039e-10
9.035e-10
8.678e-11
8.971e-10
7.046e-11
8.923e-10
5.486e-11
8.89e-10
3.984e-11
8.873e-10
2.529e-11
8.874e-10
1.111e-11
8.891e-10
-2.829e-12
8.925e-10
-1.663e-11
8.977e-10
-3.041e-11
9.047e-10
-4.425e-11
9.135e-10
-5.825e-11
9.243e-10
-7.25e-11
9.37e-10
-8.708e-11
9.518e-10
-1.02e-10
9.687e-10
-1.175e-10
9.877e-10
-1.334e-10
1.009e-09
-1.498e-10
1.033e-09
-1.667e-10
1.059e-09
-1.842e-10
1.087e-09
-2.022e-10
1.118e-09
-2.205e-10
1.152e-09
-2.392e-10
1.188e-09
-2.581e-10
1.226e-09
-2.77e-10
1.268e-09
-2.958e-10
1.312e-09
-3.141e-10
1.358e-09
-3.317e-10
1.406e-09
-3.482e-10
1.457e-09
-3.633e-10
1.51e-09
-3.765e-10
1.564e-09
-3.874e-10
1.619e-09
-3.954e-10
1.675e-09
-4.001e-10
1.731e-09
-4.01e-10
1.787e-09
-3.976e-10
1.842e-09
-3.895e-10
1.895e-09
-3.762e-10
1.945e-09
-3.576e-10
1.993e-09
-3.333e-10
2.036e-09
-3.034e-10
2.074e-09
-2.681e-10
2.107e-09
-2.275e-10
2.133e-09
-1.824e-10
2.152e-09
-1.334e-10
2.164e-09
-8.164e-11
2.168e-09
-2.83e-11
2.164e-09
2.524e-11
2.153e-09
7.762e-11
2.134e-09
1.277e-10
2.109e-09
1.744e-10
2.079e-09
2.171e-10
2.043e-09
2.554e-10
2.002e-09
2.889e-10
1.958e-09
3.176e-10
1.91e-09
3.413e-10
1.86e-09
3.601e-10
1.808e-09
3.743e-10
1.754e-09
3.839e-10
1.7e-09
3.893e-10
1.645e-09
3.908e-10
1.591e-09
3.887e-10
1.538e-09
3.834e-10
1.485e-09
3.754e-10
1.434e-09
3.65e-10
1.384e-09
3.527e-10
1.337e-09
3.388e-10
1.291e-09
3.237e-10
1.248e-09
3.078e-10
1.207e-09
2.914e-10
1.168e-09
2.747e-10
1.131e-09
2.58e-10
1.097e-09
2.414e-10
1.065e-09
2.251e-10
1.035e-09
2.093e-10
1.007e-09
1.941e-10
9.817e-10
1.795e-10
9.58e-10
1.655e-10
9.36e-10
1.524e-10
9.158e-10
1.399e-10
8.971e-10
1.282e-10
8.801e-10
1.173e-10
8.644e-10
1.071e-10
8.501e-10
9.763e-11
8.371e-10
8.885e-11
8.251e-10
8.073e-11
8.143e-10
7.325e-11
8.044e-10
6.636e-11
7.955e-10
6.004e-11
7.874e-10
5.424e-11
7.8e-10
4.895e-11
7.734e-10
4.411e-11
7.673e-10
3.97e-11
7.619e-10
3.57e-11
7.57e-10
3.206e-11
7.526e-10
2.877e-11
7.487e-10
2.58e-11
7.451e-10
2.313e-11
7.419e-10
2.073e-11
7.391e-10
1.859e-11
7.365e-10
1.67e-11
7.342e-10
1.503e-11
7.322e-10
1.358e-11
7.303e-10
1.233e-11
7.287e-10
1.128e-11
7.272e-10
1.041e-11
7.259e-10
9.725e-12
7.247e-10
9.204e-12
7.236e-10
8.839e-12
7.225e-10
8.617e-12
8.523e-12
9.441e-10
5.533e-11
9.592e-10
1.469e-10
9.78e-10
2.168e-10
9.965e-10
2.653e-10
1.012e-09
2.948e-10
1.023e-09
3.089e-10
1.03e-09
3.11e-10
1.033e-09
3.043e-10
1.031e-09
2.914e-10
1.027e-09
2.743e-10
1.02e-09
2.548e-10
1.012e-09
2.339e-10
1.003e-09
2.125e-10
9.938e-10
1.911e-10
9.846e-10
1.701e-10
9.758e-10
1.497e-10
9.677e-10
1.3e-10
9.604e-10
1.111e-10
9.543e-10
9.293e-11
9.493e-10
7.543e-11
9.457e-10
5.853e-11
9.434e-10
4.214e-11
9.425e-10
2.616e-11
9.431e-10
1.049e-11
9.453e-10
-4.997e-12
9.49e-10
-2.039e-11
9.545e-10
-3.581e-11
9.616e-10
-5.135e-11
9.704e-10
-6.711e-11
9.811e-10
-8.318e-11
9.936e-10
-9.963e-11
1.008e-09
-1.165e-10
1.025e-09
-1.34e-10
1.043e-09
-1.52e-10
1.064e-09
-1.706e-10
1.087e-09
-1.898e-10
1.112e-09
-2.096e-10
1.14e-09
-2.299e-10
1.17e-09
-2.507e-10
1.203e-09
-2.719e-10
1.238e-09
-2.933e-10
1.276e-09
-3.148e-10
1.316e-09
-3.36e-10
1.359e-09
-3.568e-10
1.404e-09
-3.768e-10
1.452e-09
-3.956e-10
1.501e-09
-4.128e-10
1.553e-09
-4.279e-10
1.605e-09
-4.403e-10
1.66e-09
-4.495e-10
1.714e-09
-4.55e-10
1.77e-09
-4.561e-10
1.824e-09
-4.524e-10
1.878e-09
-4.433e-10
1.93e-09
-4.284e-10
1.98e-09
-4.074e-10
2.027e-09
-3.799e-10
2.069e-09
-3.461e-10
2.107e-09
-3.059e-10
2.14e-09
-2.598e-10
2.166e-09
-2.083e-10
2.184e-09
-1.524e-10
2.196e-09
-9.316e-11
2.2e-09
-3.208e-11
2.196e-09
2.919e-11
2.184e-09
8.902e-11
2.166e-09
1.46e-10
2.141e-09
1.991e-10
2.111e-09
2.475e-10
2.076e-09
2.908e-10
2.036e-09
3.287e-10
1.993e-09
3.61e-10
1.946e-09
3.879e-10
1.897e-09
4.092e-10
1.846e-09
4.253e-10
1.793e-09
4.363e-10
1.74e-09
4.424e-10
1.687e-09
4.442e-10
1.634e-09
4.418e-10
1.581e-09
4.359e-10
1.53e-09
4.268e-10
1.48e-09
4.151e-10
1.431e-09
4.011e-10
1.385e-09
3.854e-10
1.34e-09
3.683e-10
1.298e-09
3.502e-10
1.258e-09
3.316e-10
1.22e-09
3.126e-10
1.184e-09
2.936e-10
1.151e-09
2.748e-10
1.119e-09
2.564e-10
1.09e-09
2.385e-10
1.063e-09
2.212e-10
1.038e-09
2.046e-10
1.015e-09
1.888e-10
9.932e-10
1.738e-10
9.734e-10
1.597e-10
9.552e-10
1.465e-10
9.384e-10
1.34e-10
9.231e-10
1.224e-10
9.091e-10
1.117e-10
8.962e-10
1.017e-10
8.845e-10
9.244e-11
8.739e-10
8.391e-11
8.642e-10
7.607e-11
8.553e-10
6.886e-11
8.473e-10
6.225e-11
8.401e-10
5.62e-11
8.335e-10
5.068e-11
8.276e-10
4.564e-11
8.222e-10
4.106e-11
8.174e-10
3.69e-11
8.13e-10
3.313e-11
8.091e-10
2.972e-11
8.056e-10
2.665e-11
8.024e-10
2.389e-11
7.996e-10
2.142e-11
7.97e-10
1.923e-11
7.948e-10
1.73e-11
7.928e-10
1.56e-11
7.909e-10
1.414e-11
7.893e-10
1.29e-11
7.879e-10
1.186e-11
7.866e-10
1.102e-11
7.854e-10
1.038e-11
7.843e-10
9.908e-12
7.833e-10
9.613e-12
9.483e-12
9.431e-10
4.972e-11
9.565e-10
1.335e-10
9.74e-10
1.993e-10
9.923e-10
2.47e-10
1.009e-09
2.781e-10
1.023e-09
2.952e-10
1.033e-09
3.009e-10
1.039e-09
2.979e-10
1.042e-09
2.884e-10
1.042e-09
2.742e-10
1.04e-09
2.57e-10
1.036e-09
2.378e-10
1.031e-09
2.176e-10
1.025e-09
1.969e-10
1.019e-09
1.762e-10
1.013e-09
1.558e-10
1.007e-09
1.357e-10
1.002e-09
1.163e-10
9.977e-10
9.731e-11
9.943e-10
7.89e-11
9.918e-10
6.097e-11
9.905e-10
4.345e-11
9.904e-10
2.625e-11
9.916e-10
9.274e-12
9.942e-10
-7.573e-12
9.982e-10
-2.44e-11
1.004e-09
-4.131e-11
1.011e-09
-5.84e-11
1.019e-09
-7.577e-11
1.03e-09
-9.351e-11
1.042e-09
-1.117e-10
1.056e-09
-1.304e-10
1.072e-09
-1.498e-10
1.089e-09
-1.697e-10
1.109e-09
-1.904e-10
1.131e-09
-2.117e-10
1.155e-09
-2.337e-10
1.181e-09
-2.563e-10
1.21e-09
-2.794e-10
1.241e-09
-3.03e-10
1.275e-09
-3.268e-10
1.311e-09
-3.507e-10
1.349e-09
-3.744e-10
1.39e-09
-3.976e-10
1.433e-09
-4.199e-10
1.478e-09
-4.409e-10
1.525e-09
-4.601e-10
1.574e-09
-4.769e-10
1.625e-09
-4.909e-10
1.677e-09
-5.013e-10
1.729e-09
-5.075e-10
1.782e-09
-5.089e-10
1.834e-09
-5.049e-10
1.886e-09
-4.949e-10
1.936e-09