/*--------------------------------*- C++ -*----------------------------------*\
  =========                 |
  \\      /  F ield         | OpenFOAM: The Open Source CFD Toolbox
   \\    /   O peration     | Website:  https://openfoam.org
    \\  /    A nd           | Version:  7
     \\/     M anipulation  |
\*---------------------------------------------------------------------------*/
FoamFile
{
    version     2.0;
    format      ascii;
    class       volVectorField;
    location    "659.999473410930023";
    object      U;
}
// * * * * * * * * * * * * * * * * * * * * * * * * * * * * * * * * * * * * * //

dimensions      [0 1 -1 0 0 0 0];

internalField   nonuniform List<vector> 
4096
(
(0.001039 0.0001611 0)
(0.0007463 0.0001314 0)
(0.0005302 8.474e-05 0)
(0.0003919 5.358e-05 0)
(0.0003036 3.465e-05 0)
(0.0002457 2.327e-05 0)
(0.0002061 1.631e-05 0)
(0.0001779 1.192e-05 0)
(0.000157 9.027e-06 0)
(0.0001409 7.034e-06 0)
(0.0001283 5.601e-06 0)
(0.0001181 4.534e-06 0)
(0.0001099 3.713e-06 0)
(0.0001031 3.065e-06 0)
(9.749e-05 2.542e-06 0)
(9.284e-05 2.111e-06 0)
(8.898e-05 1.75e-06 0)
(8.579e-05 1.443e-06 0)
(8.317e-05 1.176e-06 0)
(8.105e-05 9.416e-07 0)
(7.938e-05 7.322e-07 0)
(7.81e-05 5.424e-07 0)
(7.719e-05 3.675e-07 0)
(7.662e-05 2.039e-07 0)
(7.637e-05 4.842e-08 0)
(7.642e-05 -1.015e-07 0)
(7.677e-05 -2.481e-07 0)
(7.741e-05 -3.935e-07 0)
(7.835e-05 -5.394e-07 0)
(7.957e-05 -6.872e-07 0)
(8.11e-05 -8.384e-07 0)
(8.293e-05 -9.942e-07 0)
(8.508e-05 -1.155e-06 0)
(8.756e-05 -1.323e-06 0)
(9.038e-05 -1.498e-06 0)
(9.356e-05 -1.68e-06 0)
(9.711e-05 -1.87e-06 0)
(0.000101 -2.067e-06 0)
(0.0001054 -2.271e-06 0)
(0.0001101 -2.481e-06 0)
(0.0001153 -2.696e-06 0)
(0.0001209 -2.914e-06 0)
(0.000127 -3.133e-06 0)
(0.0001334 -3.35e-06 0)
(0.0001404 -3.561e-06 0)
(0.0001477 -3.763e-06 0)
(0.0001554 -3.951e-06 0)
(0.0001635 -4.119e-06 0)
(0.0001718 -4.262e-06 0)
(0.0001805 -4.374e-06 0)
(0.0001893 -4.447e-06 0)
(0.0001982 -4.477e-06 0)
(0.0002072 -4.456e-06 0)
(0.000216 -4.378e-06 0)
(0.0002246 -4.24e-06 0)
(0.0002329 -4.036e-06 0)
(0.0002407 -3.766e-06 0)
(0.0002479 -3.428e-06 0)
(0.0002543 -3.025e-06 0)
(0.0002599 -2.561e-06 0)
(0.0002645 -2.044e-06 0)
(0.0002681 -1.484e-06 0)
(0.0002704 -8.922e-07 0)
(0.0002716 -2.832e-07 0)
(0.0002716 3.28e-07 0)
(0.0002703 9.268e-07 0)
(0.0002679 1.499e-06 0)
(0.0002644 2.034e-06 0)
(0.0002598 2.521e-06 0)
(0.0002543 2.954e-06 0)
(0.000248 3.329e-06 0)
(0.0002411 3.642e-06 0)
(0.0002335 3.895e-06 0)
(0.0002255 4.088e-06 0)
(0.0002172 4.224e-06 0)
(0.0002087 4.306e-06 0)
(0.0002001 4.338e-06 0)
(0.0001914 4.325e-06 0)
(0.0001828 4.271e-06 0)
(0.0001744 4.183e-06 0)
(0.0001661 4.066e-06 0)
(0.0001581 3.924e-06 0)
(0.0001504 3.763e-06 0)
(0.0001431 3.587e-06 0)
(0.0001361 3.4e-06 0)
(0.0001295 3.208e-06 0)
(0.0001233 3.012e-06 0)
(0.0001174 2.816e-06 0)
(0.000112 2.622e-06 0)
(0.0001069 2.433e-06 0)
(0.0001023 2.25e-06 0)
(9.793e-05 2.074e-06 0)
(9.395e-05 1.907e-06 0)
(9.03e-05 1.748e-06 0)
(8.695e-05 1.598e-06 0)
(8.39e-05 1.458e-06 0)
(8.111e-05 1.327e-06 0)
(7.858e-05 1.205e-06 0)
(7.628e-05 1.092e-06 0)
(7.42e-05 9.884e-07 0)
(7.232e-05 8.927e-07 0)
(7.062e-05 8.049e-07 0)
(6.909e-05 7.245e-07 0)
(6.772e-05 6.511e-07 0)
(6.648e-05 5.842e-07 0)
(6.537e-05 5.234e-07 0)
(6.438e-05 4.682e-07 0)
(6.35e-05 4.183e-07 0)
(6.271e-05 3.731e-07 0)
(6.2e-05 3.323e-07 0)
(6.137e-05 2.956e-07 0)
(6.081e-05 2.627e-07 0)
(6.032e-05 2.332e-07 0)
(5.988e-05 2.07e-07 0)
(5.949e-05 1.838e-07 0)
(5.914e-05 1.634e-07 0)
(5.883e-05 1.457e-07 0)
(5.855e-05 1.307e-07 0)
(5.83e-05 1.183e-07 0)
(5.808e-05 1.088e-07 0)
(5.787e-05 1.022e-07 0)
(5.767e-05 9.912e-08 0)
(5.747e-05 1.004e-07 0)
(5.726e-05 1.077e-07 0)
(5.703e-05 1.24e-07 0)
(5.675e-05 1.547e-07 0)
(5.639e-05 2.056e-07 0)
(5.591e-05 2.671e-07 0)
(0.001209 0.0003128 0)
(0.001154 0.0003282 0)
(0.00101 0.000248 0)
(0.0008613 0.000177 0)
(0.0007345 0.0001262 0)
(0.0006328 9.138e-05 0)
(0.0005528 6.78e-05 0)
(0.0004898 5.162e-05 0)
(0.0004399 4.025e-05 0)
(0.0003997 3.201e-05 0)
(0.0003671 2.587e-05 0)
(0.0003403 2.116e-05 0)
(0.0003182 1.747e-05 0)
(0.0002998 1.451e-05 0)
(0.0002844 1.209e-05 0)
(0.0002715 1.008e-05 0)
(0.0002608 8.386e-06 0)
(0.0002518 6.929e-06 0)
(0.0002445 5.661e-06 0)
(0.0002385 4.542e-06 0)
(0.0002338 3.538e-06 0)
(0.0002302 2.626e-06 0)
(0.0002276 1.783e-06 0)
(0.0002259 9.942e-07 0)
(0.0002252 2.437e-07 0)
(0.0002253 -4.803e-07 0)
(0.0002263 -1.188e-06 0)
(0.0002281 -1.89e-06 0)
(0.0002307 -2.593e-06 0)
(0.0002342 -3.304e-06 0)
(0.0002385 -4.031e-06 0)
(0.0002436 -4.778e-06 0)
(0.0002496 -5.549e-06 0)
(0.0002566 -6.35e-06 0)
(0.0002645 -7.181e-06 0)
(0.0002733 -8.046e-06 0)
(0.0002832 -8.945e-06 0)
(0.0002942 -9.875e-06 0)
(0.0003062 -1.084e-05 0)
(0.0003194 -1.182e-05 0)
(0.0003337 -1.283e-05 0)
(0.0003491 -1.385e-05 0)
(0.0003657 -1.487e-05 0)
(0.0003835 -1.587e-05 0)
(0.0004024 -1.685e-05 0)
(0.0004224 -1.777e-05 0)
(0.0004434 -1.863e-05 0)
(0.0004652 -1.939e-05 0)
(0.0004879 -2.003e-05 0)
(0.0005112 -2.053e-05 0)
(0.0005349 -2.084e-05 0)
(0.0005589 -2.095e-05 0)
(0.0005828 -2.082e-05 0)
(0.0006064 -2.043e-05 0)
(0.0006293 -1.976e-05 0)
(0.0006513 -1.879e-05 0)
(0.000672 -1.751e-05 0)
(0.000691 -1.593e-05 0)
(0.0007081 -1.405e-05 0)
(0.0007229 -1.189e-05 0)
(0.0007351 -9.494e-06 0)
(0.0007444 -6.9e-06 0)
(0.0007507 -4.165e-06 0)
(0.0007539 -1.351e-06 0)
(0.0007538 1.474e-06 0)
(0.0007506 4.245e-06 0)
(0.0007443 6.899e-06 0)
(0.0007351 9.383e-06 0)
(0.0007232 1.165e-05 0)
(0.0007088 1.368e-05 0)
(0.0006923 1.544e-05 0)
(0.0006738 1.692e-05 0)
(0.0006539 1.813e-05 0)
(0.0006326 1.906e-05 0)
(0.0006105 1.972e-05 0)
(0.0005877 2.014e-05 0)
(0.0005645 2.032e-05 0)
(0.0005412 2.029e-05 0)
(0.0005181 2.008e-05 0)
(0.0004952 1.969e-05 0)
(0.0004728 1.917e-05 0)
(0.0004511 1.853e-05 0)
(0.0004301 1.78e-05 0)
(0.00041 1.7e-05 0)
(0.0003909 1.614e-05 0)
(0.0003727 1.525e-05 0)
(0.0003555 1.435e-05 0)
(0.0003394 1.343e-05 0)
(0.0003243 1.253e-05 0)
(0.0003102 1.165e-05 0)
(0.0002972 1.079e-05 0)
(0.0002851 9.959e-06 0)
(0.0002739 9.169e-06 0)
(0.0002636 8.418e-06 0)
(0.0002542 7.709e-06 0)
(0.0002456 7.043e-06 0)
(0.0002377 6.42e-06 0)
(0.0002305 5.84e-06 0)
(0.0002239 5.302e-06 0)
(0.000218 4.804e-06 0)
(0.0002126 4.346e-06 0)
(0.0002077 3.924e-06 0)
(0.0002033 3.538e-06 0)
(0.0001993 3.184e-06 0)
(0.0001958 2.862e-06 0)
(0.0001926 2.568e-06 0)
(0.0001897 2.301e-06 0)
(0.0001871 2.059e-06 0)
(0.0001848 1.84e-06 0)
(0.0001827 1.642e-06 0)
(0.0001808 1.463e-06 0)
(0.0001792 1.303e-06 0)
(0.0001777 1.159e-06 0)
(0.0001764 1.031e-06 0)
(0.0001752 9.175e-07 0)
(0.0001742 8.176e-07 0)
(0.0001733 7.308e-07 0)
(0.0001724 6.568e-07 0)
(0.0001717 5.956e-07 0)
(0.000171 5.474e-07 0)
(0.0001704 5.131e-07 0)
(0.0001698 4.942e-07 0)
(0.0001692 4.935e-07 0)
(0.0001686 5.152e-07 0)
(0.000168 5.667e-07 0)
(0.0001673 6.576e-07 0)
(0.0001666 7.93e-07 0)
(0.0001658 9.344e-07 0)
(0.001226 0.0002775 0)
(0.001243 0.0004027 0)
(0.001194 0.0003664 0)
(0.001102 0.0002981 0)
(0.0009999 0.0002344 0)
(0.000902 0.0001828 0)
(0.0008149 0.0001435 0)
(0.00074 0.0001138 0)
(0.0006766 9.144e-05 0)
(0.0006232 7.434e-05 0)
(0.0005783 6.107e-05 0)
(0.0005405 5.059e-05 0)
(0.0005085 4.216e-05 0)
(0.0004815 3.528e-05 0)
(0.0004586 2.958e-05 0)
(0.0004393 2.478e-05 0)
(0.000423 2.068e-05 0)
(0.0004095 1.714e-05 0)
(0.0003982 1.404e-05 0)
(0.0003891 1.129e-05 0)
(0.0003818 8.809e-06 0)
(0.0003762 6.545e-06 0)
(0.0003722 4.448e-06 0)
(0.0003697 2.48e-06 0)
(0.0003686 6.044e-07 0)
(0.0003688 -1.206e-06 0)
(0.0003704 -2.978e-06 0)
(0.0003732 -4.733e-06 0)
(0.0003773 -6.491e-06 0)
(0.0003827 -8.269e-06 0)
(0.0003895 -1.008e-05 0)
(0.0003975 -1.194e-05 0)
(0.000407 -1.386e-05 0)
(0.0004179 -1.585e-05 0)
(0.0004302 -1.791e-05 0)
(0.0004441 -2.005e-05 0)
(0.0004595 -2.227e-05 0)
(0.0004766 -2.456e-05 0)
(0.0004953 -2.692e-05 0)
(0.0005157 -2.934e-05 0)
(0.0005379 -3.18e-05 0)
(0.0005619 -3.428e-05 0)
(0.0005876 -3.676e-05 0)
(0.000615 -3.919e-05 0)
(0.0006441 -4.155e-05 0)
(0.0006749 -4.378e-05 0)
(0.0007071 -4.583e-05 0)
(0.0007407 -4.765e-05 0)
(0.0007754 -4.916e-05 0)
(0.000811 -5.031e-05 0)
(0.0008472 -5.102e-05 0)
(0.0008838 -5.122e-05 0)
(0.0009202 -5.085e-05 0)
(0.000956 -4.985e-05 0)
(0.0009909 -4.817e-05 0)
(0.001024 -4.577e-05 0)
(0.001056 -4.263e-05 0)
(0.001085 -3.875e-05 0)
(0.00111 -3.416e-05 0)
(0.001133 -2.892e-05 0)
(0.001151 -2.31e-05 0)
(0.001165 -1.681e-05 0)
(0.001175 -1.018e-05 0)
(0.00118 -3.366e-06 0)
(0.00118 3.481e-06 0)
(0.001175 1.02e-05 0)
(0.001166 1.664e-05 0)
(0.001152 2.268e-05 0)
(0.001134 2.822e-05 0)
(0.001112 3.318e-05 0)
(0.001087 3.75e-05 0)
(0.00106 4.115e-05 0)
(0.001029 4.414e-05 0)
(0.0009971 4.646e-05 0)
(0.0009634 4.814e-05 0)
(0.0009287 4.922e-05 0)
(0.0008934 4.973e-05 0)
(0.0008578 4.973e-05 0)
(0.0008224 4.927e-05 0)
(0.0007873 4.84e-05 0)
(0.000753 4.718e-05 0)
(0.0007196 4.567e-05 0)
(0.0006873 4.393e-05 0)
(0.0006563 4.2e-05 0)
(0.0006266 3.994e-05 0)
(0.0005985 3.779e-05 0)
(0.0005719 3.559e-05 0)
(0.0005468 3.338e-05 0)
(0.0005233 3.118e-05 0)
(0.0005013 2.901e-05 0)
(0.0004809 2.691e-05 0)
(0.000462 2.488e-05 0)
(0.0004445 2.293e-05 0)
(0.0004283 2.108e-05 0)
(0.0004135 1.933e-05 0)
(0.0003998 1.768e-05 0)
(0.0003874 1.614e-05 0)
(0.000376 1.47e-05 0)
(0.0003656 1.336e-05 0)
(0.0003562 1.213e-05 0)
(0.0003476 1.098e-05 0)
(0.0003398 9.931e-06 0)
(0.0003328 8.965e-06 0)
(0.0003264 8.081e-06 0)
(0.0003207 7.272e-06 0)
(0.0003155 6.535e-06 0)
(0.0003109 5.864e-06 0)
(0.0003067 5.255e-06 0)
(0.000303 4.703e-06 0)
(0.0002996 4.203e-06 0)
(0.0002966 3.752e-06 0)
(0.0002939 3.347e-06 0)
(0.0002916 2.983e-06 0)
(0.0002894 2.658e-06 0)
(0.0002875 2.369e-06 0)
(0.0002858 2.115e-06 0)
(0.0002843 1.893e-06 0)
(0.0002829 1.703e-06 0)
(0.0002816 1.545e-06 0)
(0.0002805 1.418e-06 0)
(0.0002795 1.325e-06 0)
(0.0002785 1.266e-06 0)
(0.0002776 1.247e-06 0)
(0.0002766 1.272e-06 0)
(0.0002757 1.347e-06 0)
(0.0002748 1.478e-06 0)
(0.0002738 1.653e-06 0)
(0.0002729 1.807e-06 0)
(0.001224 0.0002275 0)
(0.00126 0.0004003 0)
(0.001258 0.0004192 0)
(0.001216 0.0003787 0)
(0.00115 0.0003226 0)
(0.001074 0.0002681 0)
(0.0009983 0.000221 0)
(0.0009273 0.0001821 0)
(0.0008632 0.0001506 0)
(0.0008064 0.0001253 0)
(0.0007568 0.0001047 0)
(0.0007137 8.792e-05 0)
(0.0006764 7.407e-05 0)
(0.0006443 6.252e-05 0)
(0.0006167 5.277e-05 0)
(0.0005931 4.446e-05 0)
(0.0005731 3.728e-05 0)
(0.0005562 3.101e-05 0)
(0.0005422 2.547e-05 0)
(0.0005307 2.052e-05 0)
(0.0005215 1.603e-05 0)
(0.0005145 1.191e-05 0)
(0.0005095 8.086e-06 0)
(0.0005063 4.479e-06 0)
(0.000505 1.035e-06 0)
(0.0005054 -2.297e-06 0)
(0.0005076 -5.562e-06 0)
(0.0005114 -8.798e-06 0)
(0.0005169 -1.204e-05 0)
(0.000524 -1.532e-05 0)
(0.0005329 -1.865e-05 0)
(0.0005436 -2.208e-05 0)
(0.000556 -2.561e-05 0)
(0.0005703 -2.925e-05 0)
(0.0005864 -3.303e-05 0)
(0.0006046 -3.694e-05 0)
(0.0006248 -4.099e-05 0)
(0.0006471 -4.517e-05 0)
(0.0006715 -4.946e-05 0)
(0.0006981 -5.386e-05 0)
(0.000727 -5.832e-05 0)
(0.000758 -6.281e-05 0)
(0.0007914 -6.727e-05 0)
(0.0008269 -7.166e-05 0)
(0.0008646 -7.589e-05 0)
(0.0009043 -7.988e-05 0)
(0.0009459 -8.354e-05 0)
(0.0009891 -8.676e-05 0)
(0.001034 -8.944e-05 0)
(0.00108 -9.144e-05 0)
(0.001126 -9.265e-05 0)
(0.001173 -9.294e-05 0)
(0.00122 -9.22e-05 0)
(0.001266 -9.032e-05 0)
(0.00131 -8.722e-05 0)
(0.001353 -8.283e-05 0)
(0.001393 -7.711e-05 0)
(0.00143 -7.008e-05 0)
(0.001463 -6.178e-05 0)
(0.001492 -5.23e-05 0)
(0.001515 -4.179e-05 0)
(0.001533 -3.045e-05 0)
(0.001546 -1.85e-05 0)
(0.001552 -6.21e-06 0)
(0.001552 6.135e-06 0)
(0.001546 1.826e-05 0)
(0.001534 2.989e-05 0)
(0.001517 4.081e-05 0)
(0.001494 5.083e-05 0)
(0.001466 5.982e-05 0)
(0.001435 6.767e-05 0)
(0.001399 7.435e-05 0)
(0.00136 7.982e-05 0)
(0.001319 8.41e-05 0)
(0.001276 8.723e-05 0)
(0.001232 8.927e-05 0)
(0.001187 9.03e-05 0)
(0.001141 9.039e-05 0)
(0.001095 8.964e-05 0)
(0.00105 8.815e-05 0)
(0.001006 8.603e-05 0)
(0.0009628 8.337e-05 0)
(0.0009211 8.028e-05 0)
(0.0008809 7.684e-05 0)
(0.0008425 7.316e-05 0)
(0.0008059 6.93e-05 0)
(0.0007713 6.534e-05 0)
(0.0007386 6.134e-05 0)
(0.0007079 5.737e-05 0)
(0.0006793 5.345e-05 0)
(0.0006525 4.963e-05 0)
(0.0006277 4.593e-05 0)
(0.0006047 4.239e-05 0)
(0.0005835 3.902e-05 0)
(0.0005639 3.582e-05 0)
(0.0005459 3.28e-05 0)
(0.0005294 2.998e-05 0)
(0.0005143 2.733e-05 0)
(0.0005006 2.488e-05 0)
(0.000488 2.26e-05 0)
(0.0004766 2.049e-05 0)
(0.0004663 1.855e-05 0)
(0.0004569 1.677e-05 0)
(0.0004484 1.513e-05 0)
(0.0004407 1.363e-05 0)
(0.0004338 1.226e-05 0)
(0.0004275 1.102e-05 0)
(0.0004219 9.887e-06 0)
(0.0004169 8.86e-06 0)
(0.0004124 7.929e-06 0)
(0.0004083 7.089e-06 0)
(0.0004047 6.331e-06 0)
(0.0004014 5.651e-06 0)
(0.0003985 5.042e-06 0)
(0.0003959 4.501e-06 0)
(0.0003935 4.023e-06 0)
(0.0003915 3.604e-06 0)
(0.0003896 3.244e-06 0)
(0.0003879 2.941e-06 0)
(0.0003863 2.694e-06 0)
(0.0003849 2.505e-06 0)
(0.0003836 2.375e-06 0)
(0.0003824 2.309e-06 0)
(0.0003812 2.308e-06 0)
(0.0003801 2.376e-06 0)
(0.0003789 2.507e-06 0)
(0.0003778 2.678e-06 0)
(0.0003768 2.813e-06 0)
(0.001219 0.0001847 0)
(0.001255 0.0003712 0)
(0.001275 0.0004299 0)
(0.001265 0.0004207 0)
(0.00123 0.0003822 0)
(0.001179 0.0003348 0)
(0.001121 0.0002879 0)
(0.001062 0.0002455 0)
(0.001005 0.0002086 0)
(0.0009515 0.0001773 0)
(0.000903 0.0001508 0)
(0.0008595 0.0001284 0)
(0.0008209 0.0001094 0)
(0.0007869 9.323e-05 0)
(0.0007573 7.929e-05 0)
(0.0007316 6.721e-05 0)
(0.0007095 5.663e-05 0)
(0.0006907 4.73e-05 0)
(0.000675 3.897e-05 0)
(0.0006621 3.145e-05 0)
(0.0006518 2.459e-05 0)
(0.0006439 1.827e-05 0)
(0.0006383 1.235e-05 0)
(0.0006348 6.757e-06 0)
(0.0006335 1.395e-06 0)
(0.0006342 -3.805e-06 0)
(0.000637 -8.908e-06 0)
(0.0006417 -1.397e-05 0)
(0.0006484 -1.905e-05 0)
(0.0006571 -2.418e-05 0)
(0.0006678 -2.941e-05 0)
(0.0006806 -3.477e-05 0)
(0.0006956 -4.029e-05 0)
(0.0007127 -4.598e-05 0)
(0.0007321 -5.187e-05 0)
(0.0007538 -5.797e-05 0)
(0.0007779 -6.427e-05 0)
(0.0008045 -7.076e-05 0)
(0.0008336 -7.742e-05 0)
(0.0008653 -8.422e-05 0)
(0.0008997 -9.112e-05 0)
(0.0009366 -9.805e-05 0)
(0.0009762 -0.0001049 0)
(0.001018 -0.0001117 0)
(0.001063 -0.0001182 0)
(0.00111 -0.0001243 0)
(0.001159 -0.0001299 0)
(0.00121 -0.0001348 0)
(0.001263 -0.0001388 0)
(0.001317 -0.0001418 0)
(0.001372 -0.0001436 0)
(0.001427 -0.000144 0)
(0.001482 -0.0001427 0)
(0.001536 -0.0001398 0)
(0.001588 -0.0001349 0)
(0.001639 -0.0001281 0)
(0.001686 -0.0001192 0)
(0.001729 -0.0001083 0)
(0.001768 -9.551e-05 0)
(0.001802 -8.087e-05 0)
(0.00183 -6.466e-05 0)
(0.001851 -4.715e-05 0)
(0.001866 -2.872e-05 0)
(0.001873 -9.764e-06 0)
(0.001873 9.282e-06 0)
(0.001866 2.799e-05 0)
(0.001853 4.595e-05 0)
(0.001832 6.282e-05 0)
(0.001805 7.831e-05 0)
(0.001773 9.223e-05 0)
(0.001736 0.0001044 0)
(0.001694 0.0001148 0)
(0.001649 0.0001233 0)
(0.0016 0.00013 0)
(0.00155 0.000135 0)
(0.001498 0.0001382 0)
(0.001444 0.0001399 0)
(0.00139 0.0001402 0)
(0.001337 0.0001392 0)
(0.001283 0.000137 0)
(0.001231 0.0001338 0)
(0.00118 0.0001298 0)
(0.001131 0.0001251 0)
(0.001083 0.0001198 0)
(0.001037 0.0001142 0)
(0.0009939 0.0001083 0)
(0.0009527 0.0001022 0)
(0.0009138 9.605e-05 0)
(0.0008772 8.991e-05 0)
(0.0008429 8.385e-05 0)
(0.000811 7.794e-05 0)
(0.0007812 7.221e-05 0)
(0.0007536 6.671e-05 0)
(0.0007281 6.146e-05 0)
(0.0007045 5.648e-05 0)
(0.0006829 5.178e-05 0)
(0.000663 4.737e-05 0)
(0.0006448 4.324e-05 0)
(0.0006281 3.939e-05 0)
(0.0006129 3.582e-05 0)
(0.0005991 3.252e-05 0)
(0.0005865 2.947e-05 0)
(0.000575 2.666e-05 0)
(0.0005647 2.408e-05 0)
(0.0005553 2.172e-05 0)
(0.0005468 1.957e-05 0)
(0.0005392 1.76e-05 0)
(0.0005323 1.581e-05 0)
(0.0005261 1.418e-05 0)
(0.0005205 1.271e-05 0)
(0.0005155 1.137e-05 0)
(0.000511 1.017e-05 0)
(0.000507 9.09e-06 0)
(0.0005034 8.12e-06 0)
(0.0005002 7.256e-06 0)
(0.0004973 6.491e-06 0)
(0.0004947 5.819e-06 0)
(0.0004924 5.237e-06 0)
(0.0004903 4.743e-06 0)
(0.0004884 4.334e-06 0)
(0.0004866 4.011e-06 0)
(0.000485 3.774e-06 0)
(0.0004836 3.625e-06 0)
(0.0004822 3.563e-06 0)
(0.0004809 3.586e-06 0)
(0.0004796 3.683e-06 0)
(0.0004784 3.819e-06 0)
(0.0004772 3.926e-06 0)
(0.001214 0.000152 0)
(0.001246 0.0003353 0)
(0.001274 0.0004178 0)
(0.001282 0.0004348 0)
(0.00127 0.000416 0)
(0.001241 0.0003805 0)
(0.001201 0.0003393 0)
(0.001156 0.0002981 0)
(0.00111 0.0002598 0)
(0.001064 0.0002253 0)
(0.00102 0.0001949 0)
(0.0009796 0.0001683 0)
(0.0009428 0.000145 0)
(0.0009096 0.0001247 0)
(0.0008801 0.0001069 0)
(0.0008542 9.119e-05 0)
(0.0008317 7.725e-05 0)
(0.0008124 6.477e-05 0)
(0.000796 5.352e-05 0)
(0.0007826 4.328e-05 0)
(0.0007718 3.386e-05 0)
(0.0007636 2.511e-05 0)
(0.0007578 1.688e-05 0)
(0.0007544 9.06e-06 0)
(0.0007533 1.536e-06 0)
(0.0007544 -5.785e-06 0)
(0.0007577 -1.299e-05 0)
(0.0007633 -2.015e-05 0)
(0.000771 -2.733e-05 0)
(0.000781 -3.459e-05 0)
(0.0007933 -4.2e-05 0)
(0.0008079 -4.958e-05 0)
(0.0008249 -5.739e-05 0)
(0.0008443 -6.544e-05 0)
(0.0008662 -7.376e-05 0)
(0.0008908 -8.237e-05 0)
(0.0009181 -9.124e-05 0)
(0.0009481 -0.0001004 0)
(0.0009809 -0.0001097 0)
(0.001017 -0.0001193 0)
(0.001055 -0.000129 0)
(0.001097 -0.0001387 0)
(0.001141 -0.0001483 0)
(0.001188 -0.0001577 0)
(0.001238 -0.0001668 0)
(0.001291 -0.0001753 0)
(0.001346 -0.0001831 0)
(0.001403 -0.0001899 0)
(0.001462 -0.0001954 0)
(0.001523 -0.0001996 0)
(0.001584 -0.000202 0)
(0.001646 -0.0002024 0)
(0.001707 -0.0002006 0)
(0.001768 -0.0001964 0)
(0.001826 -0.0001895 0)
(0.001883 -0.0001799 0)
(0.001935 -0.0001675 0)
(0.001984 -0.0001522 0)
(0.002028 -0.0001342 0)
(0.002065 -0.0001137 0)
(0.002097 -9.091e-05 0)
(0.002121 -6.636e-05 0)
(0.002137 -4.05e-05 0)
(0.002146 -1.391e-05 0)
(0.002146 1.282e-05 0)
(0.002138 3.906e-05 0)
(0.002123 6.426e-05 0)
(0.0021 8.794e-05 0)
(0.00207 0.0001097 0)
(0.002034 0.0001292 0)
(0.001992 0.0001464 0)
(0.001946 0.000161 0)
(0.001895 0.000173 0)
(0.001841 0.0001825 0)
(0.001785 0.0001896 0)
(0.001726 0.0001943 0)
(0.001667 0.0001968 0)
(0.001607 0.0001973 0)
(0.001546 0.000196 0)
(0.001487 0.000193 0)
(0.001428 0.0001887 0)
(0.001371 0.0001831 0)
(0.001316 0.0001767 0)
(0.001262 0.0001694 0)
(0.001211 0.0001616 0)
(0.001162 0.0001533 0)
(0.001115 0.0001448 0)
(0.001072 0.0001362 0)
(0.00103 0.0001276 0)
(0.0009916 0.0001191 0)
(0.0009554 0.0001108 0)
(0.0009217 0.0001028 0)
(0.0008904 9.503e-05 0)
(0.0008615 8.764e-05 0)
(0.0008347 8.061e-05 0)
(0.0008101 7.397e-05 0)
(0.0007874 6.773e-05 0)
(0.0007666 6.188e-05 0)
(0.0007476 5.643e-05 0)
(0.0007302 5.136e-05 0)
(0.0007144 4.667e-05 0)
(0.0006999 4.233e-05 0)
(0.0006868 3.834e-05 0)
(0.0006749 3.467e-05 0)
(0.0006641 3.13e-05 0)
(0.0006544 2.822e-05 0)
(0.0006455 2.541e-05 0)
(0.0006376 2.285e-05 0)
(0.0006304 2.052e-05 0)
(0.000624 1.84e-05 0)
(0.0006181 1.649e-05 0)
(0.0006129 1.476e-05 0)
(0.0006083 1.32e-05 0)
(0.0006041 1.181e-05 0)
(0.0006003 1.056e-05 0)
(0.0005969 9.452e-06 0)
(0.0005939 8.476e-06 0)
(0.0005912 7.627e-06 0)
(0.0005887 6.899e-06 0)
(0.0005865 6.289e-06 0)
(0.0005845 5.794e-06 0)
(0.0005827 5.414e-06 0)
(0.000581 5.147e-06 0)
(0.0005795 4.99e-06 0)
(0.000578 4.935e-06 0)
(0.0005766 4.967e-06 0)
(0.0005753 5.05e-06 0)
(0.0005741 5.124e-06 0)
(0.00121 0.0001278 0)
(0.001237 0.0003005 0)
(0.001267 0.0003951 0)
(0.001285 0.0004312 0)
(0.001287 0.0004301 0)
(0.001275 0.0004078 0)
(0.001251 0.000375 0)
(0.001221 0.0003383 0)
(0.001185 0.0003014 0)
(0.001149 0.0002664 0)
(0.001112 0.0002341 0)
(0.001077 0.0002048 0)
(0.001044 0.0001785 0)
(0.001014 0.0001549 0)
(0.000986 0.0001338 0)
(0.0009613 0.0001148 0)
(0.0009397 9.778e-05 0)
(0.0009209 8.232e-05 0)
(0.000905 6.822e-05 0)
(0.0008918 5.526e-05 0)
(0.0008812 4.323e-05 0)
(0.0008732 3.197e-05 0)
(0.0008676 2.133e-05 0)
(0.0008645 1.115e-05 0)
(0.0008638 1.314e-06 0)
(0.0008654 -8.287e-06 0)
(0.0008693 -1.776e-05 0)
(0.0008756 -2.719e-05 0)
(0.0008842 -3.667e-05 0)
(0.0008953 -4.627e-05 0)
(0.0009087 -5.606e-05 0)
(0.0009247 -6.608e-05 0)
(0.0009432 -7.639e-05 0)
(0.0009644 -8.703e-05 0)
(0.0009883 -9.801e-05 0)
(0.001015 -0.0001094 0)
(0.001045 -0.0001211 0)
(0.001077 -0.0001331 0)
(0.001113 -0.0001454 0)
(0.001151 -0.000158 0)
(0.001193 -0.0001707 0)
(0.001238 -0.0001834 0)
(0.001286 -0.000196 0)
(0.001337 -0.0002083 0)
(0.001391 -0.0002202 0)
(0.001448 -0.0002313 0)
(0.001507 -0.0002414 0)
(0.001569 -0.0002503 0)
(0.001632 -0.0002576 0)
(0.001697 -0.0002629 0)
(0.001764 -0.000266 0)
(0.00183 -0.0002666 0)
(0.001896 -0.0002642 0)
(0.001962 -0.0002586 0)
(0.002025 -0.0002495 0)
(0.002086 -0.0002369 0)
(0.002143 -0.0002205 0)
(0.002196 -0.0002004 0)
(0.002243 -0.0001768 0)
(0.002284 -0.0001498 0)
(0.002318 -0.0001199 0)
(0.002344 -8.757e-05 0)
(0.002362 -5.353e-05 0)
(0.002371 -1.851e-05 0)
(0.002371 1.668e-05 0)
(0.002363 5.122e-05 0)
(0.002346 8.438e-05 0)
(0.002321 0.0001155 0)
(0.002289 0.0001441 0)
(0.00225 0.0001698 0)
(0.002205 0.0001924 0)
(0.002155 0.0002116 0)
(0.002101 0.0002275 0)
(0.002043 0.0002401 0)
(0.001982 0.0002494 0)
(0.001919 0.0002557 0)
(0.001854 0.0002592 0)
(0.00179 0.0002599 0)
(0.001725 0.0002583 0)
(0.00166 0.0002546 0)
(0.001597 0.000249 0)
(0.001535 0.0002418 0)
(0.001475 0.0002334 0)
(0.001418 0.000224 0)
(0.001362 0.0002137 0)
(0.001309 0.000203 0)
(0.001259 0.0001919 0)
(0.001211 0.0001806 0)
(0.001167 0.0001693 0)
(0.001125 0.0001582 0)
(0.001085 0.0001473 0)
(0.001049 0.0001367 0)
(0.001015 0.0001265 0)
(0.000983 0.0001167 0)
(0.0009538 0.0001074 0)
(0.0009269 9.868e-05 0)
(0.0009021 9.043e-05 0)
(0.0008794 8.269e-05 0)
(0.0008586 7.547e-05 0)
(0.0008395 6.876e-05 0)
(0.0008221 6.253e-05 0)
(0.0008063 5.677e-05 0)
(0.0007918 5.145e-05 0)
(0.0007787 4.657e-05 0)
(0.0007668 4.208e-05 0)
(0.000756 3.798e-05 0)
(0.0007463 3.423e-05 0)
(0.0007375 3.08e-05 0)
(0.0007295 2.769e-05 0)
(0.0007224 2.486e-05 0)
(0.0007159 2.229e-05 0)
(0.0007101 1.997e-05 0)
(0.0007049 1.788e-05 0)
(0.0007002 1.6e-05 0)
(0.000696 1.432e-05 0)
(0.0006923 1.283e-05 0)
(0.0006889 1.15e-05 0)
(0.0006859 1.035e-05 0)
(0.0006831 9.348e-06 0)
(0.0006807 8.501e-06 0)
(0.0006785 7.801e-06 0)
(0.0006765 7.245e-06 0)
(0.0006746 6.828e-06 0)
(0.0006729 6.545e-06 0)
(0.0006714 6.385e-06 0)
(0.00067 6.329e-06 0)
(0.0006686 6.345e-06 0)
(0.0006673 6.38e-06 0)
(0.001208 0.0001096 0)
(0.00123 0.0002693 0)
(0.001259 0.0003683 0)
(0.001281 0.0004171 0)
(0.001293 0.0004302 0)
(0.001293 0.0004202 0)
(0.001282 0.0003967 0)
(0.001264 0.0003661 0)
(0.001239 0.0003327 0)
(0.001212 0.0002991 0)
(0.001183 0.0002666 0)
(0.001155 0.0002362 0)
(0.001127 0.000208 0)
(0.0011 0.0001821 0)
(0.001076 0.0001585 0)
(0.001054 0.0001369 0)
(0.001034 0.0001172 0)
(0.001017 9.901e-05 0)
(0.001002 8.227e-05 0)
(0.0009896 6.672e-05 0)
(0.0009798 5.217e-05 0)
(0.0009724 3.844e-05 0)
(0.0009674 2.537e-05 0)
(0.0009648 1.281e-05 0)
(0.0009646 6.118e-07 0)
(0.0009668 -1.134e-05 0)
(0.0009713 -2.317e-05 0)
(0.0009782 -3.498e-05 0)
(0.0009876 -4.687e-05 0)
(0.0009994 -5.892e-05 0)
(0.001014 -7.121e-05 0)
(0.001031 -8.381e-05 0)
(0.00105 -9.677e-05 0)
(0.001073 -0.0001101 0)
(0.001098 -0.0001239 0)
(0.001126 -0.0001382 0)
(0.001157 -0.0001529 0)
(0.001191 -0.000168 0)
(0.001228 -0.0001834 0)
(0.001269 -0.0001991 0)
(0.001313 -0.000215 0)
(0.00136 -0.000231 0)
(0.00141 -0.0002467 0)
(0.001463 -0.0002621 0)
(0.00152 -0.0002769 0)
(0.001579 -0.0002908 0)
(0.001642 -0.0003035 0)
(0.001706 -0.0003146 0)
(0.001773 -0.0003236 0)
(0.001841 -0.0003303 0)
(0.001911 -0.0003342 0)
(0.00198 -0.0003348 0)
(0.00205 -0.0003318 0)
(0.002119 -0.0003248 0)
(0.002185 -0.0003135 0)
(0.002249 -0.0002976 0)
(0.002309 -0.0002771 0)
(0.002365 -0.000252 0)
(0.002415 -0.0002223 0)
(0.002458 -0.0001885 0)
(0.002494 -0.0001509 0)
(0.002522 -0.0001103 0)
(0.002541 -6.749e-05 0)
(0.00255 -2.344e-05 0)
(0.002551 2.082e-05 0)
(0.002542 6.424e-05 0)
(0.002524 0.0001059 0)
(0.002498 0.000145 0)
(0.002464 0.0001808 0)
(0.002423 0.0002131 0)
(0.002376 0.0002413 0)
(0.002323 0.0002655 0)
(0.002266 0.0002854 0)
(0.002205 0.0003012 0)
(0.002141 0.0003131 0)
(0.002075 0.000321 0)
(0.002008 0.0003254 0)
(0.00194 0.0003265 0)
(0.001871 0.0003246 0)
(0.001804 0.00032 0)
(0.001738 0.0003132 0)
(0.001673 0.0003043 0)
(0.00161 0.0002938 0)
(0.001549 0.0002821 0)
(0.001491 0.0002693 0)
(0.001435 0.0002559 0)
(0.001383 0.000242 0)
(0.001333 0.0002279 0)
(0.001286 0.0002138 0)
(0.001241 0.0001999 0)
(0.0012 0.0001862 0)
(0.001161 0.0001729 0)
(0.001126 0.0001601 0)
(0.001092 0.0001479 0)
(0.001061 0.0001362 0)
(0.001033 0.0001252 0)
(0.001007 0.0001148 0)
(0.0009828 0.0001051 0)
(0.0009607 9.598e-05 0)
(0.0009405 8.751e-05 0)
(0.000922 7.964e-05 0)
(0.0009051 7.236e-05 0)
(0.0008898 6.564e-05 0)
(0.0008758 5.946e-05 0)
(0.0008631 5.378e-05 0)
(0.0008516 4.857e-05 0)
(0.0008412 4.381e-05 0)
(0.0008318 3.946e-05 0)
(0.0008233 3.55e-05 0)
(0.0008156 3.19e-05 0)
(0.0008087 2.863e-05 0)
(0.0008025 2.567e-05 0)
(0.0007968 2.3e-05 0)
(0.0007918 2.06e-05 0)
(0.0007873 1.845e-05 0)
(0.0007832 1.652e-05 0)
(0.0007796 1.482e-05 0)
(0.0007763 1.332e-05 0)
(0.0007734 1.202e-05 0)
(0.0007708 1.091e-05 0)
(0.0007684 9.977e-06 0)
(0.0007663 9.217e-06 0)
(0.0007643 8.624e-06 0)
(0.0007626 8.19e-06 0)
(0.000761 7.902e-06 0)
(0.0007595 7.741e-06 0)
(0.0007581 7.679e-06 0)
(0.0007568 7.673e-06 0)
(0.001206 9.552e-05 0)
(0.001225 0.000242 0)
(0.001251 0.0003409 0)
(0.001276 0.0003973 0)
(0.001293 0.000421 0)
(0.001301 0.0004216 0)
(0.0013 0.0004069 0)
(0.001292 0.000383 0)
(0.001277 0.0003542 0)
(0.001259 0.0003233 0)
(0.001238 0.000292 0)
(0.001216 0.0002617 0)
(0.001194 0.0002327 0)
(0.001172 0.0002055 0)
(0.001152 0.0001801 0)
(0.001133 0.0001565 0)
(0.001115 0.0001345 0)
(0.0011 0.0001141 0)
(0.001087 9.504e-05 0)
(0.001076 7.714e-05 0)
(0.001068 6.024e-05 0)
(0.001061 4.417e-05 0)
(0.001057 2.877e-05 0)
(0.001055 1.387e-05 0)
(0.001056 -6.557e-07 0)
(0.001058 -1.495e-05 0)
(0.001063 -2.915e-05 0)
(0.001071 -4.336e-05 0)
(0.001081 -5.769e-05 0)
(0.001093 -7.224e-05 0)
(0.001108 -8.709e-05 0)
(0.001125 -0.0001023 0)
(0.001146 -0.000118 0)
(0.001168 -0.0001342 0)
(0.001194 -0.0001509 0)
(0.001223 -0.0001681 0)
(0.001255 -0.0001858 0)
(0.00129 -0.0002041 0)
(0.001328 -0.0002227 0)
(0.001369 -0.0002417 0)
(0.001414 -0.0002609 0)
(0.001462 -0.0002802 0)
(0.001513 -0.0002992 0)
(0.001568 -0.0003178 0)
(0.001626 -0.0003356 0)
(0.001687 -0.0003524 0)
(0.00175 -0.0003677 0)
(0.001816 -0.000381 0)
(0.001884 -0.000392 0)
(0.001954 -0.0004001 0)
(0.002025 -0.0004048 0)
(0.002097 -0.0004056 0)
(0.002168 -0.000402 0)
(0.002239 -0.0003936 0)
(0.002307 -0.00038 0)
(0.002373 -0.0003609 0)
(0.002435 -0.0003362 0)
(0.002492 -0.0003058 0)
(0.002544 -0.0002699 0)
(0.002589 -0.0002289 0)
(0.002626 -0.0001834 0)
(0.002655 -0.0001341 0)
(0.002674 -8.21e-05 0)
(0.002684 -2.855e-05 0)
(0.002684 2.523e-05 0)
(0.002675 7.795e-05 0)
(0.002657 0.0001285 0)
(0.002629 0.0001758 0)
(0.002594 0.0002191 0)
(0.002552 0.0002581 0)
(0.002503 0.0002922 0)
(0.002449 0.0003213 0)
(0.002391 0.0003455 0)
(0.002328 0.0003646 0)
(0.002263 0.000379 0)
(0.002195 0.0003887 0)
(0.002126 0.0003941 0)
(0.002057 0.0003955 0)
(0.001987 0.0003933 0)
(0.001918 0.0003879 0)
(0.00185 0.0003796 0)
(0.001784 0.000369 0)
(0.001719 0.0003564 0)
(0.001657 0.0003423 0)
(0.001598 0.0003269 0)
(0.001541 0.0003108 0)
(0.001487 0.000294 0)
(0.001435 0.0002771 0)
(0.001387 0.00026 0)
(0.001342 0.0002432 0)
(0.0013 0.0002267 0)
(0.00126 0.0002106 0)
(0.001223 0.0001952 0)
(0.001189 0.0001803 0)
(0.001157 0.0001662 0)
(0.001128 0.0001529 0)
(0.001101 0.0001403 0)
(0.001076 0.0001285 0)
(0.001054 0.0001174 0)
(0.001033 0.0001071 0)
(0.001014 9.756e-05 0)
(0.0009964 8.87e-05 0)
(0.0009805 8.052e-05 0)
(0.000966 7.299e-05 0)
(0.0009529 6.606e-05 0)
(0.000941 5.971e-05 0)
(0.0009302 5.39e-05 0)
(0.0009204 4.858e-05 0)
(0.0009115 4.374e-05 0)
(0.0009035 3.933e-05 0)
(0.0008963 3.533e-05 0)
(0.0008898 3.17e-05 0)
(0.000884 2.842e-05 0)
(0.0008787 2.547e-05 0)
(0.000874 2.282e-05 0)
(0.0008697 2.045e-05 0)
(0.0008659 1.834e-05 0)
(0.0008625 1.648e-05 0)
(0.0008595 1.485e-05 0)
(0.0008567 1.345e-05 0)
(0.0008543 1.226e-05 0)
(0.0008521 1.128e-05 0)
(0.0008501 1.049e-05 0)
(0.0008483 9.886e-06 0)
(0.0008466 9.454e-06 0)
(0.0008451 9.176e-06 0)
(0.0008437 9.028e-06 0)
(0.0008424 8.978e-06 0)
(0.001205 8.427e-05 0)
(0.001221 0.0002184 0)
(0.001245 0.0003145 0)
(0.00127 0.0003749 0)
(0.00129 0.000406 0)
(0.001303 0.0004149 0)
(0.00131 0.0004081 0)
(0.001309 0.0003908 0)
(0.001303 0.0003669 0)
(0.001293 0.0003394 0)
(0.001279 0.0003103 0)
(0.001264 0.0002809 0)
(0.001247 0.0002521 0)
(0.001231 0.0002244 0)
(0.001214 0.0001979 0)
(0.001199 0.0001729 0)
(0.001185 0.0001493 0)
(0.001172 0.0001271 0)
(0.001161 0.0001061 0)
(0.001152 8.611e-05 0)
(0.001145 6.711e-05 0)
(0.00114 4.89e-05 0)
(0.001137 3.133e-05 0)
(0.001136 1.423e-05 0)
(0.001137 -2.53e-06 0)
(0.00114 -1.909e-05 0)
(0.001146 -3.559e-05 0)
(0.001154 -5.215e-05 0)
(0.001164 -6.889e-05 0)
(0.001176 -8.591e-05 0)
(0.001191 -0.0001033 0)
(0.001209 -0.0001212 0)
(0.001229 -0.0001396 0)
(0.001252 -0.0001585 0)
(0.001278 -0.0001781 0)
(0.001307 -0.0001983 0)
(0.001338 -0.0002192 0)
(0.001373 -0.0002405 0)
(0.001411 -0.0002624 0)
(0.001453 -0.0002847 0)
(0.001497 -0.0003072 0)
(0.001545 -0.0003298 0)
(0.001596 -0.0003521 0)
(0.001651 -0.000374 0)
(0.001709 -0.0003949 0)
(0.001769 -0.0004146 0)
(0.001833 -0.0004326 0)
(0.001899 -0.0004483 0)
(0.001967 -0.0004612 0)
(0.002037 -0.0004708 0)
(0.002108 -0.0004763 0)
(0.00218 -0.0004774 0)
(0.002252 -0.0004732 0)
(0.002322 -0.0004635 0)
(0.002391 -0.0004476 0)
(0.002458 -0.0004253 0)
(0.00252 -0.0003964 0)
(0.002578 -0.0003608 0)
(0.00263 -0.0003186 0)
(0.002676 -0.0002704 0)
(0.002713 -0.0002167 0)
(0.002742 -0.0001585 0)
(0.002762 -9.701e-05 0)
(0.002772 -3.368e-05 0)
(0.002772 2.99e-05 0)
(0.002763 9.216e-05 0)
(0.002744 0.0001517 0)
(0.002716 0.0002073 0)
(0.00268 0.0002583 0)
(0.002638 0.0003039 0)
(0.002589 0.0003439 0)
(0.002535 0.0003781 0)
(0.002476 0.0004064 0)
(0.002413 0.0004288 0)
(0.002347 0.0004457 0)
(0.00228 0.0004572 0)
(0.002211 0.0004636 0)
(0.002141 0.0004653 0)
(0.002071 0.0004628 0)
(0.002002 0.0004565 0)
(0.001934 0.0004469 0)
(0.001868 0.0004345 0)
(0.001804 0.0004198 0)
(0.001741 0.0004032 0)