/*--------------------------------*- C++ -*----------------------------------*\
  =========                 |
  \\      /  F ield         | OpenFOAM: The Open Source CFD Toolbox
   \\    /   O peration     | Website:  https://openfoam.org
    \\  /    A nd           | Version:  7
     \\/     M anipulation  |
\*---------------------------------------------------------------------------*/
FoamFile
{
    version     2.0;
    format      ascii;
    class       volScalarField;
    location    "659.999473410930023";
    object      Y.K;
}
// * * * * * * * * * * * * * * * * * * * * * * * * * * * * * * * * * * * * * //

dimensions      [0 0 0 0 0 0 0];

internalField   nonuniform List<scalar> 
4096
(
3.39e-68
-2.001e-69
4.414e-67
-2.688e-67
-3.67e-68
8.388e-68
-4.379e-68
-3.015e-68
4.751e-69
3.084e-67
-3.22e-66
5.255e-65
-7.364e-64
1.057e-62
-1.371e-61
1.714e-60
-2.018e-59
2.308e-58
-2.521e-57
2.695e-56
-2.736e-55
2.716e-54
-2.636e-53
2.436e-52
-2.133e-51
1.731e-50
-1.347e-49
1.029e-48
-7.477e-48
5.109e-47
-3.11e-46
1.669e-45
-5.104e-45
-2.69e-44
7.504e-43
-9.85e-42
9.811e-41
-8.71e-40
6.977e-39
-5.141e-38
3.468e-37
-2.195e-36
1.319e-35
-7.311e-35
3.806e-34
-1.865e-33
8.659e-33
-3.77e-32
1.556e-31
-5.507e-31
2.176e-30
-3.307e-30
1.202e-29
2.267e-28
1.903e-28
1.015e-26
1.862e-26
3.121e-25
1.232e-24
4.09e-24
3.041e-23
1.414e-22
1.079e-21
4.771e-21
3.877e-20
1.834e-19
2.149e-18
6.216e-18
1.356e-17
2.655e-17
4.905e-17
8.707e-17
1.498e-16
2.505e-16
4.087e-16
6.513e-16
1.015e-15
1.55e-15
2.32e-15
3.408e-15
4.918e-15
6.978e-15
9.745e-15
1.34e-14
1.818e-14
2.433e-14
3.216e-14
4.201e-14
5.427e-14
6.94e-14
8.79e-14
1.103e-13
1.374e-13
1.697e-13
2.081e-13
2.534e-13
3.067e-13
3.691e-13
4.417e-13
5.259e-13
6.232e-13
7.351e-13
8.636e-13
1.011e-12
1.178e-12
1.369e-12
1.585e-12
1.83e-12
2.107e-12
2.419e-12
2.769e-12
3.163e-12
3.605e-12
4.099e-12
4.651e-12
5.266e-12
5.951e-12
6.713e-12
7.559e-12
8.496e-12
9.533e-12
1.068e-11
1.193e-11
1.331e-11
1.479e-11
1.634e-11
1.786e-11
1.903e-11
7.967e-67
-4.538e-66
5.258e-66
-7.58e-67
-3.891e-66
3.521e-66
-8.501e-68
-1.913e-66
-3.257e-67
1.826e-65
-1.882e-64
2.853e-63
-4.193e-62
5.782e-61
-7.52e-60
9.277e-59
-1.093e-57
1.236e-56
-1.349e-55
1.425e-54
-1.458e-53
1.444e-52
-1.381e-51
1.266e-50
-1.113e-49
9.02e-49
-7.048e-48
5.349e-47
-3.893e-46
2.669e-45
-1.648e-44
8.958e-44
-3.095e-43
-9.884e-43
3.435e-41
-4.678e-40
4.696e-39
-4.18e-38
3.348e-37
-2.454e-36
1.672e-35
-1.06e-34
6.258e-34
-3.442e-33
1.781e-32
-8.672e-32
4.002e-31
-1.728e-30
7.214e-30
-2.511e-29
1.031e-28
-1.207e-28
6.501e-28
1.09e-26
2.109e-26
4.665e-25
1.406e-24
1.557e-23
6.064e-23
2.153e-22
1.404e-21
6.21e-21
4.104e-20
1.592e-19
1.002e-18
2.919e-18
6.724e-18
1.394e-17
2.703e-17
4.989e-17
8.854e-17
1.52e-16
2.533e-16
4.111e-16
6.507e-16
1.007e-15
1.524e-15
2.262e-15
3.295e-15
4.715e-15
6.636e-15
9.198e-15
1.256e-14
1.693e-14
2.254e-14
2.964e-14
3.855e-14
4.963e-14
6.328e-14
7.996e-14
1.002e-13
1.245e-13
1.537e-13
1.884e-13
2.294e-13
2.776e-13
3.341e-13
4e-13
4.766e-13
5.651e-13
6.673e-13
7.846e-13
9.19e-13
1.073e-12
1.248e-12
1.446e-12
1.672e-12
1.927e-12
2.215e-12
2.539e-12
2.904e-12
3.313e-12
3.772e-12
4.285e-12
4.857e-12
5.496e-12
6.206e-12
6.996e-12
7.872e-12
8.843e-12
9.916e-12
1.11e-11
1.241e-11
1.384e-11
1.54e-11
1.707e-11
1.881e-11
2.043e-11
-1.838e-65
1.281e-64
-3.234e-64
4.385e-64
-3.11e-64
5.225e-65
1.067e-64
-9.2e-65
-5.582e-65
1.058e-63
-1.004e-62
1.507e-61
-2.204e-60
3.019e-59
-3.893e-58
4.759e-57
-5.554e-56
6.227e-55
-6.74e-54
7.064e-53
-7.177e-52
7.063e-51
-6.717e-50
6.133e-49
-5.365e-48
4.352e-47
-3.413e-46
2.603e-45
-1.907e-44
1.32e-43
-8.36e-43
4.651e-42
-1.952e-41
-4.22e-42
1.282e-39
-1.937e-38
1.998e-37
-1.8e-36
1.45e-35
-1.064e-34
7.262e-34
-4.607e-33
2.714e-32
-1.486e-31
7.651e-31
-3.703e-30
1.701e-29
-7.287e-29
3.058e-28
-1.028e-27
4.631e-27
-2.449e-27
3.695e-26
4.942e-25
1.916e-24
1.992e-23
9.645e-23
7.899e-22
3.003e-21
1.104e-20
6.295e-20
2.493e-19
1.285e-18
3.832e-18
8.983e-18
1.898e-17
3.755e-17
7.07e-17
1.276e-16
2.22e-16
3.731e-16
6.075e-16
9.604e-16
1.477e-15
2.216e-15
3.245e-15
4.651e-15
6.533e-15
9.009e-15
1.221e-14
1.63e-14
2.146e-14
2.789e-14
3.582e-14
4.552e-14
5.731e-14
7.152e-14
8.856e-14
1.089e-13
1.33e-13
1.615e-13
1.95e-13
2.344e-13
2.803e-13
3.337e-13
3.958e-13
4.676e-13
5.504e-13
6.456e-13
7.55e-13
8.801e-13
1.023e-12
1.186e-12
1.371e-12
1.581e-12
1.818e-12
2.087e-12
2.389e-12
2.73e-12
3.112e-12
3.542e-12
4.022e-12
4.559e-12
5.159e-12
5.827e-12
6.57e-12
7.396e-12
8.312e-12
9.328e-12
1.045e-11
1.169e-11
1.306e-11
1.456e-11
1.622e-11
1.802e-11
1.999e-11
2.213e-11
2.449e-11
3.012e-64
-2.396e-63
8.479e-63
-1.85e-62
2.643e-62
-2.499e-62
1.436e-62
-2.914e-63
-3.813e-63
5.863e-62
-5.069e-61
7.465e-60
-1.081e-58
1.462e-57
-1.859e-56
2.239e-55
-2.576e-54
2.849e-53
-3.046e-52
3.156e-51
-3.175e-50
3.098e-49
-2.925e-48
2.658e-47
-2.318e-46
1.884e-45
-1.488e-44
1.144e-43
-8.478e-43
5.969e-42
-3.909e-41
2.237e-40
-1.183e-39
2.363e-39
3.107e-38
-6.378e-37
7.061e-36
-6.537e-35
5.362e-34
-3.961e-33
2.725e-32
-1.74e-31
1.026e-30
-5.596e-30
2.873e-29
-1.383e-28
6.335e-28
-2.685e-27
1.14e-26
-3.53e-26
1.871e-25
1.377e-25
2.167e-24
1.954e-23
1.275e-22
1.014e-21
5.322e-21
3.733e-20
1.421e-19
4.758e-19
2.188e-18
6.711e-18
1.644e-17
3.646e-17
7.571e-17
1.489e-16
2.793e-16
5.012e-16
8.635e-16
1.432e-15
2.291e-15
3.544e-15
5.317e-15
7.749e-15
1.1e-14
1.523e-14
2.063e-14
2.738e-14
3.567e-14
4.57e-14
5.768e-14
7.185e-14
8.846e-14
1.078e-13
1.301e-13
1.559e-13
1.856e-13
2.196e-13
2.585e-13
3.03e-13
3.538e-13
4.118e-13
4.78e-13
5.535e-13
6.395e-13
7.374e-13
8.486e-13
9.751e-13
1.119e-12
1.281e-12
1.465e-12
1.674e-12
1.909e-12
2.174e-12
2.473e-12
2.809e-12
3.187e-12
3.61e-12
4.084e-12
4.614e-12
5.207e-12
5.867e-12
6.602e-12
7.42e-12
8.329e-12
9.336e-12
1.045e-11
1.169e-11
1.305e-11
1.455e-11
1.62e-11
1.802e-11
2.002e-11
2.22e-11
2.459e-11
2.72e-11
3.007e-11
3.363e-11
-4.261e-63
3.681e-62
-1.613e-61
4.709e-61
-9.665e-61
1.443e-60
-1.571e-60
1.203e-60
-5.78e-61
3.031e-60
-2.434e-59
3.464e-58
-4.92e-57
6.51e-56
-8.087e-55
9.52e-54
-1.071e-52
1.161e-51
-1.218e-50
1.242e-49
-1.232e-48
1.188e-47
-1.112e-46
1.005e-45
-8.738e-45
7.138e-44
-5.689e-43
4.427e-42
-3.335e-41
2.404e-40
-1.633e-39
1.01e-38
-5.608e-38
2.236e-37
-4.437e-38
-1.367e-35
1.92e-34
-1.874e-33
1.607e-32
-1.206e-31
8.471e-31
-5.506e-30
3.273e-29
-1.779e-28
9.121e-28
-4.374e-27
2.006e-26
-8.332e-26
3.614e-25
-8.71e-25
6.46e-24
1.3e-23
1.327e-22
1.045e-21
7.248e-21
4.999e-20
2.586e-19
1.361e-18
4.75e-18
1.332e-17
3.375e-17
7.968e-17
1.77e-16
3.715e-16
7.392e-16
1.397e-15
2.515e-15
4.324e-15
7.117e-15
1.124e-14
1.71e-14
2.511e-14
3.567e-14
4.916e-14
6.592e-14
8.619e-14
1.101e-13
1.379e-13
1.695e-13
2.05e-13
2.445e-13
2.881e-13
3.359e-13
3.882e-13
4.453e-13
5.079e-13
5.763e-13
6.516e-13
7.344e-13
8.26e-13
9.274e-13
1.04e-12
1.166e-12
1.306e-12
1.462e-12
1.638e-12
1.834e-12
2.055e-12
2.302e-12
2.579e-12
2.889e-12
3.237e-12
3.628e-12
4.064e-12
4.553e-12
5.099e-12
5.708e-12
6.388e-12
7.145e-12
7.988e-12
8.925e-12
9.965e-12
1.112e-11
1.24e-11
1.381e-11
1.537e-11
1.709e-11
1.899e-11
2.108e-11
2.337e-11
2.589e-11
2.864e-11
3.165e-11
3.494e-11
3.852e-11
4.241e-11
4.669e-11
5.238e-11
5.53e-62
-5.04e-61
2.562e-60
-9.204e-60
2.436e-59
-4.906e-59
7.606e-59
-8.924e-59
7.469e-59
1.302e-58
-1.097e-57
1.494e-56
-2.054e-55
2.624e-54
-3.143e-53
3.573e-52
-3.891e-51
4.095e-50
-4.186e-49
4.172e-48
-4.06e-47
3.858e-46
-3.57e-45
3.205e-44
-2.781e-43
2.289e-42
-1.848e-41
1.461e-40
-1.123e-39
8.332e-39
-5.897e-38
3.922e-37
-2.367e-36
1.305e-35
-4.834e-35
7.381e-38
2.4e-33
-3.576e-32
3.547e-31
-2.768e-30
2.054e-29
-1.398e-28
8.482e-28
-4.59e-27
2.358e-26
-1.133e-25
5.276e-25
-2.093e-24
9.432e-24
-3.33e-24
1.849e-22
1.062e-21
7.063e-21
5.781e-20
3.435e-19
1.948e-18
7.475e-18
2.33e-17
6.561e-17
1.716e-16
4.199e-16
9.647e-16
2.085e-15
4.248e-15
8.173e-15
1.488e-14
2.571e-14
4.227e-14
6.633e-14
9.965e-14
1.438e-13
1.998e-13
2.683e-13
3.491e-13
4.413e-13
5.438e-13
6.546e-13
7.721e-13
8.944e-13
1.02e-12
1.149e-12
1.279e-12
1.412e-12
1.547e-12
1.685e-12
1.829e-12
1.98e-12
2.139e-12
2.309e-12
2.492e-12
2.691e-12
2.909e-12
3.149e-12
3.414e-12
3.708e-12
4.034e-12
4.398e-12
4.803e-12
5.256e-12
5.761e-12
6.324e-12
6.952e-12
7.653e-12
8.434e-12
9.304e-12
1.027e-11
1.135e-11
1.254e-11
1.387e-11
1.534e-11
1.696e-11
1.876e-11
2.075e-11
2.295e-11
2.536e-11
2.802e-11
3.095e-11
3.416e-11
3.768e-11
4.153e-11
4.574e-11
5.033e-11
5.533e-11
6.077e-11
6.667e-11
7.307e-11
8.001e-11
8.973e-11
-6.771e-61
6.394e-60
-3.621e-59
1.523e-58
-4.906e-58
1.243e-57
-2.508e-57
4.006e-57
-4.883e-57
9.698e-57
-4.597e-56
5.882e-55
-7.684e-54
9.297e-53
-1.055e-51
1.14e-50
-1.186e-49
1.198e-48
-1.182e-47
1.143e-46
-1.086e-45
1.012e-44
-9.237e-44
8.234e-43
-7.137e-42
5.94e-41
-4.874e-40
3.928e-39
-3.094e-38
2.368e-37
-1.748e-36
1.235e-35
-8.24e-35
5.106e-34
-2.833e-33
1.302e-32
-3.475e-32
-9.888e-32
2.805e-30
-3.375e-29
3.287e-28
-2.572e-27
1.653e-26
-9.118e-26
4.714e-25
-2.321e-24
1.164e-23
-4.103e-23
1.961e-22
4.239e-22
6.811e-21
5.023e-20
3.586e-19
2.295e-18
9.886e-18
3.495e-17
1.119e-16
3.315e-16
9.146e-16
2.354e-15
5.657e-15
1.272e-14
2.677e-14
5.285e-14
9.812e-14
1.717e-13
2.839e-13
4.454e-13
6.649e-13
9.477e-13
1.294e-12
1.7e-12
2.153e-12
2.64e-12
3.143e-12
3.645e-12
4.129e-12
4.584e-12
4.999e-12
5.379e-12
5.714e-12
6.012e-12
6.282e-12
6.528e-12
6.761e-12
6.987e-12
7.214e-12
7.452e-12
7.707e-12
7.988e-12
8.302e-12
8.655e-12
9.053e-12
9.504e-12
1.001e-11
1.059e-11
1.125e-11
1.198e-11
1.281e-11
1.374e-11
1.479e-11
1.595e-11
1.726e-11
1.871e-11
2.033e-11
2.213e-11
2.413e-11
2.634e-11
2.88e-11
3.151e-11
3.45e-11
3.781e-11
4.145e-11
4.545e-11
4.985e-11
5.467e-11
5.996e-11
6.575e-11
7.207e-11
7.897e-11
8.648e-11
9.465e-11
1.035e-10
1.131e-10
1.235e-10
1.347e-10
1.468e-10
1.642e-10
7.914e-60
-7.652e-59
4.7e-58
-2.239e-57
8.453e-57
-2.585e-56
6.473e-56
-1.315e-55
2.066e-55
4.6e-56
-1.678e-54
2.06e-53
-2.47e-52
2.753e-51
-2.887e-50
2.903e-49
-2.836e-48
2.714e-47
-2.559e-46
2.383e-45
-2.194e-44
1.998e-43
-1.795e-42
1.588e-41
-1.377e-40
1.165e-39
-9.75e-39
8.046e-38
-6.518e-37
5.162e-36
-3.977e-35
2.967e-34
-2.131e-33
1.465e-32
-9.502e-32
5.705e-31
-3.084e-30
1.645e-29
-5.955e-29
8.124e-29
1.092e-27
-1.404e-26
1.085e-25
-7.848e-25
5.66e-24
-3.262e-23
2.16e-22
-5.155e-22
3.35e-21
3.033e-20
2.752e-19
2.048e-18
1.011e-17
4.132e-17
1.532e-16
5.251e-16
1.668e-15
4.913e-15
1.343e-14
3.411e-14
8.049e-14
1.767e-13
3.614e-13
6.899e-13
1.232e-12
2.066e-12
3.263e-12
4.871e-12
6.9e-12
9.31e-12
1.201e-11
1.488e-11
1.776e-11
2.05e-11
2.294e-11
2.503e-11
2.665e-11
2.783e-11
2.859e-11
2.907e-11
2.909e-11
2.897e-11
2.87e-11
2.833e-11
2.791e-11
2.749e-11
2.711e-11
2.68e-11
2.659e-11
2.649e-11
2.654e-11
2.67e-11
2.702e-11
2.749e-11
2.813e-11
2.895e-11
2.996e-11
3.116e-11
3.258e-11
3.422e-11
3.61e-11
3.825e-11
4.068e-11
4.341e-11
4.647e-11
4.989e-11
5.37e-11
5.793e-11
6.262e-11
6.78e-11
7.351e-11
7.981e-11
8.673e-11
9.434e-11
1.027e-10
1.118e-10
1.218e-10
1.326e-10
1.445e-10
1.574e-10
1.714e-10
1.866e-10
2.03e-10
2.208e-10
2.399e-10
2.605e-10
2.824e-10
3.149e-10
-8.842e-59
8.682e-58
-5.678e-57
2.992e-56
-1.29e-55
4.635e-55
-1.401e-54
3.56e-54
-7.528e-54
1.58e-53
-6.141e-53
5.807e-52
-6.23e-51
6.174e-50
-5.762e-49
5.249e-48
-4.717e-47
4.216e-46
-3.755e-45
3.338e-44
-2.962e-43
2.623e-42
-2.313e-41
2.028e-40
-1.762e-39
1.529e-38
-1.315e-37
1.12e-36
-9.409e-36
7.761e-35
-6.268e-34
4.941e-33
-3.788e-32
2.821e-31
-2.004e-30
1.349e-29
-8.648e-29
5.151e-28
-2.903e-27
1.527e-26
-7.249e-26
3.465e-25
-1.308e-24
2.404e-24
7.09e-24
-9.694e-23
1.867e-21
1.381e-21
1.289e-19
1.269e-18
7.406e-18
3.573e-17
1.562e-16
6.297e-16
2.345e-15
8.064e-15
2.561e-14
7.509e-14
2.033e-13
5.082e-13
1.175e-12
2.512e-12
4.978e-12
9.162e-12
1.57e-11
2.515e-11
3.78e-11
5.357e-11
7.182e-11
9.155e-11
1.114e-10
1.3e-10
1.46e-10
1.583e-10
1.663e-10
1.71e-10
1.705e-10
1.678e-10
1.629e-10
1.561e-10
1.483e-10
1.399e-10
1.314e-10
1.233e-10
1.157e-10
1.088e-10
1.027e-10
9.739e-11
9.285e-11
8.909e-11
8.608e-11
8.377e-11
8.213e-11
8.11e-11
8.075e-11
8.102e-11
8.178e-11
8.312e-11
8.505e-11
8.757e-11
9.068e-11
9.441e-11
9.877e-11
1.038e-10
1.096e-10
1.161e-10
1.234e-10
1.316e-10
1.407e-10
1.507e-10
1.619e-10
1.742e-10
1.877e-10
2.025e-10
2.187e-10
2.365e-10
2.558e-10
2.769e-10
2.998e-10
3.247e-10
3.516e-10
3.807e-10
4.122e-10
4.46e-10
4.824e-10
5.215e-10
5.627e-10
6.249e-10
9.385e-58
-9.304e-57
6.393e-56
-3.663e-55
1.77e-54
-7.315e-54
2.61e-53
-7.987e-53
2e-52
-2.245e-52
-9.834e-52
1.236e-50
-1.048e-49
8.347e-49
-6.473e-48
5.179e-47
-4.173e-46
3.448e-45
-2.873e-44
2.412e-43
-2.037e-42
1.736e-41
-1.485e-40
1.278e-39
-1.107e-38
9.587e-38
-8.267e-37
7.135e-36
-6.115e-35
5.148e-34
-4.251e-33
3.433e-32
-2.708e-31
2.078e-30
-1.53e-29
1.106e-28
-7.634e-28
5.146e-27
-3.328e-26
2.061e-25
-1.22e-24
6.865e-24
-3.7e-23
1.88e-22
-8.63e-22
5.23e-21
2.374e-20
3.513e-19
3.369e-18
2.103e-17
1.11e-16
5.338e-16
2.364e-15
9.648e-15
3.622e-14
1.25e-13
3.965e-13
1.155e-12
3.088e-12
7.583e-12
1.712e-11
3.556e-11
6.808e-11
1.204e-10
1.972e-10
3.008e-10
4.291e-10
5.755e-10
7.285e-10
8.76e-10
1.004e-09
1.101e-09
1.163e-09
1.18e-09
1.164e-09
1.125e-09
1.063e-09
9.875e-10
9.043e-10
8.194e-10
7.37e-10
6.6e-10
5.899e-10
5.275e-10
4.729e-10
4.257e-10
3.854e-10
3.513e-10
3.227e-10
2.989e-10
2.793e-10
2.635e-10
2.508e-10
2.41e-10
2.336e-10
2.286e-10
2.255e-10
2.246e-10
2.254e-10
2.276e-10
2.316e-10
2.372e-10
2.443e-10
2.531e-10
2.636e-10
2.757e-10
2.896e-10
3.054e-10
3.231e-10
3.429e-10
3.649e-10
3.892e-10
4.16e-10
4.454e-10
4.776e-10
5.127e-10
5.511e-10
5.928e-10
6.38e-10
6.87e-10
7.4e-10
7.972e-10
8.588e-10
9.249e-10
9.958e-10
1.072e-09
1.151e-09
1.273e-09
-9.345e-57
9.307e-56
-6.651e-55
4.088e-54
-2.179e-53
1.022e-52
-4.26e-52
1.593e-51
-5.354e-51
1.602e-50
-4.154e-50
8.769e-50
-1.732e-49
9.851e-49
-7.736e-48
8.893e-47
-8.864e-46
7.768e-45
-6.248e-44
4.676e-43
-3.254e-42
2.06e-41
-1.148e-40
4.628e-40
4.332e-41
-2.709e-38
3.724e-37
-3.615e-36
3.076e-35
-2.445e-34
1.78e-33
-1.322e-32
5.011e-32
-4.822e-32
-2.434e-30
3.795e-29
-4.241e-28
3.916e-27
-3.247e-26
2.487e-25
-1.78e-24
1.173e-23
-7.419e-23
4.766e-22
-1.486e-21
8.777e-20
1.115e-18
8.326e-18
5.252e-17
3.027e-16
1.609e-15
7.876e-15
3.544e-14
1.463e-13
5.53e-13
1.912e-12
6.04e-12
1.743e-11
4.591e-11
1.105e-10
2.429e-10
4.884e-10
8.999e-10
1.522e-09
2.375e-09
3.438e-09
4.641e-09
5.877e-09
7.005e-09
7.947e-09
8.554e-09
8.785e-09
8.658e-09
8.306e-09
7.748e-09
7.05e-09
6.287e-09
5.516e-09
4.78e-09
4.107e-09
3.51e-09
2.992e-09
2.551e-09
2.182e-09
1.874e-09
1.62e-09
1.411e-09
1.241e-09
1.101e-09
9.874e-10
8.95e-10
8.203e-10
7.601e-10
7.12e-10
6.741e-10
6.45e-10
6.233e-10
6.081e-10
5.988e-10
5.944e-10
5.959e-10
6.01e-10
6.104e-10
6.239e-10
6.415e-10
6.633e-10
6.891e-10
7.191e-10
7.534e-10
7.922e-10
8.357e-10
8.841e-10
9.376e-10
9.965e-10
1.061e-09
1.132e-09
1.209e-09
1.292e-09
1.383e-09
1.481e-09
1.587e-09
1.701e-09
1.824e-09
1.955e-09
2.096e-09
2.246e-09
2.402e-09
2.644e-09
8.547e-56
-8.519e-55
6.277e-54
-4.089e-53
2.369e-52
-1.234e-51
5.849e-51
-2.542e-50
1.018e-49
-3.738e-49
1.232e-48
-3.39e-48
1.906e-48
3.894e-47
-4.32e-46
3.796e-45
-3.028e-44
2.328e-43
-1.754e-42
1.297e-41
-9.419e-41
6.727e-40
-4.733e-39
3.253e-38
-2.172e-37
1.387e-36
-8.134e-36
3.967e-35
-9.551e-35
-9.261e-34
1.997e-32
-2.469e-31
2.523e-30
-2.313e-29
1.963e-28
-1.564e-27
1.18e-26
-8.451e-26
5.782e-25
-3.747e-24
2.324e-23
-1.374e-22
8.202e-22
-3.005e-21
1.378e-19
1.91e-18
1.564e-17
1.096e-16
7.028e-16
4.155e-15
2.26e-14
1.128e-13
5.147e-13
2.145e-12
8.144e-12
2.813e-11
8.832e-11
2.518e-10
6.516e-10
1.531e-09
3.265e-09
6.33e-09
1.118e-08
1.802e-08
2.667e-08
3.65e-08
4.647e-08
5.543e-08
6.213e-08
6.665e-08
6.628e-08
6.413e-08
5.993e-08
5.421e-08
4.767e-08
4.097e-08
3.455e-08
2.873e-08
2.364e-08
1.933e-08
1.575e-08
1.283e-08
1.048e-08
8.601e-09
7.107e-09
5.922e-09
4.983e-09
4.239e-09
3.648e-09
3.177e-09
2.802e-09
2.503e-09
2.264e-09
2.073e-09
1.922e-09
1.802e-09
1.709e-09
1.639e-09
1.587e-09
1.552e-09
1.53e-09
1.524e-09
1.529e-09
1.544e-09
1.569e-09
1.605e-09
1.651e-09
1.706e-09
1.771e-09
1.847e-09
1.933e-09
2.029e-09
2.136e-09
2.255e-09
2.385e-09
2.528e-09
2.684e-09
2.854e-09
3.038e-09
3.236e-09
3.451e-09
3.681e-09
3.928e-09
4.193e-09
4.476e-09
4.777e-09
5.088e-09
5.573e-09
-7.012e-55
6.968e-54
-5.256e-53
3.594e-52
-2.236e-51
1.278e-50
-6.783e-50
3.375e-49
-1.588e-48
7.121e-48
-3.059e-47
1.268e-46
-5.136e-46
2.106e-45
-9.394e-45
4.959e-44
-3.128e-43
2.216e-42
-1.603e-41
1.135e-40
-7.805e-40
5.311e-39
-3.789e-38
2.943e-37
-2.549e-36
2.291e-35
-2.062e-34
1.821e-33
-1.565e-32
1.304e-31
-1.053e-30
8.233e-30
-6.235e-29
4.573e-28
-3.246e-27
2.229e-26
-1.479e-25
9.483e-25
-5.841e-24
3.522e-23
-2.006e-22
1.162e-21
-4.583e-21
1.789e-19
2.719e-18
2.45e-17
1.905e-16
1.361e-15
8.973e-15
5.438e-14
3.02e-13
1.532e-12
7.075e-12
2.968e-11
1.129e-10
3.883e-10
1.207e-09
3.388e-09
8.579e-09
1.959e-08
4.035e-08
7.507e-08
1.265e-07
1.934e-07
2.703e-07
3.485e-07
4.179e-07
4.683e-07
4.953e-07
4.882e-07
4.643e-07
4.243e-07
3.739e-07
3.193e-07
2.657e-07
2.165e-07
1.734e-07
1.373e-07
1.078e-07
8.422e-08
6.575e-08
5.143e-08
4.041e-08
3.197e-08
2.552e-08
2.059e-08
1.68e-08
1.389e-08
1.163e-08
9.876e-09
8.505e-09
7.428e-09
6.579e-09
5.906e-09
5.374e-09
4.952e-09
4.62e-09
4.362e-09
4.163e-09
4.016e-09
3.911e-09
3.845e-09
3.807e-09
3.811e-09
3.835e-09
3.885e-09
3.959e-09
4.057e-09
4.178e-09
4.322e-09
4.49e-09
4.68e-09
4.895e-09
5.134e-09
5.399e-09
5.689e-09
6.007e-09
6.353e-09
6.728e-09
7.133e-09
7.57e-09
8.039e-09
8.542e-09
9.08e-09
9.652e-09
1.026e-08
1.089e-08
1.187e-08
4.955e-54
-4.893e-53
3.754e-52
-2.668e-51
1.759e-50
-1.085e-49
6.32e-49
-3.508e-48
1.873e-47
-9.686e-47
4.872e-46
-2.378e-45
1.113e-44
-4.855e-44
1.852e-43
-5.116e-43
-1.415e-43
1.783e-41
-1.774e-40
1.204e-39
-5.693e-39
5.133e-39
2.725e-37
-4.81e-36
5.213e-35
-4.778e-34
4.043e-33
-3.247e-32
2.508e-31
-1.876e-30
1.365e-29
-9.669e-29
6.678e-28
-4.496e-27
2.95e-26
-1.884e-25
1.171e-24
-7.063e-24
4.171e-23
-2.287e-22
1.312e-21
-5.352e-21
1.895e-19
3.161e-18
3.131e-17
2.704e-16
2.152e-15
1.583e-14
1.071e-13
6.634e-13
3.75e-12
1.927e-11
8.973e-11
3.775e-10
1.431e-09
4.883e-09
1.496e-08
4.114e-08
1.013e-07
2.236e-07
4.422e-07
7.85e-07
1.255e-06
1.812e-06
2.384e-06
2.891e-06
3.262e-06
3.432e-06
3.363e-06
3.161e-06
2.843e-06
2.457e-06
2.051e-06
1.663e-06
1.316e-06
1.022e-06
7.826e-07
5.931e-07
4.467e-07
3.356e-07
2.524e-07
1.906e-07
1.449e-07
1.111e-07
8.608e-08
6.753e-08
5.369e-08
4.33e-08
3.544e-08
2.946e-08
2.486e-08
2.13e-08
1.853e-08
1.636e-08
1.466e-08
1.331e-08
1.224e-08
1.141e-08
1.076e-08
1.025e-08
9.878e-09
9.608e-09
9.434e-09
9.319e-09
9.32e-09
9.364e-09
9.466e-09
9.626e-09
9.842e-09
1.011e-08
1.043e-08
1.081e-08
1.124e-08
1.172e-08
1.225e-08
1.285e-08
1.349e-08
1.42e-08
1.497e-08
1.58e-08
1.669e-08
1.765e-08
1.868e-08
1.978e-08
2.095e-08
2.219e-08
2.346e-08
2.546e-08
-2.878e-53
2.819e-52
-2.187e-51
1.6e-50
-1.104e-49
7.216e-49
-4.509e-48
2.72e-47
-1.605e-46
9.404e-46
-5.565e-45
3.373e-44
-2.11e-43
1.366e-42
-9.055e-42
5.983e-41
-3.985e-40
2.697e-39
-1.813e-38
1.208e-37
-7.983e-37
5.211e-36
-3.485e-35
2.242e-34
-1.456e-33
9.519e-33
-6.229e-32
4.073e-31
-2.656e-30
1.723e-29
-1.109e-28
7.076e-28
-4.459e-27
2.77e-26
-1.692e-25
1.015e-24
-5.957e-24
3.429e-23
-1.879e-22
1.16e-21
-4.872e-21
1.616e-19
2.959e-18
3.219e-17
3.08e-16
2.728e-15
2.236e-14
1.688e-13
1.168e-12
7.369e-12
4.223e-11
2.188e-10
1.022e-09
4.286e-09
1.611e-08
5.412e-08
1.623e-07
4.335e-07
1.031e-06
2.179e-06
4.107e-06
6.915e-06
1.044e-05
1.419e-05
1.754e-05
2.004e-05
2.122e-05
2.076e-05
1.942e-05
1.732e-05
1.479e-05
1.216e-05
9.687e-06
7.513e-06
5.702e-06
4.255e-06
3.136e-06
2.292e-06
1.668e-06
1.213e-06
8.843e-07
6.485e-07
4.795e-07
3.583e-07
2.71e-07
2.078e-07
1.617e-07
1.279e-07
1.027e-07
8.389e-08
6.965e-08
5.877e-08
5.04e-08
4.39e-08
3.882e-08
3.482e-08
3.168e-08
2.92e-08
2.725e-08
2.573e-08
2.457e-08
2.369e-08
2.306e-08
2.265e-08
2.238e-08
2.238e-08
2.248e-08
2.271e-08
2.307e-08
2.356e-08
2.417e-08
2.49e-08
2.575e-08
2.672e-08
2.78e-08
2.9e-08
3.033e-08
3.177e-08
3.335e-08
3.505e-08
3.689e-08
3.886e-08
4.097e-08
4.322e-08
4.561e-08
4.816e-08
5.074e-08
5.483e-08
1.302e-52
-1.272e-51
9.951e-51
-7.448e-50
5.314e-49
-3.61e-48
2.33e-47
-1.424e-46
8.176e-46
-4.36e-45
2.103e-44
-8.575e-44
2.312e-43
7.661e-43
-1.581e-41
1.574e-40
-1.316e-39
9.797e-39
-6.747e-38
4.351e-37
-2.643e-36
1.408e-35
-1.017e-34
3.663e-34
-6.415e-34
-4.058e-33
7.449e-32
-7.677e-31
6.602e-30
-5.166e-29
3.802e-28
-2.674e-27
1.813e-26
-1.19e-25
7.589e-25
-4.706e-24
2.842e-23
-1.66e-22
9.908e-22
-3.616e-21
1.08e-19
2.2e-18
2.63e-17
2.783e-16
2.733e-15
2.491e-14
2.095e-13
1.617e-12
1.139e-11
7.283e-11
4.205e-10
2.183e-09
1.015e-08
4.209e-08
1.553e-07
5.088e-07
1.476e-06
3.789e-06
8.585e-06
1.72e-05
3.063e-05
4.862e-05
6.915e-05
8.819e-05
0.0001028
0.0001111
0.0001091
0.0001023
9.132e-05
7.783e-05
6.373e-05
5.041e-05
3.872e-05
2.903e-05
2.133e-05
1.544e-05
1.105e-05
7.854e-06
5.566e-06
3.947e-06
2.81e-06
2.015e-06
1.459e-06
1.068e-06
7.931e-07
5.976e-07
4.576e-07
3.563e-07
2.821e-07
2.274e-07
1.864e-07
1.555e-07
1.318e-07
1.137e-07
9.952e-08
8.846e-08
7.977e-08
7.292e-08
6.752e-08
6.328e-08
5.997e-08
5.744e-08
5.555e-08
5.421e-08
5.334e-08
5.281e-08
5.284e-08
5.311e-08
5.367e-08
5.453e-08
5.567e-08
5.707e-08
5.874e-08
6.067e-08
6.286e-08
6.53e-08
6.8e-08
7.096e-08
7.419e-08
7.769e-08
8.146e-08
8.551e-08
8.984e-08
9.446e-08
9.936e-08
1.046e-07
1.098e-07
1.182e-07
-5.041e-52
4.411e-51
-3.322e-50
2.581e-49
-2.034e-48
1.604e-47
-1.25e-46
9.565e-46
-7.152e-45
5.223e-44
-3.728e-43
2.607e-42
-1.789e-41
1.209e-40
-8.058e-40
5.31e-39
-3.465e-38
2.242e-37
-1.44e-36
9.19e-36
-5.829e-35
3.676e-34
-2.305e-33
1.436e-32
-8.895e-32
5.468e-31
-3.337e-30
2.02e-29
-1.213e-28
7.212e-28
-4.247e-27
2.475e-26
-1.426e-25
8.115e-25
-4.557e-24
2.524e-23
-1.371e-22
7.547e-22
-3.415e-21
4.106e-20
1.246e-18
1.69e-17
1.977e-16
2.146e-15
2.166e-14
2.024e-13
1.739e-12
1.365e-11
9.734e-11
6.264e-10
3.618e-09
1.865e-08
8.545e-08
3.465e-07
1.239e-06
3.9e-06
1.078e-05
2.614e-05
5.556e-05
0.0001041
0.0001734
0.000258
0.0003444
0.0004127
0.0004631
0.0004592
0.0004364
0.0003941
0.0003395
0.0002804
0.0002233
0.0001723
0.0001294
9.494e-05
6.837e-05
4.852e-05
3.407e-05
2.377e-05
1.655e-05
1.153e-05
8.078e-06
5.702e-06
4.067e-06
2.938e-06
2.153e-06
1.602e-06
1.213e-06
9.345e-07
7.328e-07
5.851e-07
4.756e-07
3.934e-07
3.311e-07
2.834e-07
2.465e-07
2.177e-07
1.951e-07
1.773e-07
1.632e-07
1.521e-07
1.434e-07
1.366e-07
1.315e-07
1.277e-07
1.25e-07
1.234e-07
1.226e-07
1.228e-07
1.236e-07
1.251e-07
1.271e-07
1.298e-07
1.331e-07
1.369e-07
1.413e-07
1.463e-07
1.518e-07
1.578e-07
1.645e-07
1.716e-07
1.794e-07
1.877e-07
1.966e-07
2.061e-07
2.161e-07
2.268e-07
2.376e-07
2.547e-07
-2.828e-51
2.742e-50
-2.169e-49
1.667e-48
-1.238e-47
8.898e-47
-6.205e-46
4.213e-45
-2.796e-44
1.821e-43
-1.169e-42
7.423e-42
-4.678e-41
2.934e-40
-1.835e-39
1.147e-38
-7.173e-38
4.491e-37
-2.818e-36
1.773e-35
-1.119e-34
7.095e-34
-4.521e-33
2.89e-32
-1.837e-31
1.16e-30
-7.287e-30
4.548e-29
-2.82e-28
1.736e-27
-1.061e-26
6.427e-26
-3.86e-25
2.296e-24
-1.352e-23
7.884e-23
-4.482e-22
2.756e-21
-1.153e-20
3.668e-19
8.229e-18
1.1e-16
1.315e-15
1.463e-14
1.512e-13
1.441e-12
1.258e-11
9.992e-11
7.164e-10
4.605e-09
2.636e-08
1.335e-07
5.953e-07
2.326e-06
7.929e-06
2.353e-05
6.076e-05
0.0001365
0.0002678
0.0004631
0.0007147
0.0009891
0.001233
0.001415
0.001468
0.001423
0.001314
0.001158
0.0009795
0.0007986
0.0006297
0.0004819
0.0003593
0.0002618
0.0001872
0.0001318
9.176e-05
6.346e-05
4.378e-05
3.024e-05
2.099e-05
1.469e-05
1.039e-05
7.444e-06
5.415e-06
4.003e-06
3.011e-06
2.306e-06
1.798e-06
1.428e-06
1.155e-06
9.515e-07
7.974e-07
6.797e-07
5.888e-07
5.18e-07
4.626e-07
4.188e-07
3.842e-07
3.568e-07
3.353e-07
3.183e-07
3.053e-07
2.955e-07
2.884e-07
2.838e-07
2.807e-07
2.804e-07
2.813e-07
2.837e-07
2.874e-07
2.925e-07
2.989e-07
3.066e-07
3.154e-07
3.255e-07
3.367e-07
3.491e-07
3.626e-07
3.773e-07
3.932e-07
4.102e-07
4.285e-07
4.479e-07
4.685e-07
4.904e-07
5.123e-07
5.475e-07
5.795e-51
-5.62e-50
4.452e-49
-3.429e-48
2.556e-47
-1.845e-46
1.291e-45
-8.767e-45
5.791e-44
-3.73e-43
2.351e-42
-1.454e-41
8.873e-41
-5.364e-40
3.229e-39
-1.947e-38
1.183e-37
-7.266e-37
4.532e-36
-2.874e-35
1.853e-34
-1.213e-33
8.037e-33
-5.351e-32
3.525e-31
-2.293e-30
1.475e-29
-9.392e-29
5.921e-28
-3.7e-27
2.291e-26
-1.407e-25
8.573e-25
-5.179e-24
3.106e-23
-1.838e-22
1.134e-21
-4.031e-21
1.383e-19
3.349e-18
4.833e-17
6.297e-16
7.68e-15
8.733e-14
9.195e-13
8.899e-12
7.853e-11
6.268e-10
4.486e-09
2.856e-08
1.604e-07
7.886e-07
3.374e-06
1.249e-05
3.982e-05
0.0001092
0.0002581
0.0005277
0.0009453
0.001491
0.002113
0.0027
0.00315
0.003429
0.00339
0.003224
0.002938
0.002581
0.002194
0.001803
0.001434
0.001107
0.0008323
0.0006107
0.0004389
0.0003101
0.0002164
0.0001497
0.0001032
7.122e-05
4.935e-05
3.446e-05
2.433e-05
1.74e-05
1.263e-05
9.322e-06
7.001e-06
5.353e-06
4.17e-06
3.308e-06
2.673e-06
2.199e-06
1.841e-06
1.567e-06
1.356e-06
1.192e-06
1.063e-06
9.611e-07
8.804e-07
8.164e-07
7.657e-07
7.258e-07
6.948e-07
6.711e-07
6.537e-07
6.416e-07
6.341e-07
6.304e-07
6.316e-07
6.355e-07
6.424e-07
6.522e-07
6.648e-07
6.8e-07
6.978e-07
7.182e-07
7.41e-07
7.663e-07
7.939e-07
8.241e-07
8.566e-07
8.916e-07
9.289e-07
9.687e-07
1.011e-06
1.056e-06
1.1e-06
1.172e-06
-1.549e-50
1.394e-49
-1.059e-48
8.109e-48
-6.195e-47
4.701e-46
-3.531e-45
2.616e-44
-1.908e-43
1.367e-42
-9.629e-42
6.66e-41
-4.527e-40
3.025e-39
-1.99e-38
1.289e-37
-8.239e-37
5.198e-36
-3.24e-35
1.998e-34
-1.219e-33
7.368e-33
-4.413e-32
2.618e-31
-1.542e-30
9.029e-30
-5.26e-29
3.049e-28
-1.76e-27
1.012e-26
-5.794e-26
3.306e-25
-1.88e-24
1.066e-23
-6.01e-23
3.457e-22
-1.523e-21
3.079e-20
1.038e-18
1.668e-17
2.368e-16
3.147e-15
3.915e-14
4.53e-13
4.84e-12
4.733e-11
4.199e-10
3.348e-09
2.376e-08
1.485e-07
8.098e-07
3.818e-06
1.544e-05
5.322e-05
0.0001558
0.0003872
0.0008235
0.001516
0.002487
0.003531
0.004592
0.005499
0.006006
0.006156
0.005971
0.005603
0.005131
0.004603
0.003992
0.003339
0.002707
0.002133
0.001634
0.00122
0.0008905
0.0006374
0.0004495
0.0003139
0.000218
0.0001513
0.0001054
7.39e-05
5.236e-05
3.758e-05
2.738e-05
2.027e-05
1.527e-05
1.171e-05
9.144e-06
7.274e-06
5.892e-06
4.858e-06
4.075e-06
3.476e-06
3.013e-06
2.651e-06
2.367e-06
2.142e-06
1.963e-06
1.821e-06
1.708e-06
1.618e-06
1.549e-06
1.495e-06
1.455e-06
1.426e-06
1.409e-06
1.397e-06
1.399e-06
1.405e-06
1.418e-06
1.437e-06
1.462e-06
1.493e-06
1.529e-06
1.57e-06
1.616e-06
1.668e-06
1.725e-06
1.786e-06
1.853e-06
1.924e-06
2.001e-06
2.082e-06
2.168e-06
2.259e-06
2.35e-06
2.496e-06
-5.4e-50
5.041e-49
-3.924e-48
3.043e-47
-2.331e-46
1.758e-45
-1.304e-44
9.492e-44
-6.781e-43
4.753e-42
-3.27e-41
2.211e-40
-1.47e-39
9.621e-39
-6.211e-38
3.959e-37
-2.495e-36
1.557e-35
-9.629e-35
5.91e-34
-3.603e-33
2.183e-32
-1.316e-31
7.899e-31
-4.721e-30
2.809e-29
-1.665e-28
9.835e-28
-5.796e-27
3.409e-26
-2.003e-25
1.176e-24
-6.907e-24
4.061e-23
-2.385e-22
1.447e-21
-6.535e-21
1.287e-19
4.321e-18
7.025e-17
1.015e-15
1.373e-14
1.736e-13
2.037e-12
2.198e-11
2.163e-10
1.921e-09
1.521e-08
1.063e-07
6.475e-07
3.396e-06
1.517e-05
5.717e-05
0.0001807
0.0004777
0.001062
0.002011
0.003336
0.005126
0.006492
0.007917
0.01029
0.01036
0.01022
0.01028
0.01036
0.009953
0.007619
0.006316
0.005325
0.004427
0.003573
0.002802
0.002138
0.001591
0.00116
0.0008316
0.0005894
0.0004149
0.0002914
0.0002052
0.0001454
0.000104
7.527e-05
5.527e-05
4.124e-05
3.13e-05
2.417e-05
1.9e-05
1.521e-05
1.239e-05
1.027e-05
8.66e-06
7.42e-06
6.458e-06
5.703e-06
5.108e-06
4.635e-06
4.259e-06
3.958e-06
3.719e-06
3.529e-06
3.379e-06
3.264e-06
3.178e-06
3.116e-06
3.077e-06
3.05e-06
3.052e-06
3.064e-06
3.089e-06
3.127e-06
3.177e-06
3.24e-06
3.313e-06
3.398e-06
3.493e-06
3.598e-06
3.714e-06
3.84e-06
3.976e-06
4.122e-06
4.278e-06
4.444e-06
4.619e-06
4.804e-06
4.988e-06
5.284e-06
-8.883e-50
8.655e-49
-6.953e-48
5.485e-47
-4.22e-46
3.166e-45
-2.316e-44
1.653e-43
-1.152e-42
7.864e-42
-5.263e-41
3.462e-40
-2.243e-39
1.436e-38
-9.096e-38
5.717e-37
-3.572e-36
2.223e-35
-1.381e-34
8.569e-34
-5.321e-33
3.31e-32
-2.066e-31
1.287e-30
-7.979e-30
4.93e-29
-3.037e-28
1.867e-27
-1.147e-26
7.043e-26
-4.329e-25
2.666e-24
-1.646e-23
1.021e-22
-6.326e-22
4.151e-21
-1.614e-20
5.926e-19
1.615e-17
2.6e-16
3.805e-15
5.223e-14
6.691e-13
7.932e-12
8.623e-11
8.506e-10
7.526e-09
5.898e-08
4.037e-07
2.38e-06
1.19e-05
4.985e-05
0.000173
0.0004947
0.001169
0.002314
0.003897
0.005982
0.008922
0.01032
0.01004
0.01305
0.01293
0.01027
0.01046
0.01344
0.01201
0.01008
0.01033
0.009162
0.006845
0.005474
0.004342
0.003371
0.002557
0.0019
0.001389
0.001003
0.0007184
0.000513
0.0003669
0.0002637
0.0001913
0.0001403
0.0001044
7.881e-05
6.049e-05
4.722e-05
3.75e-05
3.031e-05
2.491e-05
2.083e-05
1.769e-05
1.527e-05
1.337e-05
1.188e-05
1.07e-05
9.752e-06
8.997e-06
8.393e-06
7.909e-06
7.525e-06
7.223e-06
6.99e-06
6.815e-06
6.689e-06
6.611e-06
6.558e-06
6.562e-06
6.587e-06
6.64e-06
6.719e-06
6.823e-06
6.952e-06
7.104e-06
7.278e-06
7.473e-06
7.69e-06
7.927e-06
8.184e-06
8.462e-06
8.759e-06
9.075e-06
9.411e-06
9.764e-06
1.014e-05
1.051e-05
1.11e-05
1.419e-49
-1.323e-48
1.029e-47
-7.966e-47
6.088e-46
-4.585e-45
3.396e-44
-2.472e-43
1.766e-42
-1.24e-41
8.542e-41
-5.785e-40
3.853e-39
-2.527e-38
1.634e-37
-1.042e-36
6.574e-36
-4.103e-35
2.538e-34
-1.558e-33
9.497e-33
-5.76e-32
3.48e-31
-2.089e-30
1.248e-29
-7.445e-29
4.434e-28
-2.641e-27
1.575e-26
-9.416e-26
5.651e-25
-3.41e-24
2.072e-23
-1.265e-22
8.062e-22
-3.725e-21
8.954e-20
3.087e-18
5.373e-17
8.438e-16
1.249e-14
1.735e-13
2.245e-12
2.682e-11
2.928e-10
2.888e-09
2.539e-08
1.961e-07
1.31e-06
7.434e-06
3.522e-05
0.0001371
0.0004339
0.001114
0.002348
0.004183
0.006377
0.01006
0.01015
0.011
0.009984
0.009986
0.00997
0.00997
0.00997
0.009972
0.01003
0.01
0.01099
0.01025
0.01028
0.007812
0.006186
0.004901
0.003786
0.002863
0.002131
0.001567
0.001144
0.0008328
0.0006068
0.0004444
0.000328
0.0002448
0.0001851
0.000142
0.0001106
8.76e-05
7.052e-05
5.771e-05
4.801e-05
4.057e-05
3.482e-05
3.033e-05
2.68e-05
2.4e-05
2.176e-05
1.997e-05
1.853e-05
1.737e-05
1.645e-05
1.571e-05
1.513e-05
1.469e-05
1.435e-05
1.412e-05
1.397e-05