/*--------------------------------*- C++ -*----------------------------------*\
  =========                 |
  \\      /  F ield         | OpenFOAM: The Open Source CFD Toolbox
   \\    /   O peration     | Website:  https://openfoam.org
    \\  /    A nd           | Version:  7
     \\/     M anipulation  |
\*---------------------------------------------------------------------------*/
FoamFile
{
    version     2.0;
    format      ascii;
    class       volScalarField;
    location    "2700";
    object      Ci;
}
// * * * * * * * * * * * * * * * * * * * * * * * * * * * * * * * * * * * * * //

dimensions      [0 -3 0 0 1 0 0];

internalField   nonuniform List<scalar> 
8192
(
9.99999999803
10.0000000069
10.0000000192
10.0000000358
10.0000000584
10.0000000869
10.0000001212
10.0000001609
10.0000002057
10.0000002552
10.0000003092
10.0000003671
10.0000004282
10.0000004917
10.0000005565
10.0000006218
10.0000006867
10.0000007502
10.000000812
10.0000008725
10.0000009314
10.0000009879
10.0000010408
10.0000010892
10.0000011319
10.0000011679
10.0000011964
10.0000012162
10.0000012267
10.0000012268
10.000001216
10.0000011934
10.0000011585
10.0000011106
10.0000010495
10.000000975
10.0000008879
10.0000007899
10.0000006816
10.000000563
10.0000004343
10.0000002958
10.0000001478
9.99999999076
9.99999982553
9.99999965292
9.99999947406
9.99999929018
9.99999910279
9.99999891353
9.99999872431
9.99999853718
9.99999835452
9.99999817888
9.99999801324
9.99999786074
9.99999772502
9.99999760976
9.99999751899
9.99999745643
9.99999742582
9.99999743018
9.99999747226
9.99999755394
9.99999767685
9.9999978419
9.99999804991
9.99999830107
9.9999985955
9.99999893261
9.9999993117
9.99999973141
10.0000001902
10.0000006859
10.0000012158
10.0000017765
10.000002364
10.0000029733
10.0000035989
10.0000042348
10.0000048747
10.0000055122
10.000006141
10.0000067553
10.0000073498
10.0000079197
10.0000084613
10.0000089715
10.000009448
10.0000098895
10.000010296
10.0000106703
10.0000110169
10.0000113367
10.0000116296
10.0000118955
10.0000121345
10.0000123472
10.0000125342
10.0000126964
10.0000128349
10.0000129511
10.0000130462
10.0000131216
10.0000131787
10.000013219
10.0000132439
10.0000132548
10.000013253
10.0000132399
10.0000132165
10.0000131843
10.0000131442
10.0000130974
10.0000130449
10.0000129879
10.0000129273
10.0000128643
10.0000127997
10.0000127345
10.0000126692
10.0000126036
10.0000125369
10.0000124674
10.0000123929
10.0000123135
10.0000122338
10.0000121728
10.0000000008
10.0000000098
10.0000000228
10.000000041
10.0000000668
10.0000000997
10.000000139
10.0000001842
10.0000002347
10.0000002898
10.0000003491
10.0000004119
10.0000004776
10.0000005454
10.0000006146
10.0000006845
10.0000007542
10.0000008231
10.0000008904
10.0000009585
10.0000010267
10.0000010932
10.0000011571
10.0000012171
10.0000012724
10.0000013219
10.0000013649
10.0000014004
10.0000014276
10.0000014458
10.0000014541
10.0000014519
10.0000014385
10.0000014134
10.0000013761
10.0000013261
10.0000012647
10.0000011954
10.0000011173
10.0000010295
10.0000009317
10.0000008238
10.0000007055
10.0000005768
10.0000004376
10.0000002881
10.0000001285
9.99999995909
9.99999978056
9.99999959374
9.99999939992
9.99999920069
9.99999899823
9.99999879513
9.99999859466
9.99999840051
9.99999821708
9.99999804901
9.99999790147
9.99999777949
9.99999768823
9.99999763228
9.99999761596
9.99999764274
9.99999771561
9.99999783665
9.9999980074
9.99999822845
9.99999849981
9.99999882049
9.99999918895
9.99999960279
10.0000000592
10.0000005546
10.0000010851
10.0000016461
10.0000022326
10.0000028393
10.0000034602
10.0000040895
10.000004721
10.0000053489
10.0000059675
10.0000065715
10.000007156
10.000007717
10.0000082509
10.0000087548
10.0000092267
10.0000096651
10.0000100693
10.0000104444
10.0000107986
10.0000111279
10.0000114307
10.0000117064
10.000011955
10.0000121768
10.0000123727
10.0000125434
10.0000126902
10.0000128142
10.0000129168
10.0000129993
10.0000130632
10.0000131097
10.0000131405
10.0000131568
10.00001316
10.0000131514
10.0000131322
10.0000131037
10.0000130669
10.000013023
10.0000129731
10.0000129182
10.0000128595
10.0000127978
10.0000127343
10.0000126697
10.0000126047
10.0000125392
10.0000124723
10.0000124021
10.000012326
10.000012244
10.0000121615
10.0000120865
10.0000000017
10.0000000108
10.0000000249
10.0000000473
10.0000000775
10.0000001162
10.000000164
10.0000002208
10.0000002856
10.0000003579
10.0000004365
10.0000005205
10.0000006089
10.0000007006
10.0000007947
10.0000008904
10.0000009868
10.0000010832
10.0000011789
10.0000012741
10.0000013687
10.0000014624
10.0000015547
10.000001645
10.0000017325
10.0000018165
10.0000018964
10.0000019712
10.0000020402
10.0000021026
10.0000021576
10.0000022043
10.000002242
10.0000022698
10.000002287
10.0000022927
10.0000022865
10.0000022685
10.0000022386
10.0000021962
10.0000021408
10.0000020716
10.0000019881
10.0000018894
10.0000017752
10.0000016449
10.0000014987
10.0000013364
10.000001159
10.0000009671
10.0000007624
10.0000005466
10.000000322
10.0000000914
9.99999985794
9.99999962517
9.99999939731
9.99999917856
9.99999897395
9.99999878821
9.99999862679
9.99999849448
9.99999839652
9.99999833723
9.99999832113
9.99999835158
9.99999843196
9.99999856434
9.99999875049
9.99999899074
9.99999928489
9.99999963132
10.0000000278
10.0000004709
10.0000009566
10.0000014798
10.0000020352
10.0000026164
10.0000032171
10.0000038308
10.0000044509
10.0000050709
10.0000056851
10.0000062877
10.0000068739
10.0000074393
10.0000079801
10.0000084934
10.0000089768
10.0000094286
10.0000098475
10.0000102339
10.0000105906
10.0000109188
10.0000112193
10.0000114926
10.0000117393
10.0000119601
10.0000121556
10.0000123269
10.0000124749
10.0000126007
10.0000127056
10.0000127906
10.0000128572
10.0000129067
10.0000129403
10.0000129593
10.0000129651
10.0000129589
10.0000129418
10.0000129151
10.0000128798
10.0000128371
10.0000127879
10.0000127333
10.0000126744
10.0000126121
10.0000125475
10.0000124813
10.0000124143
10.0000123467
10.0000122781
10.0000122071
10.0000121304
10.0000120481
10.0000119652
10.000011868
10.0000000017
10.0000000122
10.0000000274
10.0000000536
10.0000000905
10.0000001367
10.0000001898
10.0000002529
10.0000003261
10.000000409
10.0000005009
10.0000006011
10.0000007085
10.000000822
10.0000009406
10.0000010632
10.0000011887
10.0000013162
10.0000014449
10.000001574
10.000001703
10.0000018315
10.0000019591
10.0000020852
10.0000022094
10.0000023309
10.0000024489
10.0000025628
10.0000026716
10.0000027745
10.0000028707
10.000002959
10.0000030387
10.0000031087
10.0000031681
10.0000032159
10.0000032511
10.0000032729
10.0000032807
10.0000032738
10.0000032514
10.0000032129
10.0000031576
10.0000030851
10.0000029949
10.0000028871
10.0000027618
10.0000026194
10.0000024609
10.0000022874
10.0000021004
10.0000019015
10.0000016927
10.0000014762
10.0000012544
10.0000010298
10.0000008056
10.0000005848
10.0000003715
10.0000001693
9.99999998267
9.99999981585
9.99999967342
9.99999955953
9.99999947843
9.99999943381
9.99999942929
9.99999946779
9.99999955196
9.99999968351
9.99999986373
10.0000000928
10.0000003704
10.000000695
10.0000010645
10.0000014757
10.0000019248
10.0000024068
10.0000029167
10.0000034484
10.0000039962
10.0000045538
10.0000051153
10.0000056748
10.0000062272
10.0000067674
10.0000072912
10.0000077949
10.0000082754
10.0000087303
10.0000091576
10.0000095559
10.0000099253
10.0000102659
10.0000105784
10.0000108633
10.0000111215
10.0000113537
10.0000115607
10.0000117433
10.0000119026
10.0000120397
10.0000121556
10.0000122514
10.0000123284
10.0000123879
10.000012431
10.0000124591
10.0000124732
10.0000124748
10.0000124649
10.0000124448
10.0000124155
10.0000123782
10.0000123338
10.0000122835
10.0000122283
10.000012169
10.0000121068
10.0000120424
10.0000119766
10.0000119099
10.0000118421
10.0000117726
10.0000117001
10.0000116239
10.0000115507
10.0000114417
10.0000000022
10.0000000146
10.0000000317
10.0000000611
10.0000001034
10.0000001559
10.0000002165
10.0000002825
10.0000003576
10.0000004424
10.0000005369
10.0000006407
10.0000007529
10.000000873
10.0000009999
10.0000011328
10.0000012706
10.0000014125
10.0000015573
10.0000017043
10.0000018524
10.0000020009
10.0000021491
10.0000022963
10.0000024416
10.0000025843
10.0000027235
10.0000028584
10.0000029881
10.0000031117
10.0000032282
10.0000033368
10.0000034365
10.0000035265
10.0000036057
10.0000036733
10.0000037285
10.0000037705
10.0000037986
10.0000038121
10.0000038106
10.0000037935
10.0000037605
10.0000037114
10.0000036463
10.0000035651
10.0000034685
10.0000033569
10.0000032312
10.0000030924
10.0000029418
10.0000027804
10.0000026099
10.0000024315
10.0000022472
10.0000020585
10.0000018678
10.0000016773
10.0000014902
10.0000013093
10.0000011384
10.0000009809
10.0000008408
10.0000007214
10.0000006262
10.0000005582
10.0000005202
10.0000005145
10.0000005434
10.0000006084
10.0000007109
10.0000008514
10.0000010304
10.0000012475
10.000001502
10.0000017923
10.0000021165
10.0000024719
10.0000028552
10.0000032626
10.0000036902
10.0000041333
10.0000045876
10.0000050483
10.0000055109
10.0000059711
10.0000064247
10.0000068681
10.000007298
10.0000077114
10.000008106
10.0000084797
10.0000088312
10.0000091595
10.0000094641
10.0000097449
10.0000100019
10.0000102355
10.000010446
10.0000106342
10.0000108006
10.0000109462
10.0000110717
10.0000111781
10.0000112666
10.0000113381
10.0000113938
10.0000114349
10.0000114624
10.0000114775
10.0000114814
10.0000114751
10.0000114598
10.0000114365
10.0000114063
10.0000113701
10.000011329
10.000011284
10.0000112359
10.0000111856
10.000011134
10.0000110813
10.0000110279
10.0000109733
10.0000109166
10.0000108594
10.0000108041
10.000010731
10.0000000023
10.0000000171
10.0000000355
10.0000000675
10.0000001143
10.0000001724
10.0000002387
10.0000003111
10.0000003878
10.0000004717
10.0000005643
10.0000006655
10.0000007748
10.0000008918
10.0000010157
10.0000011459
10.0000012815
10.0000014218
10.0000015657
10.0000017125
10.0000018612
10.0000020109
10.0000021608
10.00000231
10.0000024575
10.0000026026
10.0000027443
10.0000028818
10.0000030141
10.0000031405
10.0000032599
10.0000033718
10.0000034752
10.0000035694
10.0000036535
10.0000037272
10.0000037894
10.0000038398
10.0000038776
10.0000039026
10.0000039142
10.0000039122
10.0000038964
10.0000038666
10.0000038228
10.0000037653
10.0000036944
10.0000036106
10.0000035146
10.0000034072
10.0000032891
10.0000031614
10.0000030251
10.0000028812
10.000002731
10.000002576
10.0000024178
10.0000022586
10.0000021011
10.0000019483
10.0000018035
10.0000016703
10.0000015521
10.0000014523
10.0000013736
10.0000013183
10.0000012882
10.0000012847
10.0000013088
10.000001361
10.0000014417
10.0000015507
10.0000016878
10.0000018522
10.0000020433
10.0000022598
10.0000025003
10.0000027632
10.0000030464
10.0000033477
10.0000036648
10.000003995
10.0000043355
10.0000046835
10.000005036
10.0000053901
10.0000057429
10.0000060917
10.0000064338
10.0000067668
10.0000070887
10.0000073975
10.0000076917
10.0000079699
10.0000082312
10.0000084749
10.0000087005
10.0000089079
10.000009097
10.0000092681
10.0000094215
10.0000095576
10.000009677
10.0000097804
10.0000098686
10.0000099425
10.0000100029
10.0000100507
10.000010087
10.0000101128
10.0000101289
10.0000101365
10.0000101366
10.00001013
10.0000101177
10.0000101007
10.0000100799
10.0000100561
10.0000100302
10.0000100029
10.0000099751
10.0000099471
10.0000099193
10.0000098915
10.0000098625
10.0000098363
10.0000098057
10.0000097868
10.0000000028
10.0000000196
10.0000000394
10.0000000731
10.0000001233
10.000000186
10.0000002574
10.0000003345
10.000000416
10.0000005004
10.0000005909
10.0000006885
10.0000007933
10.0000009048
10.0000010225
10.0000011457
10.0000012738
10.0000014061
10.0000015418
10.0000016802
10.0000018204
10.0000019616
10.0000021029
10.0000022437
10.0000023829
10.0000025199
10.0000026537
10.0000027837
10.0000029087
10.0000030287
10.000003142
10.000003249
10.0000033479
10.0000034394
10.0000035214
10.000003595
10.000003658
10.0000037116
10.0000037538
10.0000037856
10.0000038056
10.0000038141
10.0000038106
10.000003795
10.0000037674
10.0000037276
10.0000036761
10.0000036131
10.000003539
10.0000034545
10.0000033601
10.0000032565
10.0000031446
10.0000030251
10.000002899
10.0000027673
10.0000026317
10.000002494
10.0000023569
10.0000022233
10.0000020969
10.0000019814
10.0000018807
10.0000017982
10.0000017367
10.0000016984
10.0000016847
10.0000016964
10.0000017339
10.0000017967
10.0000018843
10.0000019957
10.0000021294
10.000002284
10.0000024577
10.0000026487
10.0000028551
10.0000030748
10.000003306
10.0000035468
10.0000037953
10.0000040499
10.0000043089
10.0000045707
10.0000048336
10.000005096
10.0000053565
10.0000056134
10.0000058652
10.0000061107
10.0000063485
10.0000065774
10.0000067962
10.0000070042
10.0000072005
10.0000073845
10.0000075558
10.0000077141
10.0000078593
10.0000079915
10.0000081108
10.0000082174
10.0000083118
10.0000083945
10.000008466
10.000008527
10.0000085783
10.0000086205
10.0000086544
10.000008681
10.0000087009
10.0000087151
10.0000087243
10.0000087295
10.0000087313
10.0000087306
10.0000087282
10.0000087247
10.0000087209
10.0000087174
10.000008715
10.0000087135
10.000008714
10.0000087156
10.0000087179
10.0000087244
10.0000087251
10.0000087493
10.0000000028
10.0000000216
10.0000000422
10.0000000769
10.0000001292
10.0000001957
10.0000002715
10.0000003531
10.0000004383
10.0000005267
10.0000006166
10.0000007121
10.0000008134
10.0000009203
10.0000010324
10.0000011491
10.0000012699
10.000001394
10.0000015209
10.0000016499
10.0000017801
10.0000019111
10.0000020419
10.0000021721
10.0000023005
10.0000024271
10.0000025502
10.0000026705
10.0000027857
10.0000028973
10.0000030019
10.0000031026
10.0000031944
10.0000032822
10.0000033593
10.0000034323
10.0000034933
10.0000035494
10.000003593
10.0000036303
10.0000036555
10.0000036724
10.0000036779
10.0000036734
10.0000036581
10.000003632
10.0000035953
10.000003548
10.0000034906
10.0000034232
10.0000033465
10.0000032607
10.0000031664
10.0000030641
10.0000029542
10.0000028376
10.0000027155
10.0000025895
10.0000024622
10.0000023369
10.0000022175
10.0000021085
10.0000020143
10.0000019392
10.0000018863
10.000001858
10.0000018557
10.0000018798
10.0000019302
10.000002006
10.0000021059
10.0000022283
10.0000023711
10.0000025318
10.0000027081
10.0000028972
10.0000030965
10.0000033034
10.0000035155
10.0000037304
10.0000039463
10.0000041616
10.0000043749
10.0000045849
10.0000047907
10.0000049915
10.0000051864
10.000005375
10.0000055566
10.0000057307
10.0000058969
10.0000060547
10.0000062038
10.000006344
10.0000064749
10.0000065964
10.0000067085
10.0000068111
10.0000069044
10.0000069885
10.0000070637
10.0000071303
10.0000071888
10.0000072395
10.0000072832
10.0000073202
10.0000073514
10.0000073773
10.0000073986
10.0000074161
10.0000074304
10.0000074422
10.0000074523
10.0000074613
10.0000074698
10.0000074785
10.0000074881
10.0000074989
10.0000075118
10.0000075267
10.000007545
10.0000075654
10.0000075904
10.0000076164
10.0000076475
10.0000076795
10.0000077139
10.0000077605
10.0000000031
10.0000000233
10.0000000447
10.0000000798
10.0000001334
10.0000002024
10.0000002817
10.0000003672
10.0000004561
10.0000005476
10.0000006403
10.000000735
10.0000008343
10.0000009381
10.0000010461
10.0000011579
10.000001273
10.0000013907
10.0000015104
10.0000016317
10.0000017535
10.0000018759
10.0000019975
10.0000021186
10.0000022373
10.0000023551
10.0000024684
10.0000025809
10.0000026864
10.0000027921
10.0000028875
10.000002985
10.0000030683
10.0000031563
10.000003226
10.0000033029
10.0000033581
10.0000034216
10.0000034623
10.0000035095
10.0000035357
10.0000035638
10.0000035753
10.0000035826
10.0000035778
10.0000035642
10.0000035412
10.0000035079
10.0000034659
10.0000034139
10.0000033532
10.0000032834
10.0000032049
10.0000031176
10.0000030217
10.0000029176
10.0000028058
10.0000026878
10.0000025657
10.0000024429
10.0000023235
10.0000022127
10.0000021157
10.0000020375
10.0000019821
10.0000019525
10.0000019502
10.0000019758
10.0000020289
10.0000021086
10.0000022134
10.0000023413
10.0000024896
10.0000026557
10.0000028363
10.0000030282
10.0000032282
10.0000034331
10.0000036398
10.0000038458
10.0000040487
10.0000042467
10.0000044383
10.000004622
10.0000047971
10.0000049629
10.0000051189
10.000005265
10.000005401
10.0000055269
10.000005643
10.0000057493
10.000005846
10.0000059335
10.000006012
10.0000060819
10.0000061435
10.0000061973
10.0000062436
10.0000062831
10.0000063161
10.0000063433
10.0000063652
10.0000063824
10.0000063956
10.0000064054
10.0000064125
10.0000064176
10.0000064213
10.0000064243
10.0000064272
10.0000064308
10.0000064355
10.0000064419
10.0000064507
10.0000064622
10.0000064771
10.0000064954
10.0000065181
10.0000065445
10.0000065767
10.0000066116
10.0000066545
10.0000066967
10.0000067505
10.0000067976
10.0000068629
10.0000069146
10.0000000031
10.0000000244
10.0000000467
10.0000000818
10.0000001358
10.0000002064
10.0000002884
10.0000003772
10.0000004696
10.0000005639
10.0000006598
10.0000007554
10.0000008542
10.0000009565
10.0000010621
10.0000011708
10.0000012819
10.0000013952
10.0000015097
10.0000016254
10.0000017409
10.000001857
10.0000019713
10.0000020861
10.0000021968
10.0000023089
10.0000024135
10.0000025221
10.000002618
10.0000027229
10.0000028073
10.0000029088
10.0000029788
10.0000030772
10.0000031308
10.0000032254
10.0000032622
10.0000033497
10.000003372
10.0000034465
10.0000034587
10.0000035127
10.0000035188
10.0000035468
10.0000035472
10.000003549
10.0000035392
10.0000035192
10.0000034937
10.0000034559
10.0000034116
10.0000033569
10.0000032935
10.0000032203
10.000003137
10.0000030434
10.0000029394
10.0000028262
10.0000027051
10.0000025798
10.0000024547
10.0000023359
10.0000022297
10.0000021427
10.0000020797
10.0000020447
10.000002039
10.0000020631
10.0000021162
10.000002197
10.0000023037
10.0000024337
10.0000025845
10.0000027521
10.0000029353
10.0000031299
10.0000033318
10.0000035366
10.0000037409
10.0000039415
10.0000041357
10.0000043217
10.0000044979
10.0000046631
10.000004817
10.0000049598
10.000005091
10.0000052102
10.0000053173
10.0000054125
10.000005496
10.0000055682
10.0000056296
10.0000056809
10.0000057226
10.0000057555
10.0000057802
10.0000057975
10.0000058081
10.0000058128
10.0000058124
10.0000058077
10.0000057995
10.0000057885
10.0000057755
10.0000057613
10.0000057467
10.0000057323
10.000005719
10.0000057073
10.000005698
10.0000056916
10.0000056888
10.0000056899
10.0000056955
10.0000057059
10.0000057219
10.0000057428
10.0000057704
10.0000058025
10.0000058429
10.0000058857
10.0000059403
10.0000059911
10.0000060613
10.0000061145
10.0000062048
10.0000062511
10.0000000032
10.0000000251
10.0000000476
10.0000000825
10.0000001367
10.0000002082
10.0000002923
10.0000003838
10.0000004794
10.0000005765
10.000000675
10.0000007728
10.0000008721
10.0000009742
10.0000010787
10.0000011856
10.0000012942
10.0000014046
10.0000015154
10.0000016275
10.0000017382
10.0000018504
10.0000019588
10.0000020701
10.0000021737
10.0000022839
10.0000023796
10.0000024896
10.0000025734
10.0000026857
10.0000027526
10.0000028712
10.000002915
10.0000030446
10.0000030594
10.0000032032
10.0000031866
10.000003342
10.000003299
10.000003454
10.000003399
10.0000035328
10.0000034858
10.0000035767
10.0000035515
10.0000035907
10.0000035843
10.0000035815
10.0000035757
10.0000035484
10.0000035252
10.0000034832
10.0000034368
10.0000033779
10.0000033086
10.000003227
10.0000031332
10.0000030267
10.0000029081
10.0000027801
10.0000026476
10.0000025173
10.0000023972
10.0000022952
10.000002218
10.0000021702
10.0000021542
10.00000217
10.0000022173
10.0000022935
10.0000023983
10.0000025262
10.0000026775
10.0000028482
10.0000030339
10.0000032297
10.0000034309
10.0000036333
10.000003833
10.0000040269
10.0000042128
10.0000043885
10.0000045526
10.0000047043
10.0000048426
10.0000049677
10.0000050792
10.000005178
10.0000052644
10.0000053384
10.0000054001
10.0000054498
10.000005488
10.0000055154
10.0000055328
10.000005541
10.0000055409
10.0000055334
10.0000055195
10.0000055001
10.0000054764
10.0000054491
10.0000054192
10.0000053878
10.0000053556
10.0000053237
10.0000052927
10.0000052636
10.0000052371
10.0000052138
10.0000051946
10.0000051799
10.0000051704
10.0000051665
10.0000051687
10.0000051769
10.0000051923
10.0000052137
10.0000052435
10.000005278
10.0000053232
10.0000053696
10.0000054316
10.0000054858
10.0000055673
10.0000056207
10.0000057296
10.0000057657
10.0000000033
10.0000000254
10.0000000484
10.000000083
10.0000001366
10.0000002084
10.0000002938
10.0000003875
10.0000004858
10.0000005857
10.0000006867
10.0000007869
10.0000008877
10.0000009904
10.0000010948
10.0000012012
10.0000013084
10.0000014174
10.0000015257
10.0000016358
10.0000017428
10.0000018532
10.0000019566
10.0000020671
10.0000021636
10.0000022759
10.000002361
10.000002479
10.0000025456
10.0000026766
10.0000027141
10.0000028701
10.0000028634
10.0000030602
10.0000029919
10.0000032454
10.0000031012
10.0000034191
10.0000031992
10.0000035668
10.000003299
10.0000036702
10.0000034122
10.0000037176
10.0000035359
10.0000037184
10.0000036444
10.000003699
10.0000037018
10.0000036788
10.0000036938
10.0000036502
10.000003634
10.0000035857
10.000003533
10.0000034634
10.0000033776
10.0000032738
10.0000031541
10.0000030191
10.0000028735
10.0000027253
10.0000025844
10.0000024622
10.0000023673
10.000002306
10.0000022803
10.0000022906
10.0000023344
10.0000024112
10.0000025156
10.0000026483
10.0000028056
10.0000029822
10.0000031722
10.0000033696
10.0000035694
10.000003767
10.000003959
10.0000041426
10.0000043161
10.0000044778
10.0000046268
10.0000047624
10.000004884
10.0000049917
10.0000050855
10.0000051658
10.000005233
10.000005288
10.0000053314
10.0000053633
10.000005384
10.0000053942
10.0000053945
10.0000053857
10.0000053688
10.0000053448
10.0000053147
10.0000052796
10.0000052405
10.0000051986
10.0000051547
10.0000051101
10.0000050656
10.0000050222
10.0000049808
10.0000049422
10.0000049073
10.0000048768
10.0000048513
10.0000048315
10.0000048179
10.0000048109
10.0000048111
10.0000048181
10.0000048335
10.0000048552
10.0000048867
10.0000049226
10.0000049711
10.0000050191
10.0000050864
10.0000051412
10.0000052309
10.0000052817
10.0000054041
10.0000054295
10.0000000034
10.0000000248
10.0000000479
10.0000000822
10.0000001353
10.0000002071
10.0000002934
10.0000003888
10.0000004894
10.0000005919
10.0000006953
10.0000007978
10.0000009005
10.0000010046
10.0000011097
10.0000012164
10.0000013231
10.0000014317
10.0000015382
10.0000016477
10.0000017519
10.000001862
10.0000019608
10.000002073
10.0000021621
10.0000022801
10.0000023525
10.0000024845
10.0000025282
10.0000026892
10.0000026839
10.0000028992
10.0000028133
10.0000031208
10.0000029103
10.0000033578
10.0000029732
10.0000036058
10.0000030128
10.0000038421
10.0000030595
10.0000040231
10.0000031594
10.0000040995
10.0000033476
10.0000040552
10.0000035988
10.000003941
10.0000038205
10.000003851
10.0000039244
10.0000038307
10.0000039051
10.000003829
10.0000038187
10.0000037586
10.0000036851
10.000003587
10.0000034636
10.0000033228
10.0000031621
10.0000029893
10.0000028206
10.0000026715
10.0000025513
10.0000024646
10.0000024155
10.0000024062
10.0000024388
10.0000025097
10.0000026177
10.0000027595
10.0000029286
10.0000031167
10.000003316
10.0000035192
10.0000037205
10.0000039156
10.0000041012
10.0000042754
10.0000044367
10.0000045845
10.0000047181
10.0000048373
10.0000049421
10.0000050324
10.0000051087
10.0000051715
10.0000052212
10.0000052587
10.0000052847
10.0000053002
10.0000053055
10.000005301
10.0000052874
10.0000052654
10.0000052358
10.0000051998
10.0000051583
10.0000051123
10.000005063
10.0000050115
10.0000049589
10.000004906
10.0000048541
10.000004804
10.0000047567
10.0000047129
10.0000046736
10.0000046394
10.0000046111
10.0000045891
10.0000045742
10.0000045663
10.0000045665
10.0000045739
10.0000045905
10.0000046134
10.0000046472
10.0000046846
10.0000047365
10.0000047856
10.0000048575
10.0000049121
10.0000050082
10.0000050557
10.000005188
10.000005204
10.0000000038
10.0000000241
10.0000000479
10.0000000816
10.0000001337
10.0000002048
10.0000002913
10.000000388
10.0000004905
10.0000005952
10.000000701
10.0000008056
10.0000009106
10.0000010167
10.000001123
10.0000012308
10.0000013376
10.0000014467
10.0000015522
10.000001662
10.000001764
10.0000018751
10.0000019702
10.000002085
10.0000021677
10.0000022924
10.0000023531
10.0000025004
10.0000025213
10.0000027149
10.0000026644
10.0000029467
10.00000277
10.0000032108
10.0000028218
10.0000035249
10.0000028042
10.0000038997
10.0000027161
10.0000043192
10.0000025949
10.0000047149
10.0000025395
10.0000049597
10.0000026889
10.0000049214
10.0000031129
10.0000046004
10.0000036949
10.0000042037
10.0000041618
10.0000039926
10.0000043172
10.0000040232
10.0000042122
10.0000040833
10.0000040454
10.0000039441
10.0000038218
10.0000036684
10.0000034671
10.0000032504
10.0000030653
10.0000029046
10.0000027301
10.0000025371
10.0000023665
10.0000022692
10.0000022727
10.0000023692
10.0000025388
10.0000027532
10.0000029891
10.0000032303
10.0000034672
10.0000036941
10.0000039076
10.0000041057
10.0000042872
10.0000044517
10.0000045995
10.0000047307
10.0000048457
10.0000049449
10.0000050289
10.0000050983
10.0000051539
10.0000051965
10.000005227
10.0000052461
10.0000052548
10.0000052539
10.0000052443
10.0000052262
10.0000052
10.0000051665
10.0000051264
10.0000050806
10.0000050301
10.0000049759
10.0000049191
10.0000048608
10.0000048021
10.000004744
10.0000046875
10.0000046335
10.000004583
10.0000045368
10.0000044958
10.0000044605
10.0000044318
10.0000044098
10.0000043957
10.0000043888
10.0000043909
10.0000044
10.0000044194
10.0000044443
10.0000044816
10.0000045209
10.000004577
10.000004627
10.0000047038
10.0000047575
10.0000048598
10.000004903
10.0000050435
10.0000050498
10.0000000036
10.0000000229
10.0000000455
10.0000000796
10.000000131
10.0000002015
10.0000002879
10.0000003854
10.0000004892
10.0000005961
10.0000007037
10.000000811
10.0000009184
10.0000010268
10.0000011346
10.000001244
10.0000013514
10.0000014612
10.0000015666
10.000001677
10.000001778
10.0000018899
10.000001983
10.0000020996
10.0000021791
10.0000023076
10.0000023626
10.0000025181
10.0000025279
10.0000027399
10.0000026647
10.0000029882
10.0000027546
10.000003289
10.0000027675
10.0000036803
10.0000026615
10.000004208
10.0000023952
10.000004901
10.0000019659
10.000005717
10.0000014889
10.0000064584
10.0000012421
10.0000067701
10.0000015822
10.0000063536
10.0000026268
10.0000053389
10.0000039647
10.0000043436
10.000004895
10.0000039652
10.0000049913
10.0000042518
10.0000045388
10.0000043757
10.0000043077
10.0000040665
10.0000037331
10.0000036256
10.000003663
10.0000032934
10.0000021473
10.0000004811
9.99999894583
9.99999810167
9.99999812325
9.9999988319
9.99999989154
10.0000009931
10.0000019513
10.0000027046
10.0000032689
10.0000036887
10.0000040081
10.0000042595
10.0000044641
10.0000046353
10.0000047811
10.0000049064
10.0000050139
10.0000051047
10.0000051792
10.0000052373
10.0000052793
10.0000053058
10.0000053178
10.0000053166
10.0000053037
10.0000052806
10.0000052489
10.0000052101
10.0000051647
10.0000051136
10.0000050575
10.0000049976
10.0000049347
10.0000048697
10.0000048038
10.0000047379
10.0000046728
10.0000046096
10.0000045492
10.0000044922
10.0000044399
10.0000043924
10.0000043512
10.000004316
10.0000042884
10.0000042676
10.0000042559
10.0000042508
10.0000042564
10.0000042675
10.0000042912
10.0000043178
10.0000043603
10.0000044
10.0000044621
10.0000045102
10.0000045939
10.0000046415
10.0000047515
10.0000047825
10.0000049313
10.0000049165
10.0000000039
10.0000000222
10.0000000441
10.0000000783
10.0000001289
10.0000001982
10.0000002838
10.0000003814
10.000000486
10.0000005946
10.0000007037
10.0000008139
10.000000924
10.0000010348
10.0000011446
10.0000012555
10.0000013641
10.0000014749
10.0000015809
10.0000016917
10.0000017932
10.0000019049
10.000001999
10.0000021146
10.0000021962
10.0000023222
10.0000023822
10.0000025323
10.0000025521
10.0000027536
10.000002696
10.0000030028
10.0000027939
10.0000033112
10.0000028074
10.0000037335
10.0000026687
10.0000043572
10.0000022763
10.0000052967
10.0000015224
10.0000066358
10.0000004011
10.0000082604
9.99999919457
10.0000096566
9.99999862653
10.0000099461
9.99999954068
10.0000085592
10.000001985
10.0000060756
10.0000048539
10.0000038336
10.0000066807
10.0000033318
10.000005898
10.0000047978
10.0000048567
10.0000039077
10.0000041382
10.0000059885
10.0000052593
9.99999699989
9.9999811429
9.99996307187
9.99994949224
9.99994445518
9.9999480711
9.99995758208
9.99996934764
9.99998042272
9.9999892302
9.99999542809
9.99999940785
10.0000018031
10.0000031925
10.0000039906
10.0000044533
10.0000047237
10.0000048795
10.0000049643
10.000005006
10.0000050239
10.0000050314
10.0000050365
10.0000050427
10.0000050504
10.0000050579
10.0000050626
10.0000050621
10.0000050546
10.0000050393
10.0000050158
10.0000049847
10.0000049456
10.0000048995
10.0000048474
10.0000047905
10.0000047303
10.0000046679
10.0000046045
10.0000045415
10.0000044798
10.0000044208
10.0000043648
10.0000043138
10.0000042672
10.0000042278
10.0000041935
10.0000041685
10.0000041485
10.0000041405
10.0000041358
10.0000041465
10.0000041566
10.0000041871
10.0000042098
10.0000042609
10.0000042914
10.0000043639
10.000004394
10.0000044895
10.0000045052
10.0000046276
10.000004606
10.000004766
10.000004669
10.0000000035
10.0000000204
10.0000000407
10.0000000743
10.0000001257
10.0000001947
10.0000002795
10.0000003767
10.0000004817
10.0000005911
10.0000007026
10.0000008155
10.0000009281
10.0000010412
10.000001153
10.0000012654
10.0000013755
10.0000014871
10.0000015945
10.0000017053
10.0000018086
10.0000019191
10.0000020164
10.0000021286
10.0000022169
10.0000023351
10.0000024087
10.0000025417
10.0000025894
10.0000027552
10.0000027531
10.0000029884
10.0000028858
10.0000032672
10.0000029549
10.0000036437
10.0000028911
10.0000042204
10.0000025579
10.0000051828
10.0000017332
10.0000068009
10.0000001471
10.0000092886
9.99999773628
10.0000123987
9.99999519835
10.000014865
9.99999430747
10.0000147211
9.99999664206
10.0000114277
10.0000014793
10.0000063506
10.000007769
10.0000002878
10.0000117057
10.0000026568
10.0000041
10.0000033065