/*--------------------------------*- C++ -*----------------------------------*\
  =========                 |
  \\      /  F ield         | OpenFOAM: The Open Source CFD Toolbox
   \\    /   O peration     | Website:  https://openfoam.org
    \\  /    A nd           | Version:  7
     \\/     M anipulation  |
\*---------------------------------------------------------------------------*/
FoamFile
{
    version     2.0;
    format      ascii;
    class       volScalarField;
    location    "2700";
    object      p;
}
// * * * * * * * * * * * * * * * * * * * * * * * * * * * * * * * * * * * * * //

dimensions      [0 2 -2 0 0 0 0];

internalField   nonuniform List<scalar> 
8192
(
0.000571922881133
0.000400371121699
0.000314750188765
0.000270630157457
0.000245598501471
0.000230354978622
0.000220481691694
0.000213734058518
0.000208905132795
0.000205310826517
0.000202543723177
0.000200349855186
0.000198564298772
0.000197076054305
0.00019580808829
0.000194705533006
0.000193728444087
0.000192847199275
0.000192039481468
0.000191288243346
0.000190580298503
0.000189905323405
0.000189255135349
0.000188623159802
0.000188004030021
0.000187393280411
0.000186787106915
0.000186182175535
0.000185575465206
0.000184964134583
0.000184345405491
0.000183716456918
0.000183074324067
0.000182415798303
0.000181737324478
0.000181034892559
0.000180303921007
0.000179539129885
0.000178734402403
0.000177882634667
0.000176975574864
0.000176003655188
0.000174955822666
0.000173819378765
0.000172579842357
0.000171220856191
0.000169724163074
0.000168069683838
0.000166235733582
0.000164199414031
0.000161937216018
0.000159425855199
0.000156643344845
0.000153570282099
0.000150191290574
0.000146496526683
0.00014248312485
0.000138156433196
0.000133530881291
0.000128630330188
0.000123487787553
0.000118144432191
0.000112647982426
0.000107050550185
0.000101406221754
9.57686631103e-05
9.0189038444e-05
8.4714436543e-05
7.93868637454e-05
7.42427430652e-05
6.93127724611e-05
6.46219753078e-05
6.0189811484e-05
5.60302810756e-05
5.21520168465e-05
4.85584072769e-05
4.52478103496e-05
4.22139100964e-05
3.94462405008e-05
3.6930865934e-05
3.46511752595e-05
3.25887265386e-05
3.07240742799e-05
2.90375198506e-05
2.75097431276e-05
2.61222939475e-05
2.48579406153e-05
2.37008868314e-05
2.26368769899e-05
2.16532134347e-05
2.07387091344e-05
1.98835967762e-05
1.90794116483e-05
1.83188617828e-05
1.75956951809e-05
1.69045708444e-05
1.62409378524e-05
1.56009248578e-05
1.49812410233e-05
1.43790885034e-05
1.37920859823e-05
1.32182024286e-05
1.26557000464e-05
1.21030853395e-05
1.15590672137e-05
1.10225211032e-05
1.04924581871e-05
9.96799886471e-06
9.44834976338e-06
8.93278366817e-06
8.42062189217e-06
7.91121875137e-06
7.40394800213e-06
6.89819135441e-06
6.39332956285e-06
5.88873718339e-06
5.38378304313e-06
4.87784004623e-06
4.37031065722e-06
3.86067918723e-06
3.34861079119e-06
2.83413376519e-06
2.31797491314e-06
1.80218706694e-06
1.29136447316e-06
7.95130780214e-07
3.34255224608e-07
1.23124034971e-08
0.000423011215032
0.000359495283202
0.00030980228887
0.000277145910157
0.000255218866479
0.000240031229891
0.000229204649273
0.000221274516997
0.000215315780481
0.000210730182016
0.000207121727791
0.000204222262088
0.000201846161279
0.000199862238043
0.000198175977647
0.000196718079798
0.000195436916703
0.000194293468324
0.000193257854187
0.000192306913601
0.000191422486995
0.000190590174465
0.000189798424495
0.000189037854645
0.00018830073739
0.000187580604918
0.000186871940349
0.000186169932052
0.000185470274095
0.000184768999675
0.000184062338823
0.000183346593012
0.000182618020136
0.000181872725333
0.000181106553834
0.000180314982743
0.000179493009291
0.000178635033783
0.000177734736289
0.000176784947155
0.00017577751278
0.000174703159923
0.000173551364206
0.000172310231506
0.00017096640466
0.000169505012207
0.000167909680474
0.000166162634625
0.000164244917337
0.000162136754293
0.000159818092094
0.00015726932494
0.000154472210558
0.000151410953529
0.000148073407104
0.000144452316269
0.00014054649952
0.000136361848847
0.000131912020574
0.000127218697324
0.000122311327529
0.000117226297587
0.000112005563688
0.000106694857225
0.000101341659482
9.59931886242e-05
9.06946403928e-05
8.5487842872e-05
8.0410371632e-05
7.54950798006e-05
7.07699239741e-05
6.62579525138e-05
6.19773529054e-05
5.79415060404e-05
5.41590456977e-05
5.06339566532e-05
4.73657584046e-05
4.43498142056e-05
4.15777827528e-05
3.90382013771e-05
3.67171640546e-05
3.45990417315e-05
3.26671889305e-05
3.09045880017e-05
2.92943966482e-05
2.78203808823e-05
2.64672305522e-05
2.52207658842e-05
2.40680504435e-05
2.29974289922e-05
2.19985088596e-05
2.10621017173e-05
2.01801399733e-05
1.93455790495e-05
1.85522939866e-05
1.77949763801e-05
1.70690356478e-05
1.63705070856e-05
1.56959680134e-05
1.50424625014e-05
1.44074346066e-05
1.37886697023e-05
1.3184243269e-05
1.25924764162e-05
1.201189737e-05
1.14412081799e-05
1.08792559439e-05
1.03250079213e-05
9.77752998775e-06
9.23596798442e-06
8.69953163344e-06
8.16748083277e-06
7.63911433308e-06
7.1137610485e-06
6.5907746159e-06
6.06953233964e-06
5.54944045599e-06
5.0299488632e-06
4.51058036671e-06
3.99098248775e-06
3.47101471579e-06
2.95089195888e-06
2.43141808934e-06
1.91436634894e-06
1.40310381841e-06
9.03660919672e-07
4.26144633424e-07
5.27810322799e-08
0.000340068873039
0.000317398269271
0.000291402450995
0.000270161615431
0.000254038182597
0.000241723381921
0.000232198014927
0.000224734656583
0.000218811440347
0.000214049274526
0.000210169941608
0.000206967457792
0.000204288034473
0.00020201587021
0.000200063002518
0.000198362020283
0.00019686080157
0.000195518689554
0.000194303692951
0.000193190419455
0.000192158536645
0.000191191614921
0.000190276249139
0.000189401385066
0.00018855779739
0.000187737680613
0.000186934324397
0.000186141852333
0.000185355008286
0.000184568977483
0.000183779234488
0.000182981410757
0.000182171174987
0.000181344122117
0.000180495667286
0.000179620941789
0.000178714688764
0.000177771156971
0.000176783991831
0.000175746123784
0.000174649655188
0.000173485748516
0.000172244520524
0.000170914949567
0.000169484806209
0.000167940620829
0.000166267705717
0.00016445025284
0.000162471531273
0.000160314209126
0.000157960822269
0.000155394404825
0.000152599283133
0.000149562015706
0.000146272437989
0.000142724745697
0.000138918528137
0.000134859647093
0.000130560850155
0.000126042012163
0.000121329917931
0.000116457538781
0.000111462817995
0.000106387061349
0.000101273110097
9.6163522924e-05
9.10990028141e-05
8.61172178862e-05
8.12520484639e-05
7.6533210765e-05
7.1986134121e-05
6.7631962284e-05
6.34875857895e-05
5.95656645872e-05
5.58746476422e-05
5.24188270854e-05
4.91984745148e-05
4.62100978127e-05
4.34468340973e-05
4.08989667407e-05
3.8554530423e-05
3.63999542504e-05
3.44206910228e-05
3.26017889273e-05
3.09283759495e-05
2.93860426451e-05
2.79611221876e-05
2.66408761542e-05
2.54136000206e-05
2.42686644897e-05
2.31965085123e-05
2.21885981788e-05
2.1237363298e-05
2.03361210016e-05
1.94789933883e-05
1.86608242458e-05
1.78770982693e-05
1.71238649542e-05
1.63976683993e-05
1.56954835903e-05
1.50146592665e-05
1.43528671648e-05
1.37080572498e-05
1.30784184283e-05
1.24623442088e-05
1.1858402757e-05
1.12653108324e-05
1.06819111309e-05
1.01071526258e-05
9.54007357626e-06
8.97978696074e-06
8.42546821246e-06
7.87634527142e-06
7.33169115416e-06
6.79081948984e-06
6.25308380456e-06
5.71788180418e-06
5.18466655092e-06
4.65296734653e-06
4.12242442454e-06
3.59284342135e-06
3.06427833772e-06
2.53715591426e-06
2.01246048332e-06
1.49200502387e-06
9.78758746031e-07
4.76614596215e-07
6.38972344431e-08
0.000295526676863
0.000287132033072
0.000272932582839
0.000259133342553
0.000247698318909
0.000238417046986
0.000230837104505
0.000224590487603
0.000219399213256
0.000215050791483
0.000211379471623
0.000208254152059
0.000205570320515
0.000203244291349
0.000201208850785
0.000199409863238
0.000197803591416
0.000196354571262
0.000195033925856
0.000193818027708
0.000192687436977
0.00019162605743
0.000190620463685
0.000189659362921
0.000188733161974
0.000187833616948
0.000186953547355
0.000186086600727
0.000185227056228
0.000184369657406
0.000183509469025
0.000182641751864
0.000181761849374
0.000180865083125
0.000179946653881
0.000179001545758
0.000178024431435
0.000177009576977
0.000175950745395
0.000174841098827
0.000173673100135
0.000172438415937
0.000171127824666
0.000169731135294
0.000168237124964
0.000166633506889
0.000164906943489
0.000163043123487
0.000161026924977
0.000158842688343
0.000156474621881
0.00015390735747
0.000151126662191
0.000148120293958
0.000144878966238
0.000141397362076
0.000137675115214
0.000133717659973
0.000129536843663
0.000125151196396
0.000120585766344
0.000115871460831
0.000111043893091
0.000106141820379
0.000101205352826
9.62741725591e-05
9.13860282665e-05
8.65756614829e-05
8.18741806092e-05
7.73088149299e-05
7.2902896874e-05
6.86759256232e-05
6.46436172553e-05
6.08179092774e-05
5.72069390389e-05
5.38150460731e-05
5.06428558065e-05
4.76874890252e-05
4.49429145733e-05
4.24004315046e-05
4.00492410059e-05
3.78770545769e-05
3.5870684782e-05
3.40165754289e-05
3.23012439316e-05
3.07116247764e-05
2.92353160192e-05
2.78607392962e-05
2.65772281276e-05
2.53750603405e-05
2.42454494061e-05
2.31805073892e-05
2.21731897453e-05
2.1217229823e-05
2.0307068836e-05
1.94377853597e-05
1.8605027059e-05
1.78049463436e-05
1.70341409036e-05
1.62895995539e-05
1.55686534582e-05
1.48689325673e-05
1.41883269625e-05
1.35249527154e-05
1.28771218404e-05
1.22433159156e-05
1.16221629644e-05
1.10124172258e-05
1.04129414877e-05
9.82269170851e-06
9.24070372085e-06
8.66608188028e-06
8.09798961499e-06
7.53564193582e-06
6.97830010251e-06
6.42526881162e-06
5.87589649844e-06
5.32957964873e-06
4.7857724496e-06
4.24400374748e-06
3.70390428379e-06
3.16524875651e-06
2.62801945366e-06
2.092499231e-06
1.55938698307e-06
1.0298185648e-06
5.04649482395e-07
6.57083533777e-08
0.000267921703286
0.000265941409854
0.000258130597999
0.000248927409402
0.000240637062333
0.000233597108347
0.000227650699296
0.000222592595757
0.000218254490706
0.0002145067064
0.000211247956224
0.000208396965932
0.000205887088143
0.000203662931834
0.000201678133737
0.000199893755235
0.00019827703869
0.000196800393495
0.000195440548124
0.000194177833952
0.000192995579264
0.000191879597188
0.000190817753871
0.000189799604813
0.000188816088646
0.000187859268869
0.000186922115298
0.000185998318442
0.000185082129716
0.000184168221856
0.000183251567461
0.000182327331214
0.000181390770838
0.000180437145079
0.000179461626305
0.000178459215698
0.000177424659409
0.000176352364345
0.000175236312748
0.000174069975199
0.000172846222387
0.000171557236942
0.000170194427869
0.000168748351901
0.000167208648402
0.000165563997406
0.00016380211408
0.000161909797018
0.000159873051986
0.00015767731595
0.000155307807013
0.00015275002221
0.000149990395024
0.000147017106917
0.000143821023142
0.000140396696279
0.00013674335665
0.000132865791346
0.000128775004175
0.000124488546125
0.000120030411984
0.000115430423714
0.000110723079705
0.000105945946735
0.000101137788852
9.63367080868e-05
9.15786212966e-05
8.68962523167e-05
8.23186355422e-05
7.78710308765e-05
7.35750483171e-05
6.94488026988e-05
6.55069964761e-05
6.17609082894e-05
5.82183243851e-05
5.48834816436e-05
5.17570955917e-05
4.88365282798e-05
4.61161169985e-05
4.35876468445e-05
4.12409199673e-05
3.90643597685e-05
3.70455905545e-05
3.51719475318e-05
3.34308914437e-05
3.18103203817e-05
3.02987847854e-05
2.88856194903e-05
2.75610097411e-05
2.63160078595e-05
2.51425152197e-05
2.40332414426e-05
2.29816499425e-05
2.19818965137e-05
2.10287656409e-05
2.01176076688e-05
1.92442788177e-05
1.84050852019e-05
1.75967314313e-05
1.68162739838e-05
1.6061079283e-05
1.53287862541e-05
1.46172730428e-05
1.39246275351e-05
1.32491213048e-05
1.25891866205e-05
1.19433961665e-05
1.13104451603e-05
1.0689135583e-05
1.00783622782e-05
9.47710071583e-06
8.88439626169e-06
8.29935484306e-06
7.72113495866e-06
7.14894105191e-06
6.58201835666e-06
6.01964945726e-06
5.46115299624e-06
4.90588527334e-06
4.35324596311e-06
3.80268991313e-06
3.25374784439e-06
2.70605877016e-06
2.15941127143e-06
1.61376028238e-06
1.06906605023e-06
5.24484576339e-07
6.60348643232e-08
0.00024958854861
0.000250467883784
0.000246410962476
0.000240264320951
0.000234159674643
0.000228718732381
0.000223991895718
0.000219884119013
0.000216288662658
0.000213116912209
0.00021029939569
0.000207781228298
0.00020551791464
0.000203472450174
0.000201613471621
0.00019991407529
0.000198351023445
0.000196904169337
0.0001955560076
0.00019429130152
0.000193096762725
0.000191960770905
0.000190873126834
0.000189824834423
0.000188807908512
0.000187815205488
0.000186840273939
0.000185877223435
0.000184920606541
0.000183965312717
0.00018300647396
0.000182039379004
0.000181059392518
0.000180061878717
0.000179042127734
0.000177995283249
0.000176916270085
0.000175799720634
0.00017463989923
0.000173430623909
0.000172165185447
0.000170836264285
0.000169435846951
0.000167955145079
0.000166384522251
0.000164713436791
0.000162930412482
0.000161023053946
0.000158978128686
0.000156781742752
0.000154419639899
0.000151877652558
0.0001491423241
0.000146201703913
0.00014304629031
0.000139670065707
0.000136071540812
0.00013225470555
0.000128229773985
0.000124013604002
0.000119629669515
0.000115107477328
0.00011048137786
0.000105788834273
0.000101068368556
9.63575182657e-05
9.16912211276e-05
8.71008484372e-05
8.26138575202e-05
7.82539100924e-05
7.40411791568e-05
6.99926182102e-05
6.61220820044e-05
6.24402915521e-05
5.89547047444e-05
5.56693867118e-05
5.25849750828e-05
4.96988094319e-05
4.70052502607e-05
4.44961649642e-05
4.21615215644e-05
3.99900153697e-05
3.79696595663e-05
3.60882909092e-05
3.43339663119e-05
3.26952474814e-05
3.11613850504e-05
2.97224207276e-05
2.83692275179e-05
2.70935062849e-05
2.58877536504e-05
2.47452126735e-05
2.36598145552e-05
2.26261170241e-05
2.16392430901e-05
2.06948224346e-05
1.97889367149e-05
1.89180693967e-05
1.80790602958e-05
1.72690647408e-05
1.64855171081e-05
1.57260983964e-05
1.49887074695e-05
1.42714355878e-05
1.35725438631e-05
1.28904432879e-05
1.22236770239e-05
1.15709046582e-05
1.09308881679e-05
1.03024793651e-05
9.684608619e-06
9.07627468332e-06
8.47653548609e-06
7.88449977414e-06
7.29931954834e-06
6.72018328989e-06
6.14631007346e-06
5.57694481308e-06
5.01135510853e-06
4.44883045354e-06
3.88868480979e-06
3.33026321558e-06
2.77295033773e-06
2.21616790438e-06
1.65931249024e-06
1.10149267246e-06
5.40780978971e-07
6.66742387664e-08
0.000236721964883
0.000238826729804
0.000237012031498
0.000232980346442
0.000228481500025
0.000224232091334
0.000220421335664
0.000217043551954
0.000214041336358
0.000211354240915
0.000208931240899
0.000206731542753
0.000204722533287
0.000202877610847
0.000201174539561
0.000199594327658
0.000198120488247
0.000196738547679
0.000195435705009
0.00019420058135
0.000193023022771
0.000191893936241
0.000190805147327
0.000189749273594
0.000188719610366
0.000187710026885
0.000186714871516
0.000185728886269
0.000184747125274
0.00018376487969
0.000182777609474
0.000181780879074
0.000180770295023
0.000179741445413
0.000178689840169
0.000177610851037
0.000176499650249
0.00017535114686
0.000174159919834
0.000172920147087
0.000171625529994
0.000170269213284
0.000168843701047
0.000167340770802
0.000165751389482
0.000164065638074
0.000162272655671
0.000160360619131
0.000158316781131
0.000156127596373
0.000153778971278
0.000151256673582
0.000148546930983
0.000145637229233
0.000142517289741
0.000139180170291
0.000135623399823
0.000131850037533
0.000127869536709
0.000123698283982
0.00011935966945
0.0001148835406
0.000110304944585
0.000105662201831
0.000100994561314
9.63398584967e-05
9.17327304315e-05
8.72036773566e-05
8.27789061541e-05
7.84807161835e-05
7.4328039285e-05
7.03368463337e-05
6.65203043672e-05
6.28887013706e-05
5.94492333965e-05
5.62057813e-05
5.31588006202e-05
5.03054126549e-05
4.76397270928e-05
4.51533646964e-05
4.28361028668e-05
4.06765501922e-05
3.86627675675e-05
3.67827820463e-05
3.50249714929e-05
3.33783235306e-05
3.18325874888e-05
3.03783439166e-05
2.90070157422e-05
2.77108413906e-05
2.64828254e-05
2.53166775741e-05
2.42067480402e-05
2.31479628288e-05
2.21357626708e-05
2.1166046411e-05
2.02351196181e-05
1.93396484627e-05
1.84766186471e-05
1.76432990125e-05
1.68372093866e-05
1.6056092213e-05
1.52978875189e-05
1.45607108057e-05
1.38428334825e-05
1.3142665499e-05
1.24587398719e-05
1.17896988295e-05
1.11342813333e-05
1.04913117566e-05
9.85968952861e-06
9.23837956981e-06
8.62640336959e-06
8.02283057889e-06
7.42677102322e-06
6.83736708476e-06
6.25378646405e-06
5.67521541111e-06
5.100852593e-06
4.52990374931e-06
3.96157690444e-06
3.39507637486e-06
2.82958908242e-06
2.2642437805e-06
1.6979928245e-06
1.12930893678e-06
5.55550879298e-07
6.85165851794e-08
0.000227276157212
0.000229843573005
0.000229376397719
0.000226826948419
0.000223544043965
0.000220222190969
0.000217126563196
0.00021431932657
0.000211786081819
0.000209491226486
0.000207398373177
0.000205476259659
0.000203699383253
0.000202047075069
0.000200502358071
0.000199050993402
0.000197680779004
0.000196381060141
0.000195142392892
0.00019395631029
0.00019281515454
0.00019171195088
0.000190640307566
0.000189594332404
0.000188568560131
0.000187557887222
0.000186557511994
0.000185562880847
0.000184569633157
0.000183573549911
0.000182570506904
0.000181556428197
0.000180527239608
0.000179478822196
0.000178406964974
0.000177307316012
0.000176175331045
0.00017500621863
0.000173794880835
0.000172535848456
0.000171223209827
0.000169850532508
0.000168410777669
0.000166896207926
0.000165298291071
0.000163607604872
0.000161813752358
0.000159905303093
0.000157869783984
0.000155693752641
0.00015336299512
0.000150862894529
0.000148179012029
0.000145297902029
0.00014220814776
0.000138901558324
0.000135374428362
0.000131628739551
0.000127673177021
0.00012352382293
0.000119204357583
0.000114745568116
0.000110184002222
0.000105559770547
0.000100913784507
9.62849748525e-05
9.17082453447e-05
8.72135602668e-05
8.28260523836e-05
7.85667713194e-05
7.4453522791e-05
7.05014352737e-05
6.67231440059e-05
6.31286489257e-05
5.97249857697e-05
5.651587962e-05
5.35015406313e-05
5.0678714132e-05
4.80410211178e-05
4.55795439224e-05
4.32835539417e-05
4.11412608551e-05
3.91404830296e-05
3.72691794797e-05
3.55158254642e-05
3.38696442292e-05
3.23207232108e-05
3.08600469029e-05
2.94794752944e-05
2.81716905021e-05
2.69301276517e-05
2.57489005068e-05
2.46227281839e-05
2.35468664287e-05
2.25170450749e-05
2.15294121903e-05
2.05804847724e-05
1.96671055298e-05
1.87864051379e-05
1.79357693229e-05
1.71128101469e-05
1.6315340917e-05
1.55413542011e-05
1.47890024944e-05
1.40565811397e-05
1.33425131548e-05
1.26453356675e-05
1.19636876966e-05
1.12962990466e-05
1.0641980115e-05
9.99961242776e-06
9.36813974045e-06
8.74655955625e-06
8.13391492998e-06
7.52928644178e-06
6.93178424191e-06
6.34054007757e-06
5.75469919587e-06
5.173411913e-06
4.59582430182e-06
4.02106651921e-06
3.44823495149e-06
2.8763588151e-06
2.30432973872e-06
1.73075004397e-06
1.15362661747e-06
5.69848165151e-07
7.20746173529e-08
0.000220084359684
0.000222761006361
0.000223102869778
0.000221596425447
0.00021924519962
0.000216664645238
0.000214147449467
0.000211800912505
0.000209645774136
0.000207669013477
0.000205847877528
0.000204159428075
0.000202583621728
0.000201103789159
0.000199706221019
0.000198379555217
0.00019711421513
0.000195901964886
0.000194735579454
0.000193608606885
0.000192515198103
0.000191449983802
0.000190407983146
0.000189384533534
0.000188375234142
0.000187375898433
0.000186382512436
0.000185391198884
0.000184398178935
0.000183399735807
0.000182392183393
0.000181371832576
0.000180334956878
0.000179277756991
0.000178196323563
0.000177086597486
0.000175944326846
0.000174765019532
0.000173543890391
0.000172275801642
0.000170955195193
0.000169576015469
0.000168131621627
0.000166614688637
0.000165017098083
0.000163329822062
0.000161542807849
0.000159644877748
0.000157623668155
0.000155465644158
0.000153156239059
0.000150680177615
0.000148022040418
0.000145167106527
0.000142102468656
0.000138818357705
0.000135309562478
0.00013157680784
0.000127627958088
0.000123478905293
0.000119153948527
0.000114685393922
0.00011011211225
0.000105476987635
0.000100823579627
9.61927169988e-05
9.16200692547e-05
8.71352702845e-05
8.27624101252e-05
7.85212846665e-05
7.44286184926e-05
7.04988111528e-05
6.67441272449e-05
6.31744488788e-05
5.97967869793e-05
5.66147722328e-05
5.36283310749e-05
5.08336901742e-05
4.82237519244e-05
4.5788775303e-05
4.35172219432e-05
4.13966101639e-05
3.94142535434e-05
3.75578186005e-05
3.58156908123e-05
3.41771743316e-05
3.26325663791e-05
3.1173147914e-05
2.97911250227e-05
2.84795459972e-05
2.72322104187e-05
2.60435798786e-05
2.49086953744e-05
2.38231035054e-05
2.27827919055e-05
2.17841334474e-05
2.08238383479e-05
1.98989131665e-05
1.90066257047e-05
1.8144474899e-05
1.73101649058e-05
1.65015826946e-05
1.57167785652e-05
1.49539491014e-05
1.4211422147e-05
1.34876434599e-05
1.27811647499e-05
1.20906328501e-05
1.14147798052e-05
1.07524136886e-05
1.0102409977e-05
9.46370332975e-06
8.83527962836e-06
8.21616813737e-06
7.60543364407e-06
7.00216841753e-06
6.4054837772e-06
5.81450094169e-06
5.22834055574e-06
4.64610969033e-06
4.06688381178e-06
3.48967849469e-06
2.91340020731e-06
2.3367555332e-06
1.75808338781e-06
1.17506414397e-06
5.84286639261e-07
7.76861555009e-08
0.000214448897901
0.000217075370276
0.000217899048479
0.0002171271815
0.000215492008965
0.000213511082989
0.000211472729243
0.000209509273952
0.000207667491673
0.000205953708201
0.000204357892328
0.000202865107803
0.000201460376822
0.000200130406048
0.000198863939223
0.000197651577674
0.0001964854451
0.000195358850808
0.0001942660044
0.000193201791737
0.000192161605595
0.000191141219863
0.000190136696307
0.000189144314787
0.000188160519854
0.000187181878585
0.000186205046322
0.00018522673804
0.000184243699633
0.000183252679656
0.000182250407188
0.00018123356655
0.000180198771228
0.000179142536285
0.000178061248599
0.000176951134162
0.000175808221571
0.00017462830063
0.000173406874789
0.000172139105867
0.000170819749237
0.000169443077416
0.000168002789915
0.000166491907456
0.000164902649589
0.00016322629694
0.000161453043479
0.000159571851457
0.000157570332895
0.000155434697021
0.000153149821414
0.000150699520557
0.000148067089794
0.000145236182687
0.000142192027817
0.000138922915367
0.000135421815751
0.000131687969834
0.000127728313467
0.000123558606811
0.000119204057147
0.000114699074107
0.000110085743026
0.0001054108295
0.000100721660988
9.60618395803e-05
9.14682612214e-05
8.69703029305e-05
8.2590888038e-05
7.83484382247e-05
7.42585835691e-05
7.03350971206e-05
6.65900533409e-05
6.30334219508e-05
5.96723627303e-05
5.65105028769e-05
5.35474597547e-05
5.07787936638e-05
4.81964409901e-05
4.57895321012e-05
4.35454011382e-05
4.14505802837e-05
3.94916259956e-05
3.76557072864e-05
3.59309575516e-05
3.43066335927e-05
3.2773139275e-05
3.13219667381e-05
2.99455956203e-05
2.86373773678e-05
2.73914206806e-05
2.62024863572e-05
2.50658948721e-05
2.39774472037e-05
2.29333580022e-05
2.19301995908e-05
2.09648551609e-05
2.00344796117e-05
1.91364666716e-05
1.82684211494e-05
1.74281353608e-05
1.66135689521e-05
1.58228314866e-05
1.50541672815e-05
1.43059420761e-05
1.35766311886e-05
1.28648088806e-05
1.21691386908e-05
1.14883645376e-05
1.08213024149e-05
1.01668325253e-05
9.52389170352e-06
8.89146598638e-06
8.26858317973e-06
7.65430524442e-06
7.04772027317e-06
6.44793372112e-06
5.85405834417e-06
5.26520189241e-06
4.68045082484e-06
4.09884682491e-06
3.51935014283e-06
2.94077896324e-06
2.36170649586e-06
1.78028890646e-06
1.1939963111e-06
5.99246514341e-07
8.5576290569e-08
0.000209934137606
0.000212443211111
0.000213548051848
0.000213293315944
0.000212208195265
0.000210714128915
0.000209077012773
0.000207438666659
0.000205863053196
0.000204371839579
0.000202966253345
0.000201638955237
0.00020037992892
0.00019917913411
0.000198027528981
0.000196917325653
0.000195841918259
0.000194795696094
0.000193773838157
0.000192772127991
0.00019178680074
0.000190814422403
0.000189851796781
0.000188895894464
0.000187943798546
0.000186992662571
0.000186039678547
0.000185082049483
0.000184116964723
0.000183141576145
0.000182152980047
0.000181148196798
0.000180124149769
0.000179077642796
0.000178005335444
0.000176903715242
0.000175769065961
0.000174597430755
0.000173384568727
0.000172125903081
0.000170816458614
0.000169450785776
0.000168022868122
0.000166526009747
0.000164952699716
0.000163294452117
0.000161541624182
0.000159683222438
0.000157706719547
0.000155597923664
0.000153340966869
0.000150918504206
0.000148312227853
0.000145503783523
0.000142476112943
0.000139215143949
0.000135711654128
0.000131963110105
0.000127975344554
0.000123763976695
0.000119355368042
0.000114786636835
0.000110104091189
0.000105359693304
0.00010060589144
9.5890086331e-05
9.12508451057e-05
8.67172056876e-05
8.23106175038e-05
7.8047886492e-05
7.39434913761e-05
7.00106900775e-05
6.62615842724e-05
6.27064849789e-05
5.93529196973e-05
5.62046313519e-05
5.32609046409e-05
5.05164600656e-05
4.79619763575e-05
4.55851018301e-05
4.3371686597e-05
4.13069597696e-05
3.93764633966e-05
3.75666723656e-05
3.58653221373e-05
3.42615136901e-05
3.27456742384e-05
3.13094398474e-05
2.99455065684e-05
2.86474785963e-05
2.74097284128e-05
2.62272750939e-05
2.50956819135e-05
2.40109718366e-05
2.29695584732e-05
2.19681898639e-05
2.1003902662e-05
2.00739846239e-05
1.91759436916e-05
1.83074822914e-05
1.74664757627e-05
1.665095406e-05
1.58590860626e-05
1.50891659622e-05
1.43396013141e-05
1.360890242e-05
1.28956727732e-05
1.21986003462e-05
1.15164495359e-05
1.08480536046e-05
1.01923074724e-05
9.54816071951e-06
8.91461065454e-06
8.29069528067e-06
7.67548594823e-06
7.06807939597e-06
6.46758872788e-06
5.87313259421e-06
5.28382134928e-06
4.69873808142e-06
4.11691088391e-06
3.5372701723e-06
2.95858085519e-06
2.37933387257e-06
1.79757722583e-06
1.21066993031e-06
6.14964348586e-07
9.58817000658e-08
0.00020625683209
0.000208624719249
0.000209886521878
0.000209995158766
0.000209331834965
0.00020823294063
0.000206933647816
0.000205574501193
0.000204229076044
0.000202930223001
0.000201688521793
0.000200503515338
0.000199369954968
0.000198281023519
0.000197229864015
0.000196210211555
0.0001952165771
0.000194244224346
0.000193289064032
0.000192347526636
0.000191416441037
0.000190492929685
0.000189574322579
0.000188658088647
0.000187741781766
0.000186822998277
0.000185899345558
0.000184968414051
0.000184027752813
0.000183074848425
0.000182107107852
0.000181121840455
0.000180116239531
0.00017908736263
0.000178032109831
0.000176947199133
0.000175829137936
0.000174674189365
0.00017347833182
0.000172237209698
0.000170946072569
0.000169599699398
0.000168192303534
0.000166717413503
0.000165167724333
0.000163534914979
0.000161809430589
0.000159980235656
0.000158034558006
0.000155957666514
0.000153732757824
0.000151341064347
0.000148762322243
0.000145975727395
0.000142961431353
0.00013970248819
0.000136187021701
0.000132410353184
0.000128376953783
0.000124102205338
0.000119613809123
0.000114952223814
0.000110169155131
0.000105323385683
0.000100474202434
9.56740847362e-05
9.09637186091e-05
8.63715136908e-05
8.19169067777e-05
7.76147201587e-05
7.34782037438e-05
6.95202458677e-05
6.57532488063e-05
6.21881803576e-05
5.88332069563e-05
5.56923326653e-05
5.27644736097e-05
5.00432858031e-05
4.75178221791e-05
4.51738152315e-05
4.29952090482e-05
4.09655713769e-05
3.90691549794e-05
3.72915442682e-05
3.56199418239e-05
3.40431999678e-05
3.25517025032e-05
3.1137177596e-05
2.97924941035e-05
2.85114700794e-05
2.72887061186e-05
2.6119446725e-05
2.49994680324e-05
2.3924988205e-05
2.28925963932e-05
2.18991964222e-05
2.0941961966e-05
2.00183005923e-05
1.91258246297e-05
1.82623272814e-05
1.74257627873e-05
1.6614229724e-05
1.58259567499e-05
1.50592902694e-05
1.43126836083e-05
1.35846873849e-05
1.28739408261e-05
1.21791638259e-05
1.1499149578e-05
1.08327576358e-05
1.01789072646e-05
9.53657095056e-06
8.9047679184e-06
8.28255747512e-06
7.66903193519e-06
7.06330877082e-06
6.46452143995e-06
5.87180802133e-06
5.28429624111e-06
4.70108257232e-06
4.12120162519e-06
3.5435797895e-06
2.96696392939e-06
2.38981236588e-06
1.81013349318e-06
1.22526174813e-06
6.31576227495e-07
1.08660923632e-07
0.000203225667709
0.000205448535677
0.000206789673965
0.000207152536823
0.000206811937522
0.000206033136128
0.00020501844847
0.000203900421367
0.000202756333283
0.000201626392695
0.000200528453447
0.000199467971748
0.000198444095292
0.000197453132358
0.000196490407274
0.000195551180739
0.000194631053638
0.000193726099298
0.000192832862071
0.000191948297256
0.000191069691463
0.000190194582601
0.000189320687895
0.000188445842675
0.000187567949929
0.000186684939234
0.000185794735978
0.000184895233822
0.000183984268525
0.000183059598831
0.000182118888977
0.000181159691496
0.000180179429811
0.00017917537984
0.000178144649796
0.000177084157288
0.00017599060267
0.000174860437303
0.000173689825004
0.000172474594388
0.000171210179025
0.000169891541325
0.00016851307485
0.000167068478434
0.000165550594373
0.000163951202766
0.000162260766133
0.00016046812499
0.0001585601596
0.000156521459575
0.000154334084316
0.000151977549854
0.000149429224459
0.00014666531887
0.000143662568788
0.000140400510581
0.000136864032229
0.000133045833382
0.000128948658106
0.000124587433508
0.000119991290412
0.000115204680562
0.000110286103741
0.00010530322906
0.000100324454543
9.54090309163e-05
9.06002336712e-05
8.59252560622e-05
8.14006783481e-05
7.70388471269e-05
7.28517239878e-05
6.88520378698e-05
6.50528380691e-05
6.14661361385e-05
5.81010640332e-05
5.49620512788e-05
5.2047575615e-05
4.93499170605e-05
4.68560154091e-05
4.45491331288e-05
4.24107902912e-05
4.04224743626e-05
3.85668460921e-05
3.68283985747e-05
3.51936753897e-05
3.365120197e-05
3.21912678569e-05
3.08056565747e-05
2.94873797186e-05
2.82304422569e-05
2.7029647782e-05
2.58804427635e-05
2.4778794663e-05
2.37210976052e-05
2.27040996327e-05
2.17248464649e-05
2.07806377083e-05
1.98689923933e-05
1.89876214859e-05
1.81344056259e-05
1.73073768016e-05
1.65047030124e-05