/*--------------------------------*- C++ -*----------------------------------*\
  =========                 |
  \\      /  F ield         | OpenFOAM: The Open Source CFD Toolbox
   \\    /   O peration     | Website:  https://openfoam.org
    \\  /    A nd           | Version:  7
     \\/     M anipulation  |
\*---------------------------------------------------------------------------*/
FoamFile
{
    version     2.0;
    format      ascii;
    class       surfaceScalarField;
    location    "2700";
    object      phi;
}
// * * * * * * * * * * * * * * * * * * * * * * * * * * * * * * * * * * * * * //

dimensions      [0 3 -1 0 0 0 0];

internalField   nonuniform List<scalar> 
16192
(
6.92936876497e-10
2.44563123503e-10
4.93591500149e-10
1.99345375736e-10
3.64855151711e-10
1.28736347868e-10
2.82256050969e-10
8.25991002157e-11
2.27599131034e-10
5.46569194208e-11
1.89943038601e-10
3.76560919474e-11
1.62947212399e-10
2.69958257697e-11
1.42900592681e-10
2.0046619352e-11
1.27570035414e-10
1.53305569744e-11
1.15563861428e-10
1.20061737666e-11
1.05982102634e-10
9.58175864503e-12
9.82214660971e-11
7.76063645653e-12
9.18638782433e-11
6.35758784077e-12
8.66108976728e-11
5.2529806255e-12
8.22438964384e-11
4.36700135982e-12
7.85991187003e-11
3.64477793831e-12
7.55515812761e-11
3.04753770501e-12
7.30043843584e-11
2.54719728681e-12
7.0881427564e-11
2.12295726002e-12
6.91223277548e-11
1.75910038143e-12
6.7678796671e-11
1.44353177337e-12
6.65120092866e-11
1.16678820323e-12
6.55906591812e-11
9.21351065779e-13
6.48894999092e-11
7.01160387892e-13
6.43882365399e-11
5.01264654587e-13
6.40706738208e-11
3.17564189127e-13
6.39240553249e-11
1.46620165828e-13
6.39385466904e-11
-1.44894787156e-14
6.41068287452e-11
-1.6827993519e-13
6.44237744942e-11
-3.16943378388e-13
6.48861913523e-11
-4.62414219927e-13
6.54926140527e-11
-6.06419775899e-13
6.62431355104e-11
-7.50518229865e-13
6.71392649763e-11
-8.9612591607e-13
6.81838038373e-11
-1.04453497252e-12
6.93807297264e-11
-1.19692164432e-12
7.07350792391e-11
-1.3543448968e-12
7.22528186833e-11
-1.51773444152e-12
7.3940690882e-11
-1.68786679813e-12
7.58060242993e-11
-1.86532760814e-12
7.78564886973e-11
-2.05045817576e-12
8.00997795534e-11
-2.24328421848e-12
8.25432118629e-11
-2.44342526289e-12
8.51932035212e-11
-2.64998421422e-12
8.80546299978e-11
-2.86141865736e-12
9.11300368085e-11
-3.07539864696e-12
9.44187055868e-11
-3.28866031377e-12
9.79155847504e-11
-3.49687045206e-12
1.01610117529e-10
-3.69452388739e-12
1.05485028234e-10
-3.87490171297e-12
1.09515159913e-10
-4.03012267633e-12
1.13666488654e-10
-4.15131982523e-12
1.17895465275e-10
-4.22896790078e-12
1.22148846459e-10
-4.25337277261e-12
1.26364167667e-10
-4.21531322466e-12
1.30470975398e-10
-4.10680029416e-12
1.3439287605e-10
-3.9218938859e-12
1.38050375665e-10
-3.65749363556e-12
1.41364383741e-10
-3.31400299639e-12
1.44260142568e-10
-2.895754742e-12
1.46671234456e-10
-2.41108888048e-12
1.48543237591e-10
-1.87200125553e-12
1.49836581385e-10
-1.29334307033e-12
1.50528227109e-10
-6.91646147847e-13
1.50611978238e-10
-8.37526687067e-14
1.50097474806e-10
5.14500839984e-13
1.49008182309e-10
1.08928892964e-12
1.47378840215e-10
1.62933764726e-12
1.45252834562e-10
2.12600042837e-12
1.42679849469e-10
2.5729792041e-12
1.39713961731e-10
2.96588128854e-12
1.36412159291e-10
3.30179554059e-12
1.32833145955e-10
3.57900607901e-12
1.29036259565e-10
3.79687886601e-12
1.250803651e-10
3.95588674889e-12
1.2102265956e-10
4.05769770015e-12
1.16917409929e-10
4.10524172648e-12
1.1281471279e-10
4.10268922675e-12
1.08759397407e-10
4.05530751096e-12
1.04790189105e-10
3.96920051731e-12
1.00939213601e-10
3.85096784982e-12
9.72318705251e-11
3.70733559245e-12
9.36870519119e-11
3.54481133591e-12
9.03176415732e-11
3.3694033006e-12
8.71312098795e-11
3.18642492239e-12
8.41308152375e-11
3.00038816175e-12
8.13158338201e-11
2.81497524652e-12
7.86827569335e-11
2.63307103992e-12
7.62259152926e-11
2.45683612765e-12
7.39381077084e-11
2.28780241026e-12
7.18111262084e-11
2.12697666607e-12
6.98361799204e-11
1.97494179283e-12
6.80042264324e-11
1.83194932581e-12
6.63062226517e-11
1.69799994452e-12
6.47333082216e-11
1.57291090948e-12
6.32769341905e-11
1.45637081509e-12
6.19289484044e-11
1.34798286123e-12
6.06816475327e-11
1.24729822433e-12
5.95278039563e-11
1.1538411913e-12
5.84606741811e-11
1.06712763737e-12
5.74739940203e-11
9.86678254021e-13
5.6561964598e-11
9.12027730801e-13
5.57192322164e-11
8.42730889362e-13
5.49408643231e-11
7.78366584691e-13
5.4222323152e-11
7.1854003039e-13
5.35594380854e-11
6.62884078814e-13
5.29483773455e-11
6.11059890617e-13
5.23856192587e-11
5.62757361703e-13
5.18679230064e-11
5.17695638478e-13
5.13922984474e-11
4.75624043512e-13
5.09559742594e-11
4.36323759086e-13
5.05563632279e-11
3.99610677814e-13
5.01910229942e-11
3.65339944962e-13
4.98576098591e-11
3.33412900869e-13
4.95538222426e-11
3.03787427831e-13
4.92773289206e-11
2.76493169e-13
4.90256749564e-11
2.51653838397e-13
4.87961547757e-11
2.29520072019e-13
4.85856363211e-11
2.10518354142e-13
4.83903110873e-11
1.95325131056e-13
4.82053295467e-11
1.84981426716e-13
4.80242556591e-11
1.81073753312e-13
4.78382323057e-11
1.86023194206e-13
4.76346915119e-11
2.0354061069e-13
4.73954116425e-11
2.39279677117e-13
4.70940445087e-11
3.01366962095e-13
4.66953406221e-11
3.98703818078e-13
5.1150923497e-13
9.53423049503e-10
2.28640073509e-10
8.59657955014e-10
2.93110469117e-10
7.45077933369e-10
2.43316368429e-10
6.41824922294e-10
1.85852110222e-10
5.56528546417e-10
1.3995329426e-10
4.87990813469e-10
1.06193823932e-10
4.33194156528e-10
8.17924818517e-11
3.89189694086e-10
6.40510810523e-11
3.5356686738e-10
5.0953383059e-11
3.2447121397e-10
4.11018266736e-11
3.00504584986e-10
3.35483872417e-11
2.80615482735e-10
2.76497384348e-11
2.6400846127e-10
2.29646091489e-11
2.50075918072e-10
1.91855237876e-11
2.3834855607e-10
1.60943634557e-11
2.2845982935e-10
1.35335048921e-11
2.20120424912e-10
1.13869425305e-11
2.1309983314e-10
9.56778961441e-12
2.07212911057e-10
8.00988008487e-12
2.02309976919e-10
6.66203546596e-12
1.98269422781e-10
5.48408708425e-12
1.94992140879e-10
4.44407152627e-12
1.92397271447e-10
3.51622218932e-12
1.90418924591e-10
2.67950923149e-12
1.89003628585e-10
1.91656297019e-12
1.88108326043e-10
1.21286938849e-12
1.87698787597e-10
5.56161645114e-13
1.87748346531e-10
-6.40449745434e-14
1.88236881545e-10
-6.56811078183e-13
1.89149991254e-10
-1.23004875424e-12
1.9047831801e-10
-1.79073615302e-12
1.92216986049e-10
-2.3450824717e-12
1.94365123891e-10
-2.89865018074e-12
1.9692544477e-10
-3.45644032851e-12
1.99903860795e-10
-4.02294393113e-12
2.03309107059e-10
-4.60216021684e-12
2.07152351153e-10
-5.19758065528e-12
2.11446761841e-10
-5.81213613291e-12
2.16207008074e-10
-6.44810336248e-12
2.21448656533e-10
-7.10696571945e-12
2.27187432809e-10
-7.78922343067e-12
2.33438308996e-10
-8.49414872227e-12
2.40214379747e-10
-9.21948369383e-12
2.47525491366e-10
-9.96108291419e-12
2.55376595936e-10
-1.07125097646e-11
2.63765817181e-10
-1.14646059564e-11
2.72682238915e-10
-1.22050677269e-11
2.82103462483e-10
-1.2918079421e-11
2.91993027137e-10
-1.35840737865e-11
3.02297845055e-10
-1.41797048598e-11
3.12945865658e-10
-1.46781286444e-11
3.23844242717e-10
-1.50496825492e-11
3.34878319775e-10
-1.52630310994e-11
3.45911760234e-10
-1.52868000283e-11
3.56788115492e-10
-1.50916561254e-11
3.67334040801e-10
-1.46527142818e-11
3.77364234353e-10
-1.39520773447e-11
3.86687998144e-10
-1.29812487464e-11
3.95117111788e-10
-1.17431095437e-11
4.02474491046e-10
-1.02531286288e-11
4.0860290039e-10
-8.53949468928e-12
4.13372849857e-10
-6.64194908468e-12
4.16688790862e-10
-4.60928434983e-12
4.18492886896e-10
-2.49574433083e-12
4.18765982934e-10
-3.56852646921e-13
4.17525869562e-10
1.75460860261e-12
4.14823409666e-10
3.79174169509e-12
4.10737392366e-10
5.71534647189e-12
4.05369002856e-10
7.49438030057e-12
3.98836606806e-10
9.10536464587e-12
3.91271213868e-10
1.05312628287e-11
3.82812654604e-10
1.17603427913e-11
3.73606281989e-10
1.27853662179e-11
3.63799929213e-10
1.36032188368e-11
3.53540901203e-10
1.42149017412e-11
3.42972900729e-10
1.46256850461e-11
3.32232935554e-10
1.48451937531e-11
3.21448372223e-10
1.48872394718e-11
3.10734362721e-10
1.47693040651e-11
3.00191862291e-10
1.45116882092e-11
2.89906391357e-10
1.41364263201e-11
2.79947597335e-10
1.36661174864e-11
2.7036957241e-10
1.31228245196e-11
2.61211804595e-10
1.25271598131e-11
2.52500593534e-10
1.18976251574e-11
2.44250750595e-10
1.12502207864e-11
2.36467417397e-10
1.05982986677e-11
2.29147867997e-10
9.95261121984e-12
2.22283197303e-10
9.32149816823e-12
2.15859834579e-10
8.71115705395e-12
2.09860851611e-10
8.12595212566e-12
2.0426705851e-10
7.56872794941e-12
1.99057896146e-10
7.04110529837e-12
1.94212143912e-10
6.54374632703e-12
1.89708466342e-10
6.07658314776e-12
1.85525823477e-10
5.6390088487e-12
1.81643768942e-10
5.23003303995e-12
1.78042657568e-10
4.84840569545e-12
1.74703781538e-10
4.49271374281e-12
1.71609451152e-10
4.16145494303e-12
1.68743033393e-10
3.85309330474e-12
1.66088958932e-10
3.56609982657e-12
1.63632705949e-10
3.29898182306e-12
1.61360767184e-10
3.0503035889e-12
1.59260605035e-10
2.81870068082e-12
1.57320598132e-10
2.60288972006e-12
1.55529981677e-10
2.40167529477e-12
1.53878782847e-10
2.21395532771e-12
1.52357751672e-10
2.03872611542e-12
1.50958286965e-10
1.87508819603e-12
1.4967235608e-10
1.72225421298e-12
1.48492406356e-10
1.57956007528e-12
1.47411265129e-10
1.44648093097e-12
1.46422024009e-10
1.32265385075e-12
1.45517901676e-10
1.20790964294e-12
1.44692077769e-10
1.10231699557e-12
1.43937488379e-10
1.00624316897e-12
1.43246571549e-10
9.20436846077e-13
1.42610949453e-10
8.46140384687e-13
1.42021034224e-10
7.85240269817e-13
1.41465551061e-10
7.4046446543e-13
1.40930995923e-10
7.15628733366e-13
1.40401113596e-10
7.15905345186e-13
1.39856664634e-10
7.47989415028e-13
1.39276232032e-10
8.1971220062e-13
1.38640003402e-10
9.37595618556e-13
1.37942277971e-10
1.09642931231e-12
1.24146875053e-12
9.76224333183e-10
1.89915739756e-10
9.62940551668e-10
3.06394249406e-10
9.05938732368e-10
3.00318186533e-10
8.33377394689e-10
2.58413446762e-10
7.60253981194e-10
2.13076706658e-10
6.92986118173e-10
1.73461685923e-10
6.33651867137e-10
1.41126731943e-10
5.82362548694e-10
1.15340398644e-10
5.38440843251e-10
9.48750877445e-11
5.00969683843e-10
7.85729854155e-11
4.69030743117e-10
6.54873273901e-11
4.41796237215e-10
5.48842438465e-11
4.1855443264e-10
4.62064133251e-11
3.98707167698e-10
3.90327884272e-11
3.81757099339e-10
3.30444316168e-11
3.67292517848e-10
2.79980862982e-11
3.54972945027e-10
2.37065153938e-11
3.44516623747e-10
2.00241110763e-11
3.35690091281e-10
1.68364128892e-11
3.2829966642e-10
1.40524608369e-11
3.22184566815e-10
1.15991873901e-11
3.1721136503e-10
9.41727422312e-12
3.13269523791e-10
7.45806456941e-12
3.10267793562e-10
5.68124085363e-12
3.08131296777e-10
4.05306142175e-12
3.06799158627e-10
2.54500950316e-12
3.06222573186e-10
1.13274937077e-12
3.0636321649e-10
-2.04685647942e-13
3.07191935207e-10
-1.48552679529e-12
3.08687652828e-10
-2.72576297998e-12
3.1083644778e-10
-3.9395272911e-12
3.13630762253e-10
-5.13939268629e-12
3.17068705651e-10
-6.33658885314e-12
3.21153419697e-10
-7.54114915925e-12
3.25892473483e-10
-8.76199198979e-12
3.31297256637e-10
-1.00069371121e-11
3.37382337455e-10
-1.12826546671e-11
3.44164750545e-10
-1.25945418549e-11
3.51663175561e-10
-1.39465204407e-11
3.59896965439e-10
-1.53407470862e-11
3.68884979743e-10
-1.67772286561e-11
3.78644177361e-10
-1.82533367037e-11
3.89187924025e-10
-1.97632201897e-11
4.00523975983e-10
-2.1297124206e-11
4.12652113549e-10
-2.2840636218e-11
4.25561420125e-10
-2.43739010342e-11
4.39227235828e-10
-2.58708716269e-11
4.5360786235e-10
-2.72986939291e-11
4.68641157128e-10
-2.86173564471e-11
4.84241228015e-10
-2.97797636439e-11
5.00295517489e-10
-3.07324061614e-11
5.16662636433e-10
-3.14167898179e-11
5.33171355348e-10
-3.17717387624e-11
5.4962116757e-10
-3.17366015674e-11
5.65784788824e-10
-3.12552674184e-11
5.81412842152e-10
-3.02807585178e-11
5.96240798877e-10
-2.87800260013e-11
6.0999801664e-10
-2.67384596077e-11
6.22418451819e-10
-2.41635391267e-11
6.33252348934e-10
-2.10870215659e-11
6.42277957592e-10
-1.75651006751e-11
6.49312153543e-10
-1.3676143917e-11
6.54218819098e-10
-9.51595034879e-12
6.56914039455e-10
-5.19096665542e-12
6.57367613265e-10
-8.10429877498e-13
6.55600982509e-10
3.52123459578e-12
6.51682296744e-10
7.71042147848e-12
6.45719716864e-10
1.16779193001e-11
6.37854103935e-10
1.53599852571e-11
6.28251991955e-10
1.87074678885e-11
6.17099319268e-10
2.16839261587e-11
6.04595980927e-10
2.42636712966e-11
5.9095099094e-10
2.6430346008e-11
5.76377948557e-10
2.81762507701e-11
5.61090559828e-10
2.95022798583e-11
5.45298116092e-10
3.04181180917e-11
5.29201007465e-10
3.09422916829e-11
5.12986492991e-10
3.11017433131e-11
4.96825019996e-10
3.0930766553e-11
4.8086737092e-10
3.04693269651e-11
4.65242830136e-10
2.97609570257e-11
4.50058438541e-10
2.88504992944e-11
4.35399276579e-10
2.77819770301e-11
4.21329616128e-10
2.6596811189e-11
4.07894723012e-10
2.5332509606e-11
3.95123075586e-10
2.40218599793e-11
3.83028781832e-10
2.2692584643e-11
3.71614015129e-10
2.13673706136e-11
3.60871335021e-10
2.00641714431e-11
3.50785804884e-10
1.87966808373e-11
3.41336857737e-10
1.75748933964e-11
3.32499892274e-10
1.64056880062e-11
3.24247603152e-10
1.52933894743e-11
3.16551063761e-10
1.42402812212e-11
3.09380587639e-10
1.32470552034e-11
3.02706398097e-10
1.23131947393e-11
2.96499135767e-10
1.14372921113e-11
2.90730232136e-10
1.06173064426e-11
2.85372174207e-10
9.85076913707e-12
2.80398682232e-10
9.13494471261e-12
2.75784818975e-10
8.46695465983e-12
2.71507045865e-10
7.84387131529e-12
2.67543238392e-10
7.26278793186e-12
2.63872670588e-10
6.72087026173e-12
2.60475976179e-10
6.21539416953e-12
2.57335092091e-10
5.74377307639e-12
2.54433188359e-10
5.3035784608e-12
2.51754587086e-10
4.89255618078e-12
2.49284671835e-10
4.50864107408e-12
2.47009787749e-10
4.14997209672e-12
2.44917131653e-10
3.81491021507e-12
2.42994630381e-10
3.50206132716e-12
2.41230804654e-10
3.21030669661e-12
2.39614614906e-10
2.93884368208e-12
2.38135284707e-10
2.68723995594e-12
2.36782097024e-10
2.45550480838e-12
2.35544158919e-10
2.24418140609e-12
2.34410132312e-10
2.05446357308e-12
2.33367933841e-10
1.88833894872e-12
2.32404418969e-10
1.7487551954e-12
2.31505090688e-10
1.63979275083e-12
2.30653923653e-10
1.56679572272e-12
2.29833492539e-10
1.53633637952e-12
2.29025777914e-10
1.55570396196e-12
2.2821434003e-10
1.631150107e-12
2.27389037345e-10
1.76289843803e-12
2.26553623213e-10
1.93184364477e-12
2.06770049043e-12
9.71733198012e-10
1.55682541148e-10
9.8652937666e-10
2.91598069351e-10
9.67816757653e-10
3.19030804177e-10
9.27213031291e-10
2.99017171782e-10
8.76578327999e-10
2.63711408626e-10
8.2344306952e-10
2.26596943124e-10
7.71966081652e-10
1.92603718593e-10
7.24188766136e-10
1.63117713006e-10
6.80931796675e-10
1.38132056113e-10
6.42351560133e-10
1.17153220921e-10
6.08265856878e-10
9.95730296628e-11
5.78337685526e-10
8.48124142679e-11
5.52175580283e-10
7.23685176932e-11
5.29386170458e-10
6.18221974359e-11
5.09599949588e-10
5.28306517366e-11
4.92482345206e-10
4.51156900047e-11
4.77736952649e-10
3.84519073587e-11
4.65104777859e-10
3.26562853693e-11
4.5436161102e-10
2.75795793377e-11
4.45314677858e-10
2.30993937284e-11
4.37799168375e-10
1.91146967354e-11
4.31674939123e-10
1.55415034855e-11
4.26823519029e-10
1.23094848366e-11
4.23145460092e-10
9.35930014359e-12
4.2055802865e-10
6.64049341119e-12
4.18993211053e-10
4.10982785975e-12
4.18395998405e-10
1.72996300785e-12
4.18722912503e-10
-5.31598510419e-13
4.19940734355e-10
-2.70334714824e-12
4.2202540005e-10
-4.81042689543e-12
4.24961032902e-10
-6.87515806623e-12
4.28739077866e-10
-8.91743525893e-12
4.3335750714e-10
-1.09550154072e-11
4.38820066006e-10
-1.30037049609e-11
4.45135527159e-10
-1.50774497215e-11
4.523169202e-10
-1.71883263623e-11
4.6038070056e-10
-1.93464308561e-11
4.69345819157e-10
-2.15596558927e-11
4.79232650765e-10
-2.38333470952e-11
4.90061735872e-10
-2.61698268439e-11
5.01852288436e-10
-2.85677754775e-11
5.14620421378e-10
-3.10214635157e-11
5.28377044335e-10
-3.35198366445e-11
5.43125396028e-10
-3.60454690431e-11
5.58858188842e-10
-3.8573421852e-11
5.75554368743e-10
-4.10700734696e-11
5.93175532041e-10
-4.34920272191e-11
6.11662094013e-10
-4.57852480123e-11
6.30929373521e-10
-4.78846279455e-11
6.50863839817e-10
-4.97142218788e-11
6.71319855615e-10
-5.11884139214e-11
6.92117331003e-10
-5.22142572685e-11
7.1304075729e-10
-5.2695157295e-11
7.33840096951e-10
-5.25359337403e-11
7.54233946584e-10
-5.16491099233e-11
7.73915254833e-10
-4.99620600953e-11
7.9255967027e-10
-4.74244353347e-11
8.09836331061e-10
-4.40151149782e-11
8.25420609053e-10
-3.97478125028e-11
8.39008007957e-10
-3.46744167736e-11
8.50328119907e-10
-2.88852099508e-11
8.5915732556e-10
-2.25053479894e-11
8.6532887131e-10
-1.56874956491e-11
8.68739170098e-10
-8.60126612344e-12
8.69349689323e-10
-1.42095086629e-12
8.67184530014e-10
5.68639112987e-12
8.62324560909e-10
1.25703868997e-11
8.54899459348e-10
1.91030163797e-11
8.45079055309e-10
2.5180384142e-11
8.33065042795e-10
3.0721474695e-11
8.19083586088e-10
3.56653767221e-11
8.03378851407e-10
3.99683995027e-11
7.86207186824e-10
4.36020038697e-11
7.67831584866e-10
4.65518458348e-11
7.48516148569e-10
4.88177091488e-11
7.28520469324e-10
5.04137902698e-11
7.08094035733e-10
5.13687181932e-11
6.87470959478e-10
5.17248125214e-11
6.66865381387e-10
5.15363376756e-11
6.46467895033e-10
5.08668064707e-11
6.26443215039e-10
4.97856303331e-11
6.06929163502e-10
4.83645443427e-11
5.8803689575e-10
4.66742385266e-11
5.69852169963e-10
4.47815309837e-11
5.52437399861e-10
4.27472740028e-11
5.35834214175e-10
4.06250402691e-11
5.2006626903e-10
3.84605247167e-11
5.05142104198e-10
3.62915307108e-11
4.91057887413e-10
3.41483838359e-11
4.77799942649e-10
3.20546215554e-11
4.65347002635e-10
3.00278297093e-11
4.53672160631e-10
2.80805266496e-11
4.42744521507e-10
2.62210255733e-11
4.32530568675e-10
2.44542313529e-11
4.22995273159e-10
2.2782348333e-11
4.14102975678e-10
2.12054901355e-11
4.05818073747e-10
1.97221922443e-11
3.98105544603e-10
1.83298340602e-11
3.90931332217e-10
1.70249802503e-11
3.84262623448e-10
1.58036524446e-11
3.78068034941e-10
1.46615423487e-11
3.72317728988e-10
1.359417665e-11
3.6698347343e-10
1.25970430516e-11
3.62038657816e-10
1.16656856008e-11
3.57458275514e-10
1.07957763395e-11
3.53218879315e-10
9.98316926916e-12
3.49298516136e-10
9.22394174158e-12
3.45676644837e-10
8.51442767354e-12
3.42334039737e-10
7.85124644407e-12
3.39252681206e-10
7.23133095871e-12
3.36415633657e-10
6.65195814261e-12
3.33806910364e-10
6.11078503229e-12
3.31411323858e-10
5.60589363794e-12
3.29214320203e-10
5.13584778214e-12
3.27201795531e-10
4.6997650737e-12
3.25359893944e-10
4.29740683109e-12
3.2367478804e-10
3.92928772563e-12
3.22132447605e-10
3.59680439138e-12
3.20718410149e-10
3.30237674625e-12
3.19417581313e-10
3.04958432406e-12
3.1821411772e-10
2.84325658317e-12
3.17091484997e-10
2.68942863566e-12
3.16032845588e-10
2.59497594994e-12
3.15022013486e-10
2.56653622914e-12
3.14045277923e-10
2.60788585808e-12
3.13094161798e-10
2.7140147842e-12
3.12167432974e-10
2.85857268021e-12
2.97196290835e-12
9.6389710711e-10
1.29285433302e-10
9.87512420422e-10
2.67982754402e-10
9.89373896941e-10
3.1716932606e-10
9.71570614776e-10
3.16820452402e-10
9.41051845981e-10
2.94230175898e-10
9.03867095854e-10
2.63781691763e-10
8.64214275817e-10
2.32256537189e-10
8.24743453051e-10
2.02588534377e-10
7.87013253569e-10
1.7586225424e-10
7.51864399548e-10
1.5230207362e-10
7.1968431009e-10
1.31753117828e-10
6.90583943814e-10
1.13912779279e-10
6.64512385933e-10
9.84400743392e-11
6.41329553914e-10
8.50050282536e-11
6.20851489684e-10
7.33087148043e-11
6.02878006502e-10
6.30891720704e-11
5.87209115255e-10
5.41207975425e-11
5.73654391778e-10
4.62110078471e-11
5.62037954253e-10
3.91960159369e-11
5.52200750203e-10
3.29365969351e-11
5.44001228509e-10
2.73142176795e-11
5.37315072529e-10
2.22276588214e-11
5.3203441582e-10
1.75901410187e-11
5.28066800092e-10
1.33269154745e-11
5.25334032273e-10
9.37326097589e-12
5.23771032453e-10
5.67282758063e-12
5.23324723235e-10
2.17627229521e-12
5.23952984944e-10
-1.15985996893e-12
5.25623681753e-10
-4.37404351265e-12
5.28313758484e-10
-7.50050297502e-12
5.3200839914e-10
-1.05697978512e-11
5.36700228772e-10
-1.36092637907e-11
5.42388539545e-10
-1.66433248367e-11
5.49078518048e-10
-1.96936818694e-11
5.56780447471e-10
-2.27793772889e-11
5.65508854649e-10
-2.59167314143e-11
5.75281568276e-10
-2.91191420809e-11
5.86118650682e-10
-3.23967356124e-11
5.98041161661e-10
-3.57558551e-11
6.11069709417e-10
-3.91983713343e-11
6.25222741235e-10
-4.2720803739e-11
6.40514526105e-10
-4.63132445414e-11
6.56952784471e-10
-4.99580908836e-11
6.74535928477e-10
-5.36286086515e-11
6.93249891922e-10
-5.72873806453e-11
7.13064555414e-10
-6.08847320761e-11
7.3392981207e-10
-6.43572787845e-11
7.55771375221e-10
-6.76268059021e-11
7.78486503157e-10
-7.05997504845e-11
8.01939905191e-10
-7.31676184219e-11
8.25960191339e-10
-7.52086945258e-11
8.50337320667e-10
-7.65913810424e-11
8.74821569869e-10
-7.7179400977e-11
8.99124558132e-10
-7.68389165642e-11
9.22922803546e-10
-7.54473500322e-11
9.45864138382e-10
-7.29033898255e-11
9.67577081303e-10
-6.91373734312e-11
9.87682974472e-10
-6.41210037015e-11
1.00581036582e-09
-5.78751998929e-11
1.02161076867e-09
-5.04748162756e-11
1.03477458493e-09
-4.20490235897e-11
1.04504569205e-09
-3.2776453288e-11
1.05223308187e-09
-2.2874884501e-11
1.05621814184e-09
-1.25863260004e-11
1.05695676558e-09
-2.15957536264e-12
1.05447639203e-09
8.16676314885e-12
1.04886903495e-09
1.81777417566e-11
1.040281984e-09
2.76900645165e-11
1.02890789293e-09
3.65544718977e-11
1.01497549781e-09
4.46538661114e-11
9.98741501862e-10
5.1899368654e-11
9.80483555187e-10
5.8226341933e-11
9.6049391873e-10
6.3591635908e-11
9.39073339676e-10
6.79724203441e-11
9.16524803374e-10
7.13662408151e-11
8.93147071497e-10
7.37915174541e-11
8.69228176499e-10
7.52876084736e-11
8.45039241206e-10
7.59137431068e-11
8.20829077222e-10
7.57464969985e-11
7.96819973082e-10
7.48759060303e-11
7.7320493942e-10
7.34006595294e-11
7.50146487159e-10
7.14229922838e-11
7.27776832601e-10
6.90438889399e-11
7.06199290286e-10
6.63590693533e-11
6.85490546055e-10
6.34560145082e-11
6.6570349323e-10
6.04120896052e-11
6.46870347197e-10
5.72936675106e-11
6.29005808513e-10
5.41560664138e-11
6.12110105988e-10
5.10440836427e-11
5.96171808473e-10
4.79929166168e-11
5.81170341917e-10
4.5029294075e-11
5.67078184933e-10
4.21726817024e-11
5.5386274219e-10
3.94364666409e-11
5.41487912031e-10
3.6829060082e-11
5.29915374858e-10
3.43548843156e-11
5.19105633695e-10
3.20152303343e-11
5.09018839805e-10
2.98089853858e-11
4.9961543521e-10
2.77332381096e-11
4.90856641684e-10
2.57837734194e-11
4.8270482269e-10
2.39554712559e-11
4.75123741383e-10
2.22426236326e-11
4.6807873445e-10
2.06391837033e-11
4.61536818395e-10
1.91389593545e-11
4.55466741964e-10
1.77357623918e-11
4.49838995826e-10
1.64235229333e-11
4.44625788354e-10
1.51963772793e-11
4.3980099436e-10
1.40487363396e-11
4.35340081973e-10
1.29753407167e-11
4.31220021363e-10
1.19713077503e-11
4.27419177817e-10
1.1032175227e-11
4.23917190684e-10
1.01539460136e-11
4.20694838909e-10
9.3331375491e-12
4.17733893432e-10
8.56683985251e-12
4.15016956562e-10
7.85278537419e-12
4.12527288893e-10
7.18943344173e-12
4.10248625469e-10
6.57607092368e-12
4.08164985329e-10
6.01292849451e-12
4.06260482737e-10
5.5013075637e-12
4.04519155249e-10
5.04370476105e-12
4.02924834405e-10
4.64390563263e-12
4.01461100534e-10
4.30699085701e-12
4.00111384156e-10
4.03914536089e-12
3.98859299357e-10
3.84706106085e-12
3.97689300358e-10
3.73653553813e-12
3.96587665389e-10
3.70952115481e-12
3.95543365457e-10
3.75831501866e-12
3.94546755594e-10
3.85518277441e-12
3.93775546429e-12
9.57488553688e-10
1.09296878792e-10
9.82326017621e-10
2.43145288635e-10
9.9456711335e-10
3.04928228569e-10
9.91478784754e-10
3.1990877928e-10
9.7621666004e-10
3.09492298918e-10
9.52890553655e-10
2.87107796496e-10
9.24958818229e-10
2.6018827101e-10
8.94959944943e-10
2.32587406099e-10
8.6463579425e-10
2.06186403398e-10
8.3512465093e-10
1.81813215424e-10
8.0713331139e-10
1.59744455866e-10
7.81070156961e-10
1.39975932217e-10
7.57142268206e-10
1.22367961615e-10
7.35424238963e-10
1.06723056032e-10
7.15906067552e-10
9.28268847688e-11
6.98526046979e-10
8.04691912233e-11
6.83193085871e-10
6.9453757262e-11
6.69801665999e-10
5.96024263693e-11
6.5824171202e-10
5.0755968614e-11
6.48404970183e-10
4.27733375269e-11
6.40189007777e-10
3.55301789052e-11
6.33499603098e-10
2.89170623948e-11
6.28252056453e-10
2.2837686644e-11
6.24371786169e-10
1.72071848329e-11
6.21794457937e-10
1.19505883886e-11
6.20465815523e-10
7.0014692915e-12
6.20341325153e-10
2.30076209028e-12
6.21385707167e-10
-2.20424242021e-12
6.23572396751e-10
-6.56073338441e-12
6.26882967617e-10
-1.08110739685e-11
6.31306529137e-10
-1.49933593287e-11
6.36839096536e-10
-1.91418309665e-11
6.43482928669e-10
-2.3287156556e-11
6.51245820728e-10
-2.74565733151e-11
6.60140333238e-10
-3.16738889774e-11
6.70182933301e-10
-3.59593304367e-11
6.81393018921e-10
-4.03292264357e-11
6.93791792366e-10
-4.47955075585e-11
7.07400943836e-10
-4.93650048301e-11
7.22241102683e-10
-5.40385281927e-11
7.38330010403e-10
-5.88097092185e-11
7.55680368581e-10
-6.36636002231e-11
7.74297317047e-10
-6.8575036596e-11
7.94175504605e-10
-7.35067932029e-11
8.15295729146e-10
-7.84076019339e-11
8.37621148833e-10
-8.32101482762e-11
8.61093104972e-10
-8.78292312219e-11
8.85626653741e-10
-9.2160350777e-11
9.11105980656e-10
-9.60790733395e-11
9.37379968288e-10
-9.94416018569e-11
9.642582983e-10
-1.02087020232e-10
9.91508579129e-10
-1.03841657482e-10
1.01885507649e-09
-1.0452589389e-10
1.04597965396e-09
-1.03963489552e-10
1.07252547495e-09
-1.01993166546e-10
1.09810385956e-09
-9.84817700014e-11
1.12230443802e-09
-9.3337947573e-11
1.14470842552e-09
-8.65249870897e-11
1.16490448826e-09
-7.80712588553e-11
1.18250628741e-09
-6.80766120989e-11
1.19717037927e-09
-5.67131127287e-11
1.20861276846e-09
-4.42188404743e-11
1.2166221984e-09
-3.08843132223e-11
1.22106842808e-09
-1.7032555273e-11
1.22190443278e-09
-2.9955804419e-12
1.21916261403e-09
1.090858082e-11
1.21294636044e-09
2.43939936681e-11
1.20341911065e-09
3.72173121337e-11
1.19079307553e-09
4.91805044903e-11
1.17531907858e-09
6.01278602518e-11
1.15727801288e-09
6.99404313446e-11
1.13697365317e-09
7.8530698514e-11
1.11472619765e-09
8.58390882082e-11
1.09086590198e-09
9.18327127235e-11
1.06572638405e-09
9.65057553914e-11
1.03963750374e-09
9.98803943816e-11
1.0129180515e-09
1.02007057316e-10
9.85868723672e-10
1.02963067534e-10
9.58765958019e-10
1.02849259293e-10
9.31857136345e-10
1.01784724417e-10
9.05357471082e-10
9.99003216079e-11
8.79448650534e-10
9.73318097781e-11
8.54279097264e-10
9.42134393134e-11
8.29965542967e-10
9.06726209342e-11
8.06595555008e-10
8.68259999486e-11
7.84230651965e-10
8.27769903405e-11
7.62909693362e-10
7.86146240264e-11
7.42652297654e-10
7.44134602599e-11
7.23462114008e-10
7.02342656545e-11
7.05329836726e-10
6.61251924898e-11
6.88235901781e-10
6.21232278338e-11
6.7215284227e-10
5.82557402436e-11
6.570473053e-10
5.45420028517e-11
6.42881749108e-10
5.09946157161e-11
6.29615848564e-10
4.76207844947e-11
6.17207641517e-10
4.44234371994e-11
6.05614449469e-10
4.14021774224e-11
5.94793604918e-10
3.85540828081e-11
5.84703015313e-10
3.58743633177e-11
5.75301590544e-10
3.33568964519e-11
5.66549557589e-10
3.0994657134e-11
5.58408682694e-10
2.87800592495e-11
5.50842418354e-10
2.67052244371e-11
5.43815989524e-10
2.47621920416e-11
5.37296430957e-10
2.29430823832e-11
5.3125258531e-10
2.12402238579e-11
5.25655069719e-10
1.96462528998e-11
5.20476216848e-10
1.81541945813e-11
5.15689995026e-10
1.67575305778e-11
5.1127191088e-10
1.54502603811e-11
5.07198896928e-10
1.42269609643e-11
5.03449185928e-10
1.30828495309e-11
5.00002173315e-10
1.20138534224e-11
4.96838269024e-10
1.10166905887e-11
4.93938740349e-10
1.00889629998e-11
4.91285548456e-10
9.22926365332e-12
4.88861182959e-10
8.43729477408e-12
4.86648501853e-10
7.71398939342e-12
4.84630588331e-10
7.06161894096e-12
4.82790641858e-10
6.48385269156e-12
4.81111927801e-10
5.98570542804e-12
4.79577815658e-10
5.57325795136e-12
4.78171932326e-10
5.2529447896e-12
4.76878418252e-10
5.03004998196e-12
4.75682126168e-10
4.90581359308e-12
4.74568148333e-10
4.87229316125e-12
4.73519023067e-10
4.90430826157e-12
4.94982774164e-12
9.5285606193e-10
9.3940815904e-11
9.76220447757e-10
2.197809008e-10
9.93257718554e-10
2.87890955852e-10
9.99269151706e-10
3.13897344286e-10
9.94894098864e-10
3.13867349956e-10
9.82549603012e-10
2.99452290595e-10
9.6478279285e-10
2.77955079469e-10
9.43729108682e-10
2.53641088603e-10
9.21020871831e-10
2.28894638608e-10
8.97844521648e-10
2.0498956398e-10
8.75031628478e-10
1.82557347414e-10
8.53145105888e-10
1.61862453187e-10
8.3255026167e-10
1.42962804212e-10
8.13470047522e-10
1.25803268563e-10
7.96026773692e-10
1.10270156988e-10
7.80273061415e-10
9.62229019006e-11
7.66214536938e-10
8.35122801578e-11
7.53826311482e-10
7.19906502686e-11
7.43064841948e-10
6.1517436623e-11
7.33876386568e-10
5.19617914206e-11
7.26202966595e-10
4.32035974386e-11
7.19986511103e-10
3.51335165027e-11
7.15171684535e-10
2.76525118917e-11
7.11707763582e-10
2.067110454e-11
7.09549830868e-10
1.41085199394e-11
7.0865947942e-10
7.89181966924e-12
7.09005167303e-10
1.95507323898e-12
7.10562321622e-10
-3.7613975949e-12
7.1331325553e-10
-9.31166802483e-12
7.17246956523e-10
-1.47447755602e-11
7.223587676e-10
-2.01051708629e-11
7.28649976747e-10
-2.54330404168e-11
7.36127320622e-10
-3.07645005721e-11
7.44802399144e-10
-3.61316518052e-11
7.54690989992e-10
-4.15624796115e-11
7.65812245326e-10
-4.70805853631e-11
7.781877468e-10
-5.27047272998e-11
7.91840389159e-10
-5.84481490953e-11
8.06793057214e-10
-6.43176718388e-11
8.23067056077e-10
-7.03125257765e-11
8.40680250531e-10
-7.64229021492e-11
8.59644866965e-10
-8.26282148843e-11
8.79964911656e-10
-8.88950792564e-11
9.01633163823e-10
-9.51750430812e-11
9.24627713485e-10
-1.0140214905e-10
9.48908035798e-10
-1.07490467796e-10
9.74410629744e-10
-1.13331822141e-10