/*--------------------------------*- C++ -*----------------------------------*\
  =========                 |
  \\      /  F ield         | OpenFOAM: The Open Source CFD Toolbox
   \\    /   O peration     | Website:  https://openfoam.org
    \\  /    A nd           | Version:  7
     \\/     M anipulation  |
\*---------------------------------------------------------------------------*/
FoamFile
{
    version     2.0;
    format      ascii;
    class       volVectorField;
    location    "2700";
    object      U;
}
// * * * * * * * * * * * * * * * * * * * * * * * * * * * * * * * * * * * * * //

dimensions      [0 1 -1 0 0 0 0];

internalField   nonuniform List<vector> 
8192
(
(0.00104347960096 0.000156520399042 0)
(0.000759378161054 0.000127581040471 0)
(0.000549405857191 8.23912626353e-05 0)
(0.000414151169715 5.2863424138e-05 0)
(0.000326307316482 3.49804284293e-05 0)
(0.000267226988567 2.40998988464e-05 0)
(0.00022584976064 1.72773284926e-05 0)
(0.000195742595251 1.28298363853e-05 0)
(0.000173101201981 9.81155646362e-06 0)
(0.000155605693979 7.68395121062e-06 0)
(0.000141789417 6.13232553282e-06 0)
(0.000130690283988 4.96680733218e-06 0)
(0.000121654620378 4.06885621809e-06 0)
(0.000114223856586 3.36190760032e-06 0)
(0.000108067068231 2.79488087029e-06 0)
(0.000102939529689 2.33265788052e-06 0)
(9.86564479849e-05 1.95042413121e-06 0)
(9.50758180061e-05 1.63020626356e-06 0)
(9.20869196303e-05 1.35869264642e-06 0)
(8.9602403404e-05 1.12582424412e-06 0)
(8.75527196325e-05 9.23860334956e-07 0)
(8.58821158128e-05 7.46744450065e-07 0)
(8.45457078194e-05 5.89664682099e-07 0)
(8.35073018179e-05 4.48742648251e-07 0)
(8.27377513274e-05 3.20809378936e-07 0)
(8.22137026308e-05 2.03241081041e-07 0)
(8.19166266533e-05 9.38369061302e-08 0)
(8.18320652898e-05 -9.27326637798e-09 0)
(8.19490402788e-05 -1.07699158522e-07 0)
(8.22595860732e-05 -2.02843762168e-07 0)
(8.27583781417e-05 -2.95945100753e-07 0)
(8.34424354592e-05 -3.88108656575e-07 0)
(8.43108797204e-05 -4.80331667114e-07 0)
(8.53647363115e-05 -5.73520586285e-07 0)
(8.66067640407e-05 -6.68502382412e-07 0)
(8.80413014807e-05 -7.66029852366e-07 0)
(8.96741177379e-05 -8.66780733949e-07 0)
(9.15122546704e-05 -9.71350042573e-07 0)
(9.35638461218e-05 -1.0802347508e-06 0)
(9.5837897716e-05 -1.19380966921e-06 0)
(9.83440083178e-05 -1.31229323249e-06 0)
(0.00010109201168 -1.43570189983e-06 0)
(0.000104091514506 -1.56379216825e-06 0)
(0.000107351305846 -1.6959898971e-06 0)
(0.000110878613452 -1.83130794071e-06 0)
(0.000114678186756 -1.96825513406e-06 0)
(0.000118751195133 -2.10474260081e-06 0)
(0.000123093945816 -2.23799708932e-06 0)
(0.000127696449459 -2.36449528793e-06 0)
(0.000132540893288 -2.4799370963e-06 0)
(0.000137600120414 -2.57927851285e-06 0)
(0.000142836255083 -2.65684468815e-06 0)
(0.000148199650515 -2.7065394565e-06 0)
(0.00015362835951 -2.72215857447e-06 0)
(0.000159048329041 -2.69780046378e-06 0)
(0.000164374491561 -2.62835218826e-06 0)
(0.000169512864926 -2.51001208697e-06 0)
(0.000174363681097 -2.34079592676e-06 0)
(0.00017882544602 -2.12096191769e-06 0)
(0.000182799696838 -1.85328303488e-06 0)
(0.000186196081295 -1.54309688351e-06 0)
(0.00018893726211 -1.19808080354e-06 0)
(0.000190963084145 -8.27739565009e-07 0)
(0.000192233477436 -4.42653534622e-07 0)
(0.000192729731422 -5.36017079723e-08 0)
(0.000192454049949 3.2928053759e-07 0)
(0.000191427620554 6.97144914973e-07 0)
(0.000189687694415 1.04277609425e-06 0)
(0.000187284271857 1.36064027416e-06 0)
(0.00018427691778 1.64670669062e-06 0)
(0.000180732039168 1.89816402467e-06 0)
(0.000176720717454 2.11314914598e-06 0)
(0.000172316995358 2.29056389057e-06 0)
(0.000167596419533 2.43000247425e-06 0)
(0.000162634639786 2.53176751929e-06 0)
(0.000157505935782 2.5969265281e-06 0)
(0.000152281644473 2.62735470495e-06 0)
(0.00014702855854 2.62572110512e-06 0)
(0.000141807430526 2.59539680701e-06 0)
(0.000136671735367 2.54028833108e-06 0)
(0.000131666817732 2.46461942389e-06 0)
(0.000126829493841 2.37269477917e-06 0)
(0.00012218811036 2.26867925498e-06 0)
(0.000117763003831 2.15641811238e-06 0)
(0.00011356726493 2.03931195033e-06 0)
(0.000109607696075 1.92024842352e-06 0)
(0.000105885855397 1.80158415778e-06 0)
(0.000102399098082 1.68516546555e-06 0)
(9.91415502247e-05 1.57237512169e-06 0)
(9.61049747206e-05 1.46419354257e-06 0)
(9.32795097067e-05 1.36126506629e-06 0)
(9.06542759224e-05 1.26396274741e-06 0)
(8.82178600658e-05 1.17244756852e-06 0)
(8.59586874138e-05 1.08671996449e-06 0)
(8.38652997589e-05 1.00666298207e-06 0)
(8.19265551437e-05 9.32077321655e-07 0)
(8.01317648607e-05 8.62709031189e-07 0)
(7.84707813997e-05 7.9827086357e-07 0)
(7.6934048953e-05 7.38458362431e-07 0)
(7.5512626008e-05 6.82961687915e-07 0)
(7.41981876489e-05 6.31474082573e-07 0)
(7.29830135157e-05 5.83697747713e-07 0)
(7.18599659613e-05 5.39347769192e-07 0)
(7.08224617853e-05 4.98154614202e-07 0)
(6.98644399841e-05 4.5986561945e-07 0)
(6.8980327192e-05 4.24245810441e-07 0)
(6.81650018758e-05 3.91078329995e-07 0)
(6.74137578267e-05 3.6016471149e-07 0)
(6.67222670497e-05 3.31325208626e-07 0)
(6.60865417304e-05 3.04399387848e-07 0)
(6.55028945323e-05 2.79247205815e-07 0)
(6.49678959919e-05 2.55750833801e-07 0)
(6.44783271821e-05 2.33817564775e-07 0)
(6.40311250261e-05 2.13384256556e-07 0)
(6.36233165451e-05 1.94423953812e-07 0)
(6.32519367444e-05 1.7695562816e-07 0)
(6.29139224812e-05 1.61058456574e-07 0)
(6.26059710285e-05 1.46892846092e-07 0)
(6.23243463019e-05 1.34731746651e-07 0)
(6.20646063414e-05 1.25008083876e-07 0)
(6.18212100057e-05 1.18388113098e-07 0)
(6.15869345317e-05 1.1588720212e-07 0)
(6.13519922975e-05 1.19054844292e-07 0)
(6.11026712433e-05 1.30265990842e-07 0)
(6.08192660189e-05 1.53138993355e-07 0)
(6.04732519368e-05 1.92874855741e-07 0)
(6.00252064837e-05 2.5517044357e-07 0)
(5.94426700986e-05 3.27365910381e-07 0)
(0.00121019075168 0.000302850046088 0)
(0.00116037184289 0.000315171740706 0)
(0.00102703096857 0.00023811373843 0)
(0.000887617827624 0.00017180877468 0)
(0.000766946219975 0.000124550536756 0)
(0.000668492390327 9.20639461631e-05 0)
(0.000589558380798 6.96245168777e-05 0)
(0.000526325664393 5.38225282588e-05 0)
(0.000475364199339 4.24217216214e-05 0)
(0.000433944372065 3.39891202817e-05 0)
(0.000399984511332 2.76032933675e-05 0)
(0.000371916843341 2.26626399304e-05 0)
(0.000348559324163 1.87662060734e-05 0)
(0.000329014002779 1.56406428244e-05 0)
(0.000312591663451 1.30952734819e-05 0)
(0.000298757366669 1.09941010114e-05 0)
(0.000287091362727 9.23806735072e-06 0)
(0.000277260965153 7.75359161679e-06 0)
(0.000269000156286 6.48501590073e-06 0)
(0.000262094648305 5.38952694233e-06 0)
(0.000256370815808 4.43367606887e-06 0)
(0.000251687400742 3.59095022688e-06 0)
(0.000247929223889 2.84004688326e-06 0)
(0.000245002365464 2.16362855641e-06 0)
(0.000242830434033 1.54740967986e-06 0)
(0.000241351650962 9.79477489672e-07 0)
(0.00024051655273 4.49780359003e-07 0)
(0.000240286165842 -5.02620500858e-08 0)
(0.000240630545969 -5.28058248559e-07 0)
(0.000241527598591 -9.9007496488e-07 0)
(0.000242962117929 -1.44201623869e-06 0)
(0.000244924994598 -1.88896143846e-06 0)
(0.000247412550362 -2.33546778278e-06 0)
(0.000250425963943 -2.78564239653e-06 0)
(0.000253970755562 -3.24318649833e-06 0)
(0.000258056299427 -3.71141239114e-06 0)
(0.000262695333255 -4.19323235333e-06 0)
(0.000267903432316 -4.69111716764e-06 0)
(0.000273698412746 -5.20702090279e-06 0)
(0.000280099625348 -5.74226772966e-06 0)
(0.000287127097179 -6.29739622812e-06 0)
(0.000294800474755 -6.87195708208e-06 0)
(0.000303137720796 -7.4642617323e-06 0)
(0.000312153517512 -8.07108296218e-06 0)
(0.000321857335873 -8.68731419007e-06 0)
(0.000332251144395 -9.30560294613e-06 0)
(0.000343326755902 -9.91598594601e-06 0)
(0.000355062848895 -1.05055679187e-05 0)
(0.000367421753357 -1.10583025113e-05 0)
(0.000380346158203 -1.15549482066e-05 0)
(0.000393755974857 -1.19732808453e-05 0)
(0.00040754566936 -1.22886415196e-05 0)
(0.000421582439995 -1.24748793601e-05 0)
(0.000435705651206 -1.25057105926e-05 0)
(0.000449727920465 -1.2356460384e-05 0)
(0.000463438180028 -1.20060893286e-05 0)
(0.000476606896099 -1.14393415876e-05 0)
(0.000488993428798 -1.06487951245e-05 0)
(0.000500355270357 -9.63655202563e-06 0)
(0.000510458625814 -8.41528535731e-06 0)
(0.000519089530519 -7.00837348465e-06 0)
(0.000526064480158 -5.44892821773e-06 0)
(0.00053123945006 -3.7776815489e-06 0)
(0.000534516273765 -2.03992990635e-06 0)
(0.000535845676692 -2.81987402002e-07 0)
(0.000535226785597 1.45223004326e-06 0)
(0.000532703538706 3.12385959983e-06 0)
(0.000528358913301 4.70059783626e-06 0)
(0.000522308092942 6.15704366652e-06 0)
(0.000514691590184 7.47414006398e-06 0)
(0.000505669005231 8.63817223504e-06 0)
(0.000495413675822 9.63976853243e-06 0)
(0.000484108119419 1.047319827e-05 0)
(0.000471939975169 1.11360625298e-05 0)
(0.000459098131466 1.16293046337e-05 0)
(0.000445768833236 1.19573649576e-05 0)
(0.000432131735221 1.21282787069e-05 0)
(0.000418356036977 1.2153554367e-05 0)
(0.000404596950364 1.20477514087e-05 0)
(0.000390992784008 1.1827768785e-05 0)
(0.000377662882335 1.15119322688e-05 0)
(0.000364706552763 1.11190099704e-05 0)
(0.000352202988637 1.06672869475e-05 0)
(0.000340212081283 1.01738003928e-05 0)
(0.000328775934802 9.65379205106e-06 0)
(0.000317920860243 9.12038972684e-06 0)
(0.000307659627515 8.58449530507e-06 0)
(0.000297993782652 8.05483664625e-06 0)
(0.000288915881792 7.53813394936e-06 0)
(0.000280411540405 7.0393340571e-06 0)
(0.000272461239162 6.56187442671e-06 0)
(0.000265041862477 6.10794863503e-06 0)
(0.00025812797098 5.67875495947e-06 0)
(0.000251692825637 5.27471761379e-06 0)
(0.000245709190563 4.89567619664e-06 0)
(0.000240149945484 4.54104298482e-06 0)
(0.000234988539148 4.20993017676e-06 0)
(0.000230199312966 3.90125050866e-06 0)
(0.000225757721027 3.61379515783e-06 0)
(0.000221640468922 3.34629285145e-06 0)
(0.000217825590109 3.09745379761e-06 0)
(0.000214292475088 2.86600163672e-06 0)
(0.000211021865524 2.65069613595e-06 0)
(0.000207995822805 2.4503489111e-06 0)
(0.000205197678221 2.26383405518e-06 0)
(0.000202611970027 2.09009523128e-06 0)
(0.000200224371077 1.92815051865e-06 0)
(0.000198021609295 1.77709612122e-06 0)
(0.000195991382092 1.63610992249e-06 0)
(0.000194122264728 1.50445583331e-06 0)
(0.000192403611548 1.38148990212e-06 0)
(0.000190825447959 1.26666928198e-06 0)
(0.00018937834975 1.15956536059e-06 0)
(0.000188053305049 1.05988272103e-06 0)
(0.000186841552439 9.67486125294e-07 0)
(0.000185734386845 8.82438505326e-07 0)
(0.000184722922335 8.05054084717e-07 0)
(0.000183797798354 7.35972427581e-07 0)
(0.000182948813442 6.76261592851e-07 0)
(0.000182164469553 6.27561856559e-07 0)
(0.000181431414582 5.92285370974e-07 0)
(0.00018073379007 5.73889591474e-07 0)
(0.000180052550092 5.77234265211e-07 0)
(0.000179364978068 6.0897921646e-07 0)
(0.000178645053867 6.77754801752e-07 0)
(0.000177866390678 7.92936051617e-07 0)
(0.000177012660079 9.56885203451e-07 0)
(0.000176098941764 1.12190591072e-06 0)
(0.00122478357324 0.00026787572049 0)
(0.0012410655263 0.000383683019855 0)
(0.00119608274178 0.000347926115176 0)
(0.00111316232132 0.00028432995647 0)
(0.00101992408057 0.000225939200587 0)
(0.000930073663595 0.000178979526307 0)
(0.000849048310598 0.000142668296828 0)
(0.000778249226132 0.000114810547006 0)
(0.000717314170845 9.33302213143e-05 0)
(0.00066522273734 7.6591879737e-05 0)
(0.000620800273254 6.33828573643e-05 0)
(0.000582929267412 5.282174866e-05 0)
(0.000550624428708 4.42694543833e-05 0)
(0.000523047424217 3.72597198175e-05 0)
(0.000499497130904 3.14488288464e-05 0)
(0.000479391754999 2.65802183617e-05 0)
(0.00046224989624 2.24598130716e-05 0)
(0.000447673324015 1.89388164421e-05 0)
(0.000435332297618 1.59016275034e-05 0)
(0.000424953444929 1.32572776338e-05 0)
(0.000416309909271 1.09332956636e-05 0)
(0.000409213396381 8.87126127961e-06 0)
(0.000403507768845 7.02354352558e-06 0)
(0.000399063883106 5.35088005448e-06 0)
(0.000395775417817 3.82055961084e-06 0)
(0.000393555491459 2.40504249065e-06 0)
(0.000392333908361 1.08090305017e-06 0)
(0.000392054905393 -1.71987598391e-07 0)
(0.000392675297087 -1.37109623902e-06 0)
(0.000394162936343 -2.5317195099e-06 0)
(0.000396495424389 -3.66736860424e-06 0)
(0.000399659014421 -4.79006410112e-06 0)
(0.000403647659458 -5.91055298168e-06 0)
(0.000408462160223 -7.03845727216e-06 0)
(0.000414109371636 -8.18235898939e-06 0)
(0.000420601427277 -9.34982229054e-06 0)
(0.000427954940219 -1.05473506063e-05 0)
(0.00043619013632 -1.17802739122e-05 0)
(0.000445329872708 -1.3052559234e-05 0)
(0.00045539849024 -1.43665361956e-05 0)
(0.000466420444917 -1.57225293355e-05 0)
(0.000478418660547 -1.71183906726e-05 0)
(0.000491412544887 -1.85489304854e-05 0)
(0.000505415616005 -2.00052525569e-05 0)
(0.000520432697301 -2.14740134289e-05 0)
(0.000536456661552 -2.29366444739e-05 0)
(0.00055346473981 -2.43686011864e-05 0)
(0.000571414462834 -2.5738734944e-05 0)
(0.000590239372466 -2.70089153495e-05 0)
(0.000609844726491 -2.81340598423e-05 0)
(0.000630103517122 -2.90627422757e-05 0)
(0.00065085321851 -2.9738542315e-05 0)
(0.00067189375474 -3.01022527115e-05 0)
(0.000692987214667 -3.00949770213e-05 0)
(0.000713859812092 -2.9662031068e-05 0)
(0.000734206483825 -2.87574225917e-05 0)
(0.000753698330259 -2.73485461414e-05 0)
(0.000771992841931 -2.54206133466e-05 0)
(0.000788746539813 -2.2980255149e-05 0)
(0.000803629312482 -2.00576961246e-05 0)
(0.000816339396177 -1.67069410332e-05 0)
(0.000826617671126 -1.30035795211e-05 0)
(0.00083425982249 -9.04015020712e-06 0)
(0.000839125029474 -4.9194950312e-06 0)
(0.000841140257741 -7.47060815628e-07 0)
(0.000840299901296 3.37653964697e-06 0)
(0.000836661298722 7.36138443108e-06 0)
(0.00083033728871 1.11316900941e-05 0)
(0.000821487245312 1.46267939569e-05 0)
(0.00081030790137 1.7800212822e-05 0)
(0.000797024839183 2.06177209519e-05 0)
(0.000781884992125 2.30553690163e-05 0)
(0.000765150061994 2.50980558246e-05 0)
(0.000747090521278 2.67388605484e-05 0)
(0.000727979845366 2.79789962237e-05 0)
(0.000708088752589 2.88280340082e-05 0)
(0.000687679439077 2.9303990679e-05 0)
(0.000667000000292 2.94329489823e-05 0)
(0.000646279368312 2.92480451956e-05 0)
(0.000625723130187 2.87878497115e-05 0)
(0.000605510528676 2.80943253413e-05 0)
(0.000585792811953 2.72106347397e-05 0)
(0.000566692937677 2.61790729918e-05 0)
(0.000548306491333 2.50393414414e-05 0)
(0.000530703577049 2.38272862486e-05 0)
(0.000513931391102 2.25741316901e-05 0)
(0.000498017188748 2.13061653188e-05 0)
(0.000482971390055 2.00447883734e-05 0)
(0.000468790624096 1.88068285513e-05 0)
(0.000455460569539 1.76050162504e-05 0)
(0.000442958504077 1.64485411341e-05 0)
(0.000431255520007 1.53436262116e-05 0)
(0.000420318397073 1.42940766545e-05 0)
(0.000410111146824 1.33017776308e-05 0)
(0.000400596256896 1.23671285448e-05 0)
(0.000391735670871 1.14894102963e-05 0)
(0.000383491541673 1.06670880968e-05 0)
(0.000375826795458 9.89805576838e-06 0)
(0.000368705540059 9.17982904312e-06 0)
(0.000362093348121 8.50969577961e-06 0)
(0.000355957440772 7.88483069732e-06 0)
(0.000350266793498 7.30238153079e-06 0)
(0.000344992181925 6.75953264315e-06 0)
(0.000340106181747 6.25355126441e-06 0)
(0.000335583133931 5.78182070423e-06 0)
(0.000331399083693 5.34186418973e-06 0)
(0.000327531699488 4.93136240356e-06 0)
(0.000323960176285 4.54816736543e-06 0)
(0.000320665125709 4.19031500128e-06 0)
(0.000317628454133 3.85603858736e-06 0)
(0.000314833228417 3.54378523395e-06 0)
(0.000312263527701 3.25223769756e-06 0)
(0.000309904278422 2.98034408165e-06 0)
(0.000307741068519 2.72735842101e-06 0)
(0.000305759935753 2.49289574328e-06 0)
(0.000303947124308 2.27700595453e-06 0)
(0.000302288803804 2.08027172804e-06 0)
(0.000300770746388 1.90393626826e-06 0)
(0.000299377962338 1.75006677338e-06 0)
(0.000298094305798 1.62175709774e-06 0)
(0.00029690208618 1.52336461841e-06 0)
(0.000295781769178 1.4607516519e-06 0)
(0.000294711946363 1.44143470381e-06 0)
(0.00029366993309 1.47436376127e-06 0)
(0.000292633675484 1.56855187688e-06 0)
(0.000291586161519 1.72831619621e-06 0)
(0.000290523302757 1.93809469253e-06 0)
(0.000289459849489 2.11786831421e-06 0)
(0.00122190924673 0.000221182899778 0)
(0.00125328804779 0.000382715084005 0)
(0.00125078152596 0.000396383354054 0)
(0.00121281906492 0.000356755595868 0)
(0.00115442646995 0.000305144393782 0)
(0.00108801369441 0.00025603752259 0)
(0.00102106185675 0.000213587488343 0)
(0.000957539102584 0.000178213191456 0)
(0.000899277160199 0.000149124572069 0)
(0.000846901348357 0.000125264772056 0)
(0.000800395146887 0.000105638628514 0)
(0.000759426267138 8.94058611932e-05 0)
(0.000723528490118 7.58879558517e-05 0)
(0.000692199520474 6.45471909524e-05 0)
(0.00066495111683 5.49600533462e-05 0)
(0.000641332668668 4.67928168339e-05 0)
(0.000620940350627 3.97813905616e-05 0)
(0.000603418707525 3.37154537252e-05 0)
(0.000588458488883 2.84262350252e-05 0)
(0.000575792824882 2.37771869218e-05 0)
(0.000565192861589 1.96568858403e-05 0)
(0.000556463428799 1.59736177335e-05 0)
(0.000549439013218 1.26512316199e-05 0)
(0.000543980146638 9.62594623822e-06 0)
(0.000539970232795 6.84387509308e-06 0)
(0.00053731279341 4.25909591226e-06 0)
(0.000535929094053 1.83213592232e-06 0)
(0.000535756102981 -4.71221861351e-07 0)
(0.000536744733989 -2.68087932386e-06 0)
(0.000538858326019 -4.82316152026e-06 0)
(0.000542071317089 -6.92139862869e-06 0)
(0.000546368070891 -8.99636988494e-06 0)
(0.000551741814403 -1.10666267266e-05 0)
(0.000558193646813 -1.31487066369e-05 0)
(0.000565731579625 -1.52572426952e-05 0)
(0.00057436956631 -1.74049686236e-05 0)
(0.000584126477286 -1.96026147348e-05 0)
(0.000595024972619 -2.18586865585e-05 0)
(0.00060709022075 -2.4179115223e-05 0)
(0.000620348407447 -2.65667673153e-05 0)
(0.000634824975557 -2.90208026455e-05 0)
(0.00065054253428 -3.15358721404e-05 0)
(0.000667518378056 -3.41011563739e-05 0)
(0.000685761561833 -3.66992596794e-05 0)
(0.000705269494317 -3.93049971648e-05 0)
(0.000726024036855 -4.18841436824e-05 0)
(0.000747987136502 -4.43922552614e-05 0)
(0.000771096080674 -4.67737228425e-05 0)
(0.000795258539222 -4.89612700113e-05 0)
(0.000820347656537 -5.08761507345e-05 0)
(0.000846197565077 -5.2429324853e-05 0)
(0.000872599799436 -5.35238701353e-05 0)
(0.000899301176508 -5.40588134767e-05 0)
(0.000926003746715 -5.3934422597e-05 0)
(0.000952367387863 -5.30588014987e-05 0)
(0.000978015488907 -5.13554039124e-05 0)
(0.00100254395207 -4.8770855255e-05 0)
(0.00102553344085 -4.5282287735e-05 0)
(0.00104656444167 -4.09032650429e-05 0)
(0.00106523431489 -3.56873205372e-05 0)
(0.00108117512183 -2.97281988006e-05 0)
(0.0010940706851 -2.31561548201e-05 0)
(0.001103671166 -1.61302054387e-05 0)
(0.0011098035465 -8.82702897847e-06 0)
(0.00111237687003 -1.42808367602e-06 0)
(0.00111138190038 5.89288046442e-06 0)
(0.00110688581819 1.2979717362e-05 0)
(0.00109902337296 1.96997988351e-05 0)
(0.00108798624938 2.59458364154e-05 0)
(0.00107401222279 3.16345232534e-05 0)
(0.00105737512249 3.67035538438e-05 0)
(0.00103837596 4.11085253116e-05 0)
(0.00101733506447 4.48207039217e-05 0)
(0.000994584813882 4.78259818271e-05 0)
(0.000970462549399 5.01247929645e-05 0)
(0.000945303435452 5.17324213514e-05 0)
(0.000919433283237 5.26790463207e-05 0)
(0.000893161596936 5.3008995734e-05 0)
(0.000866775258154 5.27789467063e-05 0)
(0.000840533296909 5.20551253989e-05 0)
(0.000814663110446 5.09098159096e-05 0)
(0.000789358322266 4.94176279277e-05 0)
(0.000764778277922 4.76519779563e-05 0)
(0.000741049002056 4.56821389905e-05 0)
(0.000718265324687 4.35710615096e-05 0)
(0.000696493832983 4.1374016159e-05 0)
(0.000675776309251 3.91379899902e-05 0)
(0.000656133358866 3.69016968476e-05 0)
(0.000637567994631 3.46960353786e-05 0)
(0.00062006901124 3.25448335313e-05 0)
(0.000603614044982 3.04657427876e-05 0)
(0.00058817226449 2.84711773797e-05 0)
(0.000573706676568 2.65692256305e-05 0)
(0.000560176057716 2.47644880474e-05 0)
(0.000547536538774 2.30588182633e-05 0)
(0.000535742879256 2.14519583199e-05 0)
(0.000524749471633 1.99420699876e-05 0)
(0.000514511115744 1.85261699218e-05 0)
(0.000504983601165 1.72004796079e-05 0)
(0.000496124131626 1.59607021806e-05 0)
(0.000487891621369 1.48022380854e-05 0)
(0.000480246888915 1.37203506978e-05 0)
(0.000473152769548 1.27102918294e-05 0)
(0.000466574163998 1.1767395752e-05 0)
(0.000460478037331 1.08871491258e-05 0)
(0.00045483337909 1.00652431012e-05 0)
(0.000449611133088 9.29761292952e-06 0)
(0.000444784103023 8.58046966676e-06 0)
(0.000440326838127 7.91032801162e-06 0)
(0.000436215501403 7.28403395547e-06 0)
(0.000432427721512 6.69879574891e-06 0)
(0.000428942428173 6.15222167005e-06 0)
(0.000425739669902 5.64236821412e-06 0)
(0.000422800412199 5.1678025371e-06 0)
(0.00042010631407 4.72768321897e-06 0)
(0.000417639481264 4.32186344926e-06 0)
(0.00041538219647 3.9510202443e-06 0)
(0.000413316630812 3.61681149726e-06 0)
(0.000411424548963 3.32205804478e-06 0)
(0.000409687034536 3.07093729246e-06 0)
(0.000408084287381 2.86915157376e-06 0)
(0.000406595585739 2.72398358936e-06 0)
(0.000405199571574 2.64403989085e-06 0)
(0.000403875109807 2.6382337223e-06 0)
(0.000402603066501 2.71298301765e-06 0)
(0.000401369241422 2.86522446222e-06 0)
(0.000400167420654 3.06586644798e-06 0)
(0.000398995586352 3.22538457522e-06 0)
(0.00121689414855 0.000182379503648 0)
(0.00124890209762 0.000358131727202 0)
(0.00126520724311 0.000407168083351 0)
(0.0012550044875 0.000394136079478 0)
(0.00122407837488 0.000357082614095 0)
(0.00118074812277 0.000313842326328 0)
(0.00113157207787 0.000271910563701 0)
(0.00108093294648 0.000234051998325 0)
(0.00103152429224 0.000200956358626 0)
(0.000984881697995 0.000172451388506 0)
(0.000941791174168 0.000148048734394 0)
(0.000902571682499 0.00012718412387 0)
(0.000867261651038 0.000109317498901 0)
(0.000835738841502 9.39694244413e-05 0)
(0.000807795867902 8.07291945862e-05 0)
(0.000783186877559 6.92511117281e-05 0)
(0.000761655757924 5.92465311368e-05 0)
(0.000742952644502 5.04750676584e-05 0)
(0.00072684310146 4.27363809757e-05 0)
(0.000713112770851 3.58630340246e-05 0)
(0.000701569266375 2.97145052255e-05 0)
(0.000692042432664 2.41722638764e-05 0)
(0.000684383672543 1.91357605474e-05 0)
(0.000678464778184 1.45191779956e-05 0)
(0.000674176532714 1.02488028077e-05 0)
(0.000671427241425 6.26089948184e-06 0)
(0.00067014128364 2.49999059396e-06 0)
(0.000670257733235 -1.08253342678e-06 0)
(0.000671729066686 -4.52953002297e-06 0)
(0.000674519961752 -7.87899511709e-06 0)
(0.000678606180879 -1.11647717871e-05 0)
(0.000683973521864 -1.44170873918e-05 0)
(0.000690616811723 -1.76629377561e-05 0)
(0.000698538916859 -2.09263275714e-05 0)
(0.000707749737932 -2.42283692867e-05 0)
(0.000718265153356 -2.7587236977e-05 0)
(0.000730105870672 -3.10179666797e-05 0)
(0.000743296140134 -3.45320905633e-05 0)
(0.0007578622799 -3.8137089405e-05 0)
(0.00077383095749 -4.18356468341e-05 0)
(0.000791227168417 -4.56246906985e-05 0)
(0.000810071851097 -4.94942131565e-05 0)
(0.000830379078768 -5.3425873618e-05 0)
(0.000852152776286 -5.73914097245e-05 0)
(0.000875382925055 -6.13509135983e-05 0)
(0.000900041246295 -6.52510755493e-05 0)
(0.000926076395189 -6.90235558423e-05 0)
(0.000953408759866 -7.25837145052e-05 0)
(0.000981925042162 -7.58300021952e-05 0)
(0.00101147290134 -7.86443777925e-05 0)
(0.00104185606178 -8.08941494062e-05 0)
(0.00107283040768 -8.24356085189e-05 0)
(0.00110410168994 -8.31197172941e-05 0)
(0.00113532552192 -8.27999041949e-05 0)
(0.00116611031147 -8.13417343716e-05 0)
(0.00119602364283 -7.86338879493e-05 0)
(0.0012246023806 -7.45995576101e-05 0)
(0.0012513664357 -6.9207115955e-05 0)
(0.00127583573778 -6.24787279332e-05 0)
(0.00129754952607 -5.44955091515e-05 0)
(0.0013160866263 -4.5397909466e-05 0)
(0.00133108497727 -3.53803528175e-05 0)
(0.00134225841531 -2.46799232961e-05 0)
(0.00134940878317 -1.35600589593e-05 0)
(0.00135243194075 -2.29153678651e-06 0)
(0.00135131722087 8.86601873838e-06 0)
(0.00134614107327 1.96788023401e-05 0)
(0.00133705665213 2.99475717736e-05 0)
(0.00132428152124 3.95103078654e-05 0)
(0.00130808537007 4.82402181161e-05 0)
(0.00128877887979 5.60414370407e-05 0)
(0.00126670403651 6.28446345188e-05 0)
(0.00124222558331 6.86039294577e-05 0)
(0.00121572304538 7.32955303545e-05 0)
(0.00118758281155 7.69177279769e-05 0)
(0.00115818999992 7.94913969433e-05 0)
(0.00112792015872 8.10600490667e-05 0)
(0.00109713114733 8.1688675602e-05 0)
(0.00106615572379 8.14610141915e-05 0)
(0.00103529539219 8.04753360006e-05 0)
(0.001004815944 7.8839225512e-05 0)
(0.000974944913011 7.66640234409e-05 0)
(0.000945870924647 7.40596015785e-05 0)
(0.000917744718648 7.11299842157e-05 0)
(0.000890681495258 6.7970104647e-05 0)
(0.000864764185143 6.46637631195e-05 0)
(0.000840047257874 6.12826830254e-05 0)
(0.000816560739655 5.78864621597e-05 0)
(0.000794314185281 5.45231791863e-05 0)
(0.000773300425255 5.12304244302e-05 0)
(0.000753498976249 4.8036559222e-05 0)
(0.000734879057184 4.49620533453e-05 0)
(0.000717402193359 4.20207950171e-05 0)
(0.000701024418702 3.92213065183e-05 0)
(0.000685698103609 3.65678288951e-05 0)
(0.000671373445474 3.40612611007e-05 0)
(0.00065799966304 3.16999536833e-05 0)
(0.000645525936009 2.94803661887e-05 0)
(0.000633902129212 2.73976023486e-05 0)
(0.000623079337199 2.54458391683e-05 0)
(0.000613010281007 2.3618666228e-05 0)
(0.000603649584533 2.19093506261e-05 0)
(0.00059495395382 2.03110415399e-05 0)
(0.000586882278629 1.88169267153e-05 0)
(0.000579395672186 1.74203515346e-05 0)
(0.000572457461875 1.6114909791e-05 0)
(0.000566033140937 1.48945139719e-05 0)
(0.000560090288853 1.37534517698e-05 0)
(0.000554598466135 1.26864346844e-05 0)
(0.000549529087475 1.16886439588e-05 0)
(0.000544855275841 1.075577866e-05 0)
(0.00054055169894 9.88411045209e-06 0)
(0.000536594388698 9.07054943389e-06 0)
(0.000532960543996 8.31272522005e-06 0)
(0.000529628317091 7.60908704987e-06 0)
(0.000526576585192 6.95902576306e-06 0)
(0.00052378471091 6.36301838089e-06 0)
(0.000521232299562 5.82279165125e-06 0)
(0.000518898968311 5.34149216468e-06 0)
(0.000516764153379 4.92383357228e-06 0)
(0.000514806998361 4.57615836171e-06 0)
(0.000513006390202 4.30628735779e-06 0)
(0.000511341237448 4.12290368691e-06 0)
(0.000509791103818 4.03396593106e-06 0)
(0.000508337258079 4.04314048825e-06 0)
(0.000506963859742 4.14229107383e-06 0)
(0.000505657677473 4.29680349096e-06 0)
(0.000504401740016 4.42221975849e-06 0)
(0.00121279267436 0.000152692679741 0)
(0.00124148132564 0.000327121947544 0)
(0.00126521160382 0.000398142434962 0)
(0.00127106937479 0.000407506708276 0)
(0.00125932508467 0.000386382383882 0)
(0.00123462861676 0.000352569272486 0)
(0.00120182359801 0.000315164677248 0)
(0.00116474800843 0.000278512601904 0)
(0.00112614127308 0.000244511140888 0)
(0.00108784668492 0.000213833784988 0)
(0.00105104509589 0.000186558447164 0)
(0.00101645021974 0.000162488775357 0)
(0.000984455952107 0.000141317143011 0)
(0.000955242564588 0.000122705973943 0)
(0.00092885139617 0.000106326783727 0)
(0.0009052365533 9.18773525079e-05 0)
(0.000884300245024 7.90877150749e-05 0)
(0.000865916641197 6.77205978985e-05 0)
(0.000849947761932 5.75692701125e-05 0)
(0.00083625387661 4.84543580557e-05 0)
(0.000824700145894 4.02204138142e-05 0)
(0.00081516071096 3.27326215784e-05 0)
(0.000807521062113 2.58738097041e-05 0)
(0.000801679259278 1.95418241967e-05 0)
(0.000797546396228 1.36472635932e-05 0)
(0.000795046575014 8.11154999816e-06 0)
(0.000794116570032 2.86530200672e-06 0)
(0.000794705300684 -2.15302552905e-06 0)
(0.000796773186507 -6.99825721412e-06 0)
(0.000800291433195 -1.17194092439e-05 0)
(0.000805241277922 -1.63604205951e-05 0)
(0.000811613200431 -2.09607006446e-05 0)
(0.000819406096131 -2.55555080913e-05 0)
(0.000828626399614 -3.01761633181e-05 0)
(0.000839287138539 -3.48500904104e-05 0)
(0.000851406890585 -3.96006795846e-05 0)
(0.000865008609422 -4.44469558506e-05 0)
(0.000880118279224 -4.94030356294e-05 0)
(0.00089676335117 -5.44773503553e-05 0)
(0.000914970909772 -5.96716156973e-05 0)
(0.000934765512375 -6.49795282928e-05 0)
(0.00095616664255 -7.03851806493e-05 0)
(0.000979185718802 -7.58612015869e-05 0)
(0.00100382260586 -8.13666571868e-05 0)
(0.0010300615896 -8.68447888507e-05 0)
(0.00105786680191 -9.22207234255e-05 0)
(0.00108717712244 -9.73993664041e-05 0)
(0.00111790064558 -0.000102263780275 0)
(0.00114990888601 -0.000106674447247 0)
(0.00118303100732 -0.000110469900978 0)
(0.00121704849062 -0.000113469257445 0)
(0.00125169080155 -0.000115477144655 0)
(0.0012866327396 -0.000116291388715 0)
(0.00132149422748 -0.000115713539915 0)
(0.0013558432825 -0.00011356193061 0)
(0.00138920277408 -0.000109686502289 0)
(0.00142106131045 -0.000103984205443 0)
(0.00145088823266 -9.64134341063e-05 0)
(0.00147815226482 -8.70057335988e-05 0)
(0.00150234289643 -7.58729141597e-05 0)
(0.00152299306668 -6.32077672438e-05 0)
(0.00153970121455 -4.92769880078e-05 0)
(0.00155215037879 -3.44058865429e-05 0)
(0.00156012200095 -1.8956084015e-05 0)
(0.00156350263095 -3.29929971491e-06 0)
(0.00156228290995 1.22082201401e-05 0)
(0.00155654974366 2.72459106719e-05 0)
(0.0015464739015 4.15407210561e-05 0)
(0.00153229579916 5.48703848883e-05 0)
(0.00151431177862 6.70603048724e-05 0)
(0.00149286213853 7.79774719991e-05 0)
(0.00146832106627 8.75245058861e-05 0)
(0.00144108790452 9.56356634344e-05 0)
(0.00141157894376 0.000102275285163 0)
(0.00138021906306 0.000107438077572 0)
(0.00134743288819 0.000111150023575 0)
(0.00131363555535 0.000113468586105 0)
(0.00127922353611 0.00011448115881 0)
(0.00124456619628 0.000114301284027 0)
(0.00120999878039 0.000113062803486 0)
(0.00117581734875 0.000110912627928 0)
(0.00114227591783 0.00010800307332 0)
(0.00110958575859 0.000104484690082 0)
(0.00107791656975 0.000100500281784 0)
(0.0010473991027 9.61804892523e-05 0)
(0.00101812877246 9.16410111652e-05 0)
(0.00099016982101 8.69813065836e-05 0)
(0.000963559674251 8.22844970712e-05 0)
(0.000938313223464 7.76181435502e-05 0)
(0.00091442684847 7.30355898282e-05 0)
(0.000891882072644 6.85776140216e-05 0)
(0.000870648796192 6.42741900455e-05 0)
(0.000850688094445 6.01462204752e-05 0)
(0.000831954594821 5.62071525107e-05 0)